/*--------------------------------*- C++ -*----------------------------------*\
| =========                 |                                                 |
| \\      /  F ield         | OpenFOAM: The Open Source CFD Toolbox           |
|  \\    /   O peration     | Version:  4.1                                   |
|   \\  /    A nd           | Web:      www.OpenFOAM.org                      |
|    \\/     M anipulation  |                                                 |
\*---------------------------------------------------------------------------*/
FoamFile
{
    version     2.0;
    format      ascii;
    class       volScalarField;
    location    "3.7";
    object      p;
}
// * * * * * * * * * * * * * * * * * * * * * * * * * * * * * * * * * * * * * //

dimensions      [0 2 -2 0 0 0 0];

internalField   nonuniform List<scalar> 
400
(
2.39519e-11
2.67392e-11
2.2813e-11
2.44009e-11
2.15076e-11
2.23447e-11
2.01547e-11
2.03922e-11
1.87342e-11
1.84972e-11
1.72562e-11
1.66383e-11
1.577e-11
1.48098e-11
1.42714e-11
1.29717e-11
1.27741e-11
1.11454e-11
1.14091e-11
1.07537e-11
2.38656e-11
2.66506e-11
2.28063e-11
2.43991e-11
2.15077e-11
2.23444e-11
2.01549e-11
2.0392e-11
1.87343e-11
1.84971e-11
1.72563e-11
1.66383e-11
1.577e-11
1.48098e-11
1.42713e-11
1.29717e-11
1.27731e-11
1.1146e-11
1.13499e-11
1.06911e-11
2.38162e-11
2.65873e-11
2.27981e-11
2.4399e-11
2.15066e-11
2.23451e-11
2.01543e-11
2.03925e-11
1.87339e-11
1.84973e-11
1.72561e-11
1.66384e-11
1.577e-11
1.48097e-11
1.42714e-11
1.29714e-11
1.27727e-11
1.11453e-11
1.13031e-11
1.06479e-11
2.38007e-11
2.65576e-11
2.27904e-11
2.43992e-11
2.15054e-11
2.23459e-11
2.01536e-11
2.0393e-11
1.87335e-11
1.84976e-11
1.72559e-11
1.66385e-11
1.577e-11
1.48096e-11
1.42716e-11
1.29711e-11
1.27725e-11
1.11437e-11
1.12763e-11
1.06257e-11
2.38056e-11
2.65515e-11
2.27831e-11
2.43993e-11
2.15045e-11
2.23465e-11
2.01531e-11
2.03934e-11
1.87332e-11
1.84979e-11
1.72558e-11
1.66386e-11
1.577e-11
1.48095e-11
1.42718e-11
1.29708e-11
1.27724e-11
1.11416e-11
1.12651e-11
1.06181e-11
2.38238e-11
2.6561e-11
2.27758e-11
2.43994e-11
2.15037e-11
2.2347e-11
2.01527e-11
2.03937e-11
1.8733e-11
1.84981e-11
1.72556e-11
1.66386e-11
1.577e-11
1.48095e-11
1.42719e-11
1.29706e-11
1.27724e-11
1.11393e-11
1.12662e-11
1.06217e-11
2.38515e-11
2.65815e-11
2.27684e-11
2.43993e-11
2.1503e-11
2.23473e-11
2.01524e-11
2.0394e-11
1.87328e-11
1.84983e-11
1.72555e-11
1.66386e-11
1.57701e-11
1.48094e-11
1.4272e-11
1.29705e-11
1.27724e-11
1.11369e-11
1.12778e-11
1.06346e-11
2.3884e-11
2.66081e-11
2.27607e-11
2.43992e-11
2.15025e-11
2.23476e-11
2.01521e-11
2.03941e-11
1.87327e-11
1.84984e-11
1.72553e-11
1.66387e-11
1.577e-11
1.48094e-11
1.42721e-11
1.29704e-11
1.27725e-11
1.11346e-11
1.12973e-11
1.06543e-11
2.39169e-11
2.66362e-11
2.27529e-11
2.43988e-11
2.15021e-11
2.23477e-11
2.0152e-11
2.03942e-11
1.87326e-11
1.84985e-11
1.72552e-11
1.66386e-11
1.577e-11
1.48094e-11
1.42721e-11
1.29703e-11
1.27726e-11
1.11327e-11
1.13217e-11
1.06777e-11
2.3946e-11
2.66612e-11
2.27448e-11
2.43983e-11
2.15018e-11
2.23478e-11
2.01519e-11
2.03943e-11
1.87327e-11
1.84986e-11
1.72551e-11
1.66386e-11
1.577e-11
1.48093e-11
1.42721e-11
1.29703e-11
1.27727e-11
1.11312e-11
1.13479e-11
1.07017e-11
2.39675e-11
2.66796e-11
2.27366e-11
2.43975e-11
2.15016e-11
2.23477e-11
2.01519e-11
2.03942e-11
1.87328e-11
1.84986e-11
1.72551e-11
1.66386e-11
1.57699e-11
1.48093e-11
1.42721e-11
1.29704e-11
1.27727e-11
1.11302e-11
1.13725e-11
1.07232e-11
2.39789e-11
2.66885e-11
2.27285e-11
2.43964e-11
2.15015e-11
2.23475e-11
2.01521e-11
2.03941e-11
1.87329e-11
1.84987e-11
1.72551e-11
1.66386e-11
1.57698e-11
1.48093e-11
1.42721e-11
1.29705e-11
1.27726e-11
1.11297e-11
1.13928e-11
1.07393e-11
2.39783e-11
2.66861e-11
2.27206e-11
2.43951e-11
2.15016e-11
2.23472e-11
2.01523e-11
2.0394e-11
1.87331e-11
1.84986e-11
1.72551e-11
1.66386e-11
1.57697e-11
1.48093e-11
1.4272e-11
1.29707e-11
1.27723e-11
1.11298e-11
1.14064e-11
1.07479e-11
2.39652e-11
2.66722e-11
2.27132e-11
2.43935e-11
2.15019e-11
2.23467e-11
2.01526e-11
2.03937e-11
1.87333e-11
1.84986e-11
1.72551e-11
1.66386e-11
1.57697e-11
1.48093e-11
1.42719e-11
1.29709e-11
1.2772e-11
1.11302e-11
1.14113e-11
1.07474e-11
2.39404e-11
2.66477e-11
2.27066e-11
2.43918e-11
2.15023e-11
2.23461e-11
2.01529e-11
2.03935e-11
1.87336e-11
1.84985e-11
1.72551e-11
1.66386e-11
1.57696e-11
1.48094e-11
1.42717e-11
1.29712e-11
1.27714e-11
1.11309e-11
1.14067e-11
1.07371e-11
2.39061e-11
2.66151e-11
2.2701e-11
2.43898e-11
2.15028e-11
2.23454e-11
2.01534e-11
2.03931e-11
1.87339e-11
1.84985e-11
1.72552e-11
1.66386e-11
1.57694e-11
1.48094e-11
1.42715e-11
1.29715e-11
1.27708e-11
1.11319e-11
1.13927e-11
1.07172e-11
2.38652e-11
2.65781e-11
2.26965e-11
2.43876e-11
2.15035e-11
2.23446e-11
2.0154e-11
2.03927e-11
1.87342e-11
1.84983e-11
1.72553e-11
1.66386e-11
1.57693e-11
1.48095e-11
1.42713e-11
1.29717e-11
1.277e-11
1.1133e-11
1.13706e-11
1.06887e-11
2.38237e-11
2.65434e-11
2.26934e-11
2.43853e-11
2.15043e-11
2.23435e-11
2.01548e-11
2.03921e-11
1.87347e-11
1.8498e-11
1.72555e-11
1.66385e-11
1.57692e-11
1.48096e-11
1.42709e-11
1.2972e-11
1.27691e-11
1.11342e-11
1.13428e-11
1.06541e-11
2.37918e-11
2.65177e-11
2.26912e-11
2.43832e-11
2.1505e-11
2.23427e-11
2.01555e-11
2.03917e-11
1.87351e-11
1.84978e-11
1.72556e-11
1.66385e-11
1.57692e-11
1.48096e-11
1.42707e-11
1.29723e-11
1.27682e-11
1.11352e-11
1.13114e-11
1.06167e-11
2.3786e-11
2.65063e-11
2.26882e-11
2.43827e-11
2.15046e-11
2.23428e-11
2.01554e-11
2.03919e-11
1.87349e-11
1.84978e-11
1.72556e-11
1.66385e-11
1.57691e-11
1.48096e-11
1.42708e-11
1.29721e-11
1.27677e-11
1.11356e-11
1.12819e-11
1.05879e-11
)
;

boundaryField
{
    top
    {
        type            zeroGradient;
    }
    bottom
    {
        type            zeroGradient;
    }
    inlet
    {
        type            fixedValue;
        value           uniform 0;
    }
    outlet
    {
        type            fixedValue;
        value           uniform 0;
    }
    frontAndBack
    {
        type            empty;
    }
}


// ************************************************************************* //
