/*--------------------------------*- C++ -*----------------------------------*\
| =========                 |                                                 |
| \\      /  F ield         | OpenFOAM: The Open Source CFD Toolbox           |
|  \\    /   O peration     | Version:  4.1                                   |
|   \\  /    A nd           | Web:      www.OpenFOAM.org                      |
|    \\/     M anipulation  |                                                 |
\*---------------------------------------------------------------------------*/
FoamFile
{
    version     2.0;
    format      ascii;
    class       surfaceScalarField;
    location    "3.7";
    object      phi;
}
// * * * * * * * * * * * * * * * * * * * * * * * * * * * * * * * * * * * * * //

dimensions      [0 3 -1 0 0 0 0];

internalField   nonuniform List<scalar> 
760
(
1.25e-06
-3.72279e-17
1.25e-06
-2.55794e-17
1.25e-06
3.17765e-19
1.25e-06
-1.80947e-18
1.25e-06
1.20991e-18
1.25e-06
-1.02687e-18
1.25e-06
8.14282e-19
1.25e-06
-6.33642e-19
1.25e-06
4.70775e-19
1.25e-06
-3.3496e-19
1.25e-06
2.1268e-19
1.25e-06
-7.55488e-20
1.25e-06
-3.82847e-20
1.25e-06
1.38158e-19
1.25e-06
-2.68776e-19
1.25e-06
3.60462e-19
1.25e-06
-6.77469e-19
1.25e-06
9.55275e-19
1.25e-06
-1.53305e-17
-2.2586e-17
3.75e-06
-1.12526e-16
3.75e-06
-8.95034e-17
3.75e-06
-1.86342e-18
3.75e-06
-4.39782e-18
3.75e-06
2.53703e-18
3.75e-06
-2.23191e-18
3.75e-06
1.75502e-18
3.75e-06
-1.36123e-18
3.75e-06
1.00406e-18
3.75e-06
-7.20073e-19
3.75e-06
4.66802e-19
3.75e-06
-1.49421e-19
3.75e-06
-9.44925e-20
3.75e-06
2.91022e-19
3.75e-06
-5.98882e-19
3.75e-06
7.58803e-19
3.75e-06
-1.77839e-18
3.75e-06
2.51752e-18
3.75e-06
-5.64557e-17
-7.29311e-17
6.25e-06
-2.03582e-16
6.25e-06
-1.76468e-16
6.25e-06
-6.90915e-18
6.25e-06
-6.7374e-18
6.25e-06
3.26442e-18
6.25e-06
-3.01182e-18
6.25e-06
2.34131e-18
6.25e-06
-1.80867e-18
6.25e-06
1.3226e-18
6.25e-06
-9.57268e-19
6.25e-06
6.35743e-19
6.25e-06
-1.78181e-19
6.25e-06
-1.44027e-19
6.25e-06
3.76373e-19
6.25e-06
-8.34967e-19
6.25e-06
9.85827e-19
6.25e-06
-2.93347e-18
6.25e-06
4.21925e-18
6.25e-06
-1.15935e-16
-1.39443e-16
8.75e-06
-2.96657e-16
8.75e-06
-2.71467e-16
8.75e-06
-1.38647e-17
8.75e-06
-8.72986e-18
8.75e-06
3.46607e-18
8.75e-06
-3.40769e-18
8.75e-06
2.61268e-18
8.75e-06
-2.00585e-18
8.75e-06
1.44568e-18
8.75e-06
-1.06652e-18
8.75e-06
7.29922e-19
8.75e-06
-1.66672e-19
8.75e-06
-1.86842e-19
8.75e-06
4.02124e-19
8.75e-06
-9.7608e-19
8.75e-06
1.06495e-18
8.75e-06
-4.06938e-18
8.75e-06
5.94175e-18
8.75e-06
-1.84997e-16
-2.13371e-16
1.125e-05
-3.7991e-16
1.125e-05
-3.61282e-16
1.125e-05
-2.17208e-17
1.125e-05
-1.027e-17
1.125e-05
3.22817e-18
1.125e-05
-3.4614e-18
1.125e-05
2.61137e-18
1.125e-05
-1.98079e-18
1.125e-05
1.40045e-18
1.125e-05
-1.06343e-18
1.125e-05
7.5395e-19
1.125e-05
-1.27436e-19
1.125e-05
-2.13783e-19
1.125e-05
3.74338e-19
1.125e-05
-1.02827e-18
1.125e-05
1.01044e-18
1.125e-05
-5.09908e-18
1.125e-05
7.57685e-18
1.125e-05
-2.55208e-16
-2.86333e-16
1.375e-05
-4.44272e-16
1.375e-05
-4.35428e-16
1.375e-05
-2.94702e-17
1.375e-05
-1.12677e-17
1.375e-05
2.63591e-18
1.375e-05
-3.21301e-18
1.375e-05
2.37152e-18
1.375e-05
-1.77033e-18
1.375e-05
1.21707e-18
1.375e-05
-9.6952e-19
1.375e-05
7.21519e-19
1.375e-05
-6.67711e-20
1.375e-05
-2.27218e-19
1.375e-05
3.08589e-19
1.375e-05
-1.00683e-18
1.375e-05
8.53226e-19
1.375e-05
-5.94571e-18
1.375e-05
9.00463e-18
1.375e-05
-3.18965e-16
-3.50799e-16
1.625e-05
-4.83471e-16
1.625e-05
-4.86272e-16
1.625e-05
-3.62194e-17
1.625e-05
-1.16523e-17
1.625e-05
1.78554e-18
1.625e-05
-2.71534e-18
1.625e-05
1.94095e-18
1.625e-05
-1.41882e-18
1.625e-05
9.22361e-19
1.625e-05
-7.87848e-19
1.625e-05
6.33485e-19
1.625e-05
-1.31234e-21
1.625e-05
-2.1603e-19
1.625e-05
2.12923e-19
1.625e-05
-9.10907e-19
1.625e-05
6.04224e-19
1.625e-05
-6.53464e-18
1.625e-05
1.01075e-17
1.625e-05
-3.69996e-16
-4.00602e-16
1.875e-05
-4.94395e-16
1.875e-05
-5.09438e-16
1.875e-05
-4.12551e-17
1.875e-05
-1.13989e-17
1.875e-05
7.59127e-19
1.875e-05
-2.02056e-18
1.875e-05
1.36645e-18
1.875e-05
-9.5987e-19
1.875e-05
5.46869e-19
1.875e-05
-5.54522e-19
1.875e-05
5.12724e-19
1.875e-05
7.72608e-20
1.875e-05
-1.98005e-19
1.875e-05
9.62506e-20
1.875e-05
-7.61779e-19
1.875e-05
2.95212e-19
1.875e-05
-6.81682e-18
1.875e-05
1.07874e-17
1.875e-05
-4.03701e-16
-4.31312e-16
2.125e-05
-4.76903e-16
2.125e-05
-5.03733e-16
2.125e-05
-4.40868e-17
2.125e-05
-1.05197e-17
2.125e-05
-3.6269e-19
2.125e-05
-1.19195e-18
2.125e-05
6.9483e-19
2.125e-05
-4.27724e-19
2.125e-05
1.19764e-19
2.125e-05
-2.73466e-19
2.125e-05
3.62143e-19
2.125e-05
1.42669e-19
2.125e-05
-1.66783e-19
2.125e-05
-2.76939e-20
2.125e-05
-5.62376e-19
2.125e-05
-5.6259e-20
2.125e-05
-6.77075e-18
2.125e-05
1.095e-17
2.125e-05
-4.17395e-16
-4.40465e-16
2.375e-05
-4.33711e-16
2.375e-05
-4.71002e-16
2.375e-05
-4.45213e-17
2.375e-05
-9.06885e-18
2.375e-05
-1.48957e-18
2.375e-05
-2.82079e-19
2.375e-05
-3.25222e-20
2.375e-05
1.36531e-19
2.375e-05
-3.14586e-19
2.375e-05
1.53845e-20
2.375e-05
1.88992e-19
2.375e-05
2.0382e-19
2.375e-05
-1.29548e-19
2.375e-05
-1.58119e-19
2.375e-05
-3.38219e-19
2.375e-05
-4.05649e-19
2.375e-05
-6.4002e-18
2.375e-05
1.05521e-17
2.375e-05
-4.10407e-16
-4.27665e-16
2.625e-05
-3.69955e-16
2.625e-05
-4.15753e-16
2.625e-05
-4.26567e-17
2.625e-05
-7.17265e-18
2.625e-05
-2.551e-18
2.625e-05
6.51582e-19
2.625e-05
-7.47018e-19
2.625e-05
6.92381e-19
2.625e-05
-7.42138e-19
2.625e-05
3.08105e-19
2.625e-05
2.66392e-21
2.625e-05
2.52864e-19
2.625e-05
-8.39333e-20
2.625e-05
-2.9113e-19
2.625e-05
-9.34022e-20
2.625e-05
-7.40347e-19
2.625e-05
-5.7278e-18
2.625e-05
9.59073e-18
2.625e-05
-3.83996e-16
-3.94577e-16
2.875e-05
-2.92606e-16
2.875e-05
-3.44565e-16
2.875e-05
-3.88197e-17
2.875e-05
-4.987e-18
2.875e-05
-3.47117e-18
2.875e-05
1.5267e-18
2.875e-05
-1.40061e-18
2.875e-05
1.19495e-18
2.875e-05
-1.12844e-18
2.875e-05
5.78692e-19
2.875e-05
-1.72357e-19
2.875e-05
3.00139e-19
2.875e-05
-4.07221e-20
2.875e-05
-4.05628e-19
2.875e-05
1.52302e-19
2.875e-05
-1.04814e-18
2.875e-05
-4.80853e-18
2.875e-05
8.14303e-18
2.875e-05
-3.4119e-16
-3.44706e-16
3.125e-05
-2.09855e-16
3.125e-05
-2.65388e-16
3.125e-05
-3.35344e-17
3.125e-05
-2.72253e-18
3.125e-05
-4.19611e-18
3.125e-05
2.29213e-18
3.125e-05
-1.95892e-18
3.125e-05
1.62789e-18
3.125e-05
-1.44084e-18
3.125e-05
7.96194e-19
3.125e-05
-3.26669e-19
3.125e-05
3.30806e-19
3.125e-05
-5.01305e-21
3.125e-05
-5.00816e-19
3.125e-05
3.85335e-19
3.125e-05
-1.27515e-18
3.125e-05
-3.74911e-18
3.125e-05
6.35308e-18
3.125e-05
-2.86437e-16
-2.83071e-16
3.375e-05
-1.30177e-16
3.375e-05
-1.8658e-16
3.375e-05
-2.74669e-17
3.375e-05
-5.65755e-19
3.375e-05
-4.63988e-18
3.375e-05
2.87046e-18
3.375e-05
-2.36962e-18
3.375e-05
1.94143e-18
3.375e-05
-1.6445e-18
3.375e-05
9.45456e-19
3.375e-05
-4.50363e-19
3.375e-05
3.60107e-19
3.375e-05
2.70352e-20
3.375e-05
-5.6478e-19
3.375e-05
5.7283e-19
3.375e-05
-1.42938e-18
3.375e-05
-2.60372e-18
3.375e-05
4.40053e-18
3.375e-05
-2.25135e-16
-2.15709e-16
3.625e-05
-6.1616e-17
3.625e-05
-1.16069e-16
3.625e-05
-2.12307e-17
3.625e-05
1.25263e-18
3.625e-05
-4.7764e-18
3.625e-05
3.20902e-18
3.625e-05
-2.60413e-18
3.625e-05
2.10895e-18
3.625e-05
-1.73955e-18
3.625e-05
1.02619e-18
3.625e-05
-5.38789e-19
3.625e-05
3.61123e-19
3.625e-05
6.02705e-20
3.625e-05
-5.90275e-19
3.625e-05
7.08264e-19
3.625e-05
-1.48485e-18
3.625e-05
-1.50266e-18
3.625e-05
2.49384e-18
3.625e-05
-1.63182e-16
-1.4915e-16
3.875e-05
-1.04869e-17
3.875e-05
-6.00461e-17
3.875e-05
-1.53812e-17
3.875e-05
2.52248e-18
3.875e-05
-4.55503e-18
3.875e-05
3.25634e-18
3.875e-05
-2.61173e-18
3.875e-05
2.08634e-18
3.875e-05
-1.68226e-18
3.875e-05
1.0295e-18
3.875e-05
-5.72895e-19
3.875e-05
3.33642e-19
3.875e-05
7.53062e-20
3.875e-05
-5.69242e-19
3.875e-05
7.53066e-19
3.875e-05
-1.40092e-18
3.875e-05
-5.68026e-19
3.875e-05
9.0344e-19
3.875e-05
-1.06212e-16
-8.96634e-17
4.125e-05
1.89591e-17
4.125e-05
-2.2436e-17
4.125e-05
-1.02561e-17
4.125e-05
3.03644e-18
4.125e-05
-3.9178e-18
4.125e-05
2.94469e-18
4.125e-05
-2.35088e-18
4.125e-05
1.85017e-18
4.125e-05
-1.4744e-18
4.125e-05
9.41944e-19
4.125e-05
-5.42809e-19
4.125e-05
2.82586e-19
4.125e-05
6.84185e-20
4.125e-05
-4.81496e-19
4.125e-05
7.2069e-19
4.125e-05
-1.21428e-18
4.125e-05
1.02625e-19
4.125e-05
-1.96038e-19
4.125e-05
-5.91901e-17
-4.28013e-17
4.375e-05
2.63858e-17
4.375e-05
-3.13581e-18
4.375e-05
-5.95254e-18
4.375e-05
2.69004e-18
4.375e-05
-2.84458e-18
4.375e-05
2.21881e-18
4.375e-05
-1.75949e-18
4.375e-05
1.36981e-18
4.375e-05
-1.08851e-18
4.375e-05
7.18108e-19
4.375e-05
-4.16268e-19
4.375e-05
1.98369e-19
4.375e-05
5.7655e-20
4.375e-05
-3.3715e-19
4.375e-05
5.41634e-19
4.375e-05
-8.79942e-19
4.375e-05
4.24067e-19
4.375e-05
-6.54229e-19
4.375e-05
-2.52585e-17
-1.21809e-17
4.625e-05
1.48205e-17
4.625e-05
1.55528e-18
4.625e-05
-2.29425e-18
4.625e-05
1.38741e-18
4.625e-05
-1.29087e-18
4.625e-05
1.02779e-18
4.625e-05
-8.18591e-19
4.625e-05
6.33046e-19
4.625e-05
-4.9491e-19
4.625e-05
3.32918e-19
4.625e-05
-2.02448e-19
4.625e-05
9.35461e-20
4.625e-05
2.98671e-20
4.625e-05
-1.54911e-19
4.625e-05
2.55008e-19
4.625e-05
-3.92503e-19
4.625e-05
3.16329e-19
4.625e-05
-4.57228e-19
4.625e-05
-5.9075e-18
4.09536e-19
4.875e-05
4.875e-05
4.875e-05
4.875e-05
4.875e-05
4.875e-05
4.875e-05
4.875e-05
4.875e-05
4.875e-05
4.875e-05
4.875e-05
4.875e-05
4.875e-05
4.875e-05
4.875e-05
4.875e-05
4.875e-05
4.875e-05
)
;

boundaryField
{
    top
    {
        type            calculated;
        value           uniform 0;
    }
    bottom
    {
        type            calculated;
        value           uniform 0;
    }
    inlet
    {
        type            calculated;
        value           nonuniform List<scalar> 
20
(
-1.25e-06
-3.75e-06
-6.25e-06
-8.75e-06
-1.125e-05
-1.375e-05
-1.625e-05
-1.875e-05
-2.125e-05
-2.375e-05
-2.625e-05
-2.875e-05
-3.125e-05
-3.375e-05
-3.625e-05
-3.875e-05
-4.125e-05
-4.375e-05
-4.625e-05
-4.875e-05
)
;
    }
    outlet
    {
        type            calculated;
        value           nonuniform List<scalar> 
20
(
1.25e-06
3.75e-06
6.25e-06
8.75e-06
1.125e-05
1.375e-05
1.625e-05
1.875e-05
2.125e-05
2.375e-05
2.625e-05
2.875e-05
3.125e-05
3.375e-05
3.625e-05
3.875e-05
4.125e-05
4.375e-05
4.625e-05
4.875e-05
)
;
    }
    frontAndBack
    {
        type            empty;
        value           nonuniform 0();
    }
}


// ************************************************************************* //
