/*--------------------------------*- C++ -*----------------------------------*\
| =========                 |                                                 |
| \\      /  F ield         | OpenFOAM: The Open Source CFD Toolbox           |
|  \\    /   O peration     | Version:  4.1                                   |
|   \\  /    A nd           | Web:      www.OpenFOAM.org                      |
|    \\/     M anipulation  |                                                 |
\*---------------------------------------------------------------------------*/
FoamFile
{
    version     2.0;
    format      ascii;
    class       volVectorField;
    location    "3.7";
    object      U;
}
// * * * * * * * * * * * * * * * * * * * * * * * * * * * * * * * * * * * * * //

dimensions      [0 1 -1 0 0 0 0];

internalField   nonuniform List<vector> 
400
(
(0.025 -1.65881e-14 0)
(0.025 -1.03423e-14 0)
(0.025 3.80652e-16 0)
(0.025 -9.04328e-16 0)
(0.025 6.37138e-16 0)
(0.025 -5.3473e-16 0)
(0.025 4.25306e-16 0)
(0.025 -3.31319e-16 0)
(0.025 2.46735e-16 0)
(0.025 -1.75188e-16 0)
(0.025 1.10366e-16 0)
(0.025 -4.06652e-17 0)
(0.025 -1.8605e-17 0)
(0.025 7.29166e-17 0)
(0.025 -1.38643e-16 0)
(0.025 1.89084e-16 0)
(0.025 -3.2768e-16 0)
(0.025 4.23509e-16 0)
(0.025 -5.82822e-15 0)
(0.025 -9.49795e-15 0)
(0.075 -6.98044e-14 0)
(0.075 -5.15111e-14 0)
(0.075 -1.39502e-16 0)
(0.075 -3.05845e-15 0)
(0.075 1.93918e-15 0)
(0.075 -1.66606e-15 0)
(0.075 1.31723e-15 0)
(0.075 -1.02379e-15 0)
(0.075 7.58854e-16 0)
(0.075 -5.41158e-16 0)
(0.075 3.46585e-16 0)
(0.075 -1.1825e-16 0)
(0.075 -6.60515e-17 0)
(0.075 2.21577e-16 0)
(0.075 -4.40233e-16 0)
(0.075 5.77796e-16 0)
(0.075 -1.18055e-15 0)
(0.075 1.69971e-15 0)
(0.075 -3.14233e-14 0)
(0.075 -4.34001e-14 0)
(0.125 -1.54844e-13 0)
(0.125 -1.28552e-13 0)
(0.125 -3.82813e-15 0)
(0.125 -5.58678e-15 0)
(0.125 2.99771e-15 0)
(0.125 -2.68724e-15 0)
(0.125 2.10306e-15 0)
(0.125 -1.62923e-15 0)
(0.125 1.19783e-15 0)
(0.125 -8.6143e-16 0)
(0.125 5.64034e-16 0)
(0.125 -1.71759e-16 0)
(0.125 -1.19492e-16 0)
(0.125 3.44818e-16 0)
(0.125 -7.31425e-16 0)
(0.125 8.99541e-16 0)
(0.125 -2.33402e-15 0)
(0.125 3.29583e-15 0)
(0.125 -8.24458e-14 0)
(0.125 -1.02703e-13 0)
(0.175 -2.50635e-13 0)
(0.175 -2.23108e-13 0)
(0.175 -9.99532e-15 0)
(0.175 -7.82794e-15 0)
(0.175 3.48792e-15 0)
(0.175 -3.30144e-15 0)
(0.175 2.55163e-15 0)
(0.175 -1.96671e-15 0)
(0.175 1.42967e-15 0)
(0.175 -1.04232e-15 0)
(0.175 7.01009e-16 0)
(0.175 -1.81063e-16 0)
(0.175 -1.68294e-16 0)
(0.175 4.03242e-16 0)
(0.175 -9.27709e-16 0)
(0.175 1.06078e-15 0)
(0.175 -3.51457e-15 0)
(0.175 5.07635e-15 0)
(0.175 -1.48879e-13 0)
(0.175 -1.75341e-13 0)
(0.225 -3.41799e-13 0)
(0.225 -3.18842e-13 0)
(0.225 -1.76813e-14 0)
(0.225 -9.62913e-15 0)
(0.225 3.45181e-15 0)
(0.225 -3.51905e-15 0)
(0.225 2.67931e-15 0)
(0.225 -2.04628e-15 0)
(0.225 1.46329e-15 0)
(0.225 -1.09237e-15 0)
(0.225 7.58718e-16 0)
(0.225 -1.53612e-16 0)
(0.225 -2.04045e-16 0)
(0.225 4.00501e-16 0)
(0.225 -1.02415e-15 0)
(0.225 1.06902e-15 0)
(0.225 -4.62234e-15 0)
(0.225 6.78348e-15 0)
(0.225 -2.20716e-13 0)
(0.225 -2.51e-13 0)
(0.275 -4.17524e-13 0)
(0.275 -4.03135e-13 0)
(0.275 -2.57361e-14 0)
(0.275 -1.09135e-14 0)
(0.275 3.01004e-15 0)
(0.275 -3.40654e-15 0)
(0.275 2.54549e-15 0)
(0.275 -1.91754e-15 0)
(0.275 1.3403e-15 0)
(0.275 -1.03828e-15 0)
(0.275 7.51357e-16 0)
(0.275 -1.00998e-16 0)
(0.275 -2.24237e-16 0)
(0.275 3.50565e-16 0)
(0.275 -1.03632e-15 0)
(0.275 9.5649e-16 0)
(0.275 -5.5777e-15 0)
(0.275 8.34369e-15 0)
(0.275 -2.89446e-13 0)
(0.275 -3.21422e-13 0)
(0.325 -4.70451e-13 0)
(0.325 -4.67119e-13 0)
(0.325 -3.31956e-14 0)
(0.325 -1.1616e-14 0)
(0.325 2.26517e-15 0)
(0.325 -3.01969e-15 0)
(0.325 2.1983e-15 0)
(0.325 -1.62598e-15 0)
(0.325 1.09348e-15 0)
(0.325 -8.95867e-16 0)
(0.325 6.8812e-16 0)
(0.325 -3.56342e-17 0)
(0.325 -2.25408e-16 0)
(0.325 2.6688e-16 0)
(0.325 -9.74217e-16 0)
(0.325 7.47e-16 0)
(0.325 -6.30949e-15 0)
(0.325 9.63859e-15 0)
(0.325 -3.48175e-13 0)
(0.325 -3.79856e-13 0)
(0.375 -4.95922e-13 0)
(0.375 -5.04828e-13 0)
(0.375 -3.9244e-14 0)
(0.375 -1.16842e-14 0)
(0.375 1.30534e-15 0)
(0.375 -2.41002e-15 0)
(0.375 1.68401e-15 0)
(0.375 -1.21153e-15 0)
(0.375 7.5025e-16 0)
(0.375 -6.83294e-16 0)
(0.375 5.81517e-16 0)
(0.375 3.83853e-17 0)
(0.375 -2.10201e-16 0)
(0.375 1.58598e-16 0)
(0.375 -8.49306e-16 0)
(0.375 4.61653e-16 0)
(0.375 -6.75382e-15 0)
(0.375 1.05582e-14 0)
(0.375 -3.9144e-13 0)
(0.375 -4.20969e-13 0)
(0.425 -4.9233e-13 0)
(0.425 -5.13497e-13 0)
(0.425 -4.32672e-14 0)
(0.425 -1.11094e-14 0)
(0.425 2.09801e-16 0)
(0.425 -1.63305e-15 0)
(0.425 1.04822e-15 0)
(0.425 -7.06084e-16 0)
(0.425 3.41679e-16 0)
(0.425 -4.21404e-16 0)
(0.425 4.43284e-16 0)
(0.425 1.11276e-16 0)
(0.425 -1.8455e-16 0)
(0.425 3.65368e-17 0)
(0.425 -6.71457e-16 0)
(0.425 1.24659e-16 0)
(0.425 -6.87553e-15 0)
(0.425 1.1001e-14 0)
(0.425 -4.15558e-13 0)
(0.425 -4.4126e-13 0)
(0.475 -4.61025e-13 0)
(0.475 -4.93505e-13 0)
(0.475 -4.49175e-14 0)
(0.475 -9.92222e-15 0)
(0.475 -9.34009e-16 0)
(0.475 -7.48663e-16 0)
(0.475 3.35715e-16 0)
(0.475 -1.48793e-16 0)
(0.475 -9.6045e-17 0)
(0.475 -1.31426e-16 0)
(0.475 2.79354e-16 0)
(0.475 1.7481e-16 0)
(0.475 -1.49635e-16 0)
(0.475 -9.2977e-17 0)
(0.475 -4.56864e-16 0)
(0.475 -2.31745e-16 0)
(0.475 -6.66251e-15 0)
(0.475 1.08922e-14 0)
(0.475 -4.18838e-13 0)
(0.475 -4.39282e-13 0)
(0.525 -4.06056e-13 0)
(0.525 -4.48151e-13 0)
(0.525 -4.41507e-14 0)
(0.525 -8.2147e-15 0)
(0.525 -2.04683e-15 0)
(0.525 1.89319e-16 0)
(0.525 -3.97417e-16 0)
(0.525 4.21102e-16 0)
(0.525 -5.35601e-16 0)
(0.525 1.65869e-16 0)
(0.525 9.62354e-17 0)
(0.525 2.30294e-16 0)
(0.525 -1.0703e-16 0)
(0.525 -2.26591e-16 0)
(0.525 -2.17887e-16 0)
(0.525 -5.799e-16 0)
(0.525 -6.13102e-15 0)
(0.525 1.02066e-14 0)
(0.525 -4.01609e-13 0)
(0.525 -4.15701e-13 0)
(0.575 -3.33628e-13 0)
(0.575 -3.8314e-13 0)
(0.575 -4.11872e-14 0)
(0.575 -6.12987e-15 0)
(0.575 -3.05508e-15 0)
(0.575 1.11022e-15 0)
(0.575 -1.09331e-15 0)
(0.575 9.59332e-16 0)
(0.575 -9.49054e-16 0)
(0.575 4.5223e-16 0)
(0.575 -8.77323e-17 0)
(0.575 2.78769e-16 0)
(0.575 -6.22101e-17 0)
(0.575 -3.52485e-16 0)
(0.575 3.1498e-17 0)
(0.575 -9.06315e-16 0)
(0.575 -5.31894e-15 0)
(0.575 8.97868e-15 0)
(0.575 -3.66078e-13 0)
(0.575 -3.73169e-13 0)
(0.625 -2.51522e-13 0)
(0.625 -3.05945e-13 0)
(0.625 -3.64752e-14 0)
(0.625 -3.85338e-15 0)
(0.625 -3.89237e-15 0)
(0.625 1.94531e-15 0)
(0.625 -1.70958e-15 0)
(0.625 1.43501e-15 0)
(0.625 -1.30593e-15 0)
(0.625 7.01345e-16 0)
(0.625 -2.55061e-16 0)
(0.625 3.17867e-16 0)
(0.625 -2.18847e-17 0)
(0.625 -4.60475e-16 0)
(0.625 2.76003e-16 0)
(0.625 -1.17908e-15 0)
(0.625 -4.30743e-15 0)
(0.625 7.32e-15 0)
(0.625 -3.16082e-13 0)
(0.625 -3.1605e-13 0)
(0.675 -1.68273e-13 0)
(0.675 -2.2494e-13 0)
(0.675 -3.06314e-14 0)
(0.675 -1.58866e-15 0)
(0.675 -4.49067e-15 0)
(0.675 2.6337e-15 0)
(0.675 -2.20492e-15 0)
(0.675 1.81876e-15 0)
(0.675 -1.57169e-15 0)
(0.675 8.87716e-16 0)
(0.675 -3.97847e-16 0)
(0.675 3.50346e-16 0)
(0.675 1.22848e-17 0)
(0.675 -5.41611e-16 0)
(0.675 4.91285e-16 0)
(0.675 -1.37574e-15 0)
(0.675 -3.18006e-15 0)
(0.675 5.39743e-15 0)
(0.675 -2.56666e-13 0)
(0.675 -2.49999e-13 0)
(0.725 -9.23754e-14 0)
(0.725 -1.48546e-13 0)
(0.725 -2.43246e-14 0)
(0.725 4.54851e-16 0)
(0.725 -4.79338e-15 0)
(0.725 3.10721e-15 0)
(0.725 -2.53941e-15 0)
(0.725 2.06715e-15 0)
(0.725 -1.72496e-15 0)
(0.725 1.0052e-15 0)
(0.725 -5.06737e-16 0)
(0.725 3.66048e-16 0)
(0.725 4.61087e-17 0)
(0.725 -5.88522e-16 0)
(0.725 6.57205e-16 0)
(0.725 -1.48414e-15 0)
(0.725 -2.02931e-15 0)
(0.725 3.40741e-15 0)
(0.725 -1.93633e-13 0)
(0.725 -1.8146e-13 0)
(0.775 -3.12152e-14 0)
(0.775 -8.40562e-14 0)
(0.775 -1.81704e-14 0)
(0.775 2.05204e-15 0)
(0.775 -4.76639e-15 0)
(0.775 3.31882e-15 0)
(0.775 -2.67418e-15 0)
(0.775 2.15009e-15 0)
(0.775 -1.75052e-15 0)
(0.775 1.05244e-15 0)
(0.775 -5.71988e-16 0)
(0.775 3.54804e-16 0)
(0.775 7.03482e-17 0)
(0.775 -5.93907e-16 0)
(0.775 7.54702e-16 0)
(0.775 -1.47488e-15 0)
(0.775 -9.82137e-16 0)
(0.775 1.60079e-15 0)
(0.775 -1.32881e-13 0)
(0.775 -1.16964e-13 0)
(0.825 9.47982e-15 0)
(0.825 -3.68707e-14 0)
(0.825 -1.26097e-14 0)
(0.825 2.9821e-15 0)
(0.825 -4.34237e-15 0)
(0.825 3.19682e-15 0)
(0.825 -2.55461e-15 0)
(0.825 2.0254e-15 0)
(0.825 -1.62046e-15 0)
(0.825 1.01491e-15 0)
(0.825 -5.7756e-16 0)
(0.825 3.15346e-16 0)
(0.825 7.50586e-17 0)
(0.825 -5.3858e-16 0)
(0.825 7.63122e-16 0)
(0.825 -1.34177e-15 0)
(0.825 -1.52965e-16 0)
(0.825 2.14249e-16 0)
(0.825 -7.98596e-14 0)
(0.825 -6.26505e-14 0)
(0.875 2.7168e-14 0)
(0.875 -8.83352e-15 0)
(0.875 -7.84223e-15 0)
(0.875 3.03891e-15 0)
(0.875 -3.45227e-15 0)
(0.875 2.65283e-15 0)
(0.875 -2.1102e-15 0)
(0.875 1.65053e-15 0)
(0.875 -1.30996e-15 0)
(0.875 8.52534e-16 0)
(0.875 -4.95142e-16 0)
(0.875 2.45289e-16 0)
(0.875 6.61955e-17 0)
(0.875 -4.18217e-16 0)
(0.875 6.52936e-16 0)
(0.875 -1.06861e-15 0)
(0.875 3.47344e-16 0)
(0.875 -5.825e-16 0)
(0.875 -3.87529e-14 0)
(0.875 -2.33918e-14 0)
(0.925 2.35196e-14 0)
(0.925 1.89104e-15 0)
(0.925 -3.86384e-15 0)
(0.925 2.17693e-15 0)
(0.925 -2.1027e-15 0)
(0.925 1.66656e-15 0)
(0.925 -1.32117e-15 0)
(0.925 1.02464e-15 0)
(0.925 -8.08139e-16 0)
(0.925 5.40356e-16 0)
(0.925 -3.19417e-16 0)
(0.925 1.47598e-16 0)
(0.925 4.56607e-17 0)
(0.925 -2.49838e-16 0)
(0.925 4.10685e-16 0)
(0.925 -6.47178e-16 0)
(0.925 4.46908e-16 0)
(0.925 -6.60501e-16 0)
(0.925 -1.24857e-14 0)
(0.925 -2.38038e-15 0)
(0.975 8.78035e-15 0)
(0.975 1.96208e-15 0)
(0.975 -1.06874e-15 0)
(0.975 7.50356e-16 0)
(0.975 -6.68358e-16 0)
(0.975 5.36699e-16 0)
(0.975 -4.27005e-16 0)
(0.975 3.29934e-16 0)
(0.975 -2.56853e-16 0)
(0.975 1.75185e-16 0)
(0.975 -1.0698e-16 0)
(0.975 4.84188e-17 0)
(0.975 1.59408e-17 0)
(0.975 -7.91196e-17 0)
(0.975 1.34276e-16 0)
(0.975 -2.03508e-16 0)
(0.975 1.88726e-16 0)
(0.975 -3.00624e-16 0)
(0.975 -1.63163e-15 0)
(0.975 1.75564e-15 0)
)
;

boundaryField
{
    top
    {
        type            fixedValue;
        value           uniform (1 0 0);
    }
    bottom
    {
        type            fixedValue;
        value           uniform (0 0 0);
    }
    inlet
    {
        type            zeroGradient;
    }
    outlet
    {
        type            zeroGradient;
    }
    frontAndBack
    {
        type            empty;
    }
}


// ************************************************************************* //
