/*--------------------------------*- C++ -*----------------------------------*\
| =========                 |                                                 |
| \\      /  F ield         | OpenFOAM: The Open Source CFD Toolbox           |
|  \\    /   O peration     | Version:  4.1                                   |
|   \\  /    A nd           | Web:      www.OpenFOAM.org                      |
|    \\/     M anipulation  |                                                 |
\*---------------------------------------------------------------------------*/
FoamFile
{
    version     2.0;
    format      ascii;
    class       surfaceScalarField;
    location    "3.8";
    object      phi;
}
// * * * * * * * * * * * * * * * * * * * * * * * * * * * * * * * * * * * * * //

dimensions      [0 3 -1 0 0 0 0];

internalField   nonuniform List<scalar> 
760
(
-1.91641e-05
1.83626e-12
-1.91641e-05
1.81889e-12
-1.91641e-05
6.96304e-12
-1.91641e-05
3.75352e-12
-1.91641e-05
1.11841e-11
-1.91641e-05
5.13801e-12
-1.91641e-05
1.42678e-11
-1.91641e-05
5.79625e-12
-1.91641e-05
1.58368e-11
-1.91641e-05
5.94347e-12
-1.91641e-05
1.57539e-11
-1.91641e-05
5.64595e-12
-1.91641e-05
1.41085e-11
-1.91641e-05
5.16243e-12
-1.91641e-05
1.11192e-11
-1.91641e-05
4.31191e-12
-1.91641e-05
7.41993e-12
-1.91641e-05
3.43686e-12
-1.91641e-05
3.04925e-12
1.51272e-12
-5.11594e-05
3.54564e-12
-5.11594e-05
4.25423e-12
-5.11594e-05
1.3033e-11
-5.11594e-05
8.18467e-12
-5.11594e-05
2.07009e-11
-5.11594e-05
1.11615e-11
-5.11594e-05
2.62693e-11
-5.11594e-05
1.26459e-11
-5.11594e-05
2.90549e-11
-5.11594e-05
1.29856e-11
-5.11594e-05
2.88303e-11
-5.11594e-05
1.23012e-11
-5.11594e-05
2.57756e-11
-5.11594e-05
1.10721e-11
-5.11594e-05
2.03251e-11
-5.11594e-05
9.01571e-12
-5.11594e-05
1.35871e-11
-5.11594e-05
6.85292e-12
-5.11594e-05
5.6858e-12
2.91185e-12
-7.68219e-05
5.64721e-12
-7.68219e-05
7.84212e-12
-7.68219e-05
1.9393e-11
-7.68219e-05
1.44117e-11
-7.68219e-05
3.03834e-11
-7.68219e-05
1.95506e-11
-7.68219e-05
3.8277e-11
-7.68219e-05
2.22135e-11
-7.68219e-05
4.21244e-11
-7.68219e-05
2.28102e-11
-7.68219e-05
4.16578e-11
-7.68219e-05
2.15223e-11
-7.68219e-05
3.7165e-11
-7.68219e-05
1.90526e-11
-7.68219e-05
2.93316e-11
-7.68219e-05
1.51133e-11
-7.68219e-05
1.96527e-11
-7.68219e-05
1.0878e-11
-7.68219e-05
8.44123e-12
4.43653e-12
-9.61516e-05
8.09275e-12
-9.61516e-05
1.23719e-11
-9.61516e-05
2.57031e-11
-9.61516e-05
2.19964e-11
-9.61516e-05
3.96536e-11
-9.61516e-05
2.96426e-11
-9.61516e-05
4.95334e-11
-9.61516e-05
3.36955e-11
-9.61516e-05
5.41869e-11
-9.61516e-05
3.45554e-11
-9.61516e-05
5.3366e-11
-9.61516e-05
3.24705e-11
-9.61516e-05
4.74757e-11
-9.61516e-05
2.83554e-11
-9.61516e-05
3.74696e-11
-9.61516e-05
2.20174e-11
-9.61516e-05
2.5124e-11
-9.61516e-05
1.5102e-11
-9.61516e-05
1.10211e-11
5.90517e-12
-0.000109148
1.06764e-11
-0.000109148
1.72251e-11
-0.000109148
3.18034e-11
-0.000109148
3.00641e-11
-0.000109148
4.84575e-11
-0.000109148
4.0354e-11
-0.000109148
6.01032e-11
-0.000109148
4.58958e-11
-0.000109148
6.54098e-11
-0.000109148
4.70377e-11
-0.000109148
6.41872e-11
-0.000109148
4.40925e-11
-0.000109148
5.69585e-11
-0.000109148
3.81731e-11
-0.000109148
4.49497e-11
-0.000109148
2.92366e-11
-0.000109148
3.01486e-11
-0.000109148
1.93717e-11
-0.000109148
1.34621e-11
7.39523e-12
-0.000115812
1.30794e-11
-0.000115812
2.17885e-11
-0.000115813
3.70461e-11
-0.000115812
3.76133e-11
-0.000115813
5.58924e-11
-0.000115812
5.03866e-11
-0.000115813
6.89309e-11
-0.000115812
5.73579e-11
-0.000115813
7.46948e-11
-0.000115812
5.8787e-11
-0.000115813
7.30779e-11
-0.000115813
5.50419e-11
-0.000115813
6.47067e-11
-0.000115813
4.73947e-11
-0.000115813
5.10599e-11
-0.000115813
3.59876e-11
-0.000115813
3.42473e-11
-0.000115813
2.32628e-11
-0.000115813
1.55318e-11
8.79151e-12
-0.000116144
1.5101e-11
-0.000116144
2.56642e-11
-0.000116144
4.11224e-11
-0.000116144
4.40251e-11
-0.000116144
6.15557e-11
-0.000116144
5.89475e-11
-0.000116144
7.55651e-11
-0.000116144
6.71922e-11
-0.000116144
8.15889e-11
-0.000116144
6.89075e-11
-0.000116144
7.96183e-11
-0.000116144
6.45026e-11
-0.000116144
7.03623e-11
-0.000116144
5.53559e-11
-0.000116144
5.55191e-11
-0.000116144
4.18149e-11
-0.000116144
3.72272e-11
-0.000116144
2.65494e-11
-0.000116144
1.71241e-11
1.00207e-11
-0.000110142
1.66347e-11
-0.000110142
2.86488e-11
-0.000110142
4.39286e-11
-0.000110142
4.90174e-11
-0.000110142
6.53349e-11
-0.000110142
6.56776e-11
-0.000110142
7.9896e-11
-0.000110142
7.49953e-11
-0.000110142
8.59958e-11
-0.000110142
7.6992e-11
-0.000110142
8.37296e-11
-0.000110142
7.21043e-11
-0.000110142
7.38654e-11
-0.000110142
6.17586e-11
-0.000110142
5.82821e-11
-0.000110142
4.65182e-11
-0.000110142
3.90592e-11
-0.000110142
2.91434e-11
-0.000110142
1.82069e-11
1.10369e-11
-9.78078e-05
1.76159e-11
-9.78078e-05
3.06189e-11
-9.78078e-05
4.5423e-11
-9.78078e-05
5.24171e-11
-9.78078e-05
6.71947e-11
-9.78078e-05
7.03469e-11
-9.78078e-05
8.18969e-11
-9.78078e-05
8.04994e-11
-9.78078e-05
8.79018e-11
-9.78078e-05
8.27631e-11
-9.78078e-05
8.54079e-11
-9.78078e-05
7.75885e-11
-9.78078e-05
7.52187e-11
-9.78078e-05
6.639e-11
-9.78078e-05
5.93493e-11
-9.78078e-05
4.99465e-11
-9.78078e-05
3.97451e-11
-9.78078e-05
3.09774e-11
-9.78078e-05
1.8754e-11
1.17853e-11
-7.91406e-05
1.80107e-11
-7.91406e-05
3.15105e-11
-7.91406e-05
4.56061e-11
-7.91406e-05
5.4138e-11
-7.91406e-05
6.71578e-11
-7.91406e-05
7.28317e-11
-7.91406e-05
8.16075e-11
-7.91406e-05
8.35527e-11
-7.91406e-05
8.73606e-11
-7.91406e-05
8.60573e-11
-7.91406e-05
8.47133e-11
-7.91406e-05
8.07964e-11
-7.91406e-05
7.44808e-11
-7.91406e-05
6.91173e-11
-7.91406e-05
5.87654e-11
-7.91406e-05
5.19988e-11
-7.91406e-05
3.93176e-11
-7.91406e-05
3.201e-11
-7.91406e-05
1.87544e-11
1.22165e-11
-5.41406e-05
1.78113e-11
-5.41406e-05
3.13039e-11
-5.41406e-05
4.45044e-11
-5.41406e-05
5.41488e-11
-5.41406e-05
6.528e-11
-5.41406e-05
7.30737e-11
-5.41406e-05
7.91041e-11
-5.41406e-05
8.40729e-11
-5.41406e-05
8.44626e-11
-5.41406e-05
8.67782e-11
-5.41406e-05
8.174e-11
-5.41406e-05
8.16278e-11
-5.41406e-05
7.17388e-11
-5.41406e-05
6.98522e-11
-5.41406e-05
5.65976e-11
-5.41406e-05
5.26012e-11
-5.41406e-05
3.78223e-11
-5.41406e-05
3.22122e-11
-5.41406e-05
1.82088e-11
1.22872e-11
-2.28078e-05
1.70386e-11
-2.28078e-05
3.00226e-11
-2.28078e-05
4.21704e-11
-2.28078e-05
5.24648e-11
-2.28078e-05
6.16477e-11
-2.28078e-05
7.10699e-11
-2.28078e-05
7.44949e-11
-2.28078e-05
8.20364e-11
-2.28078e-05
7.93293e-11
-2.28078e-05
8.48851e-11
-2.28078e-05
7.66099e-11
-2.28078e-05
8.00302e-11
-2.28078e-05
6.71022e-11
-2.28078e-05
6.85429e-11
-2.28078e-05
5.293e-11
-2.28078e-05
5.17028e-11
-2.28078e-05
3.53118e-11
-2.28078e-05
3.15626e-11
-2.28078e-05
1.71306e-11
1.19639e-11
1.48578e-05
1.57453e-11
1.48578e-05
2.77398e-11
1.48578e-05
3.86894e-11
1.48578e-05
4.91503e-11
1.48578e-05
5.63833e-11
1.48578e-05
6.68754e-11
1.48578e-05
6.79262e-11
1.48578e-05
7.748e-11
1.48578e-05
7.21189e-11
1.48578e-05
8.03948e-11
1.48578e-05
6.94773e-11
1.48578e-05
7.60003e-11
1.48578e-05
6.07075e-11
1.48578e-05
6.51733e-11
1.48578e-05
4.78658e-11
1.48578e-05
4.9276e-11
1.48578e-05
3.1848e-11
1.48578e-05
3.00423e-11
1.48578e-05
1.55467e-11
1.12285e-11
5.88562e-05
1.40196e-11
5.88562e-05
2.45895e-11
5.88562e-05
3.41965e-11
5.88562e-05
4.43362e-11
5.88562e-05
4.96675e-11
5.88562e-05
6.06254e-11
5.88562e-05
5.96109e-11
5.88563e-05
7.05245e-11
5.88562e-05
6.30585e-11
5.88563e-05
7.34045e-11
5.88562e-05
6.05614e-11
5.88563e-05
6.96037e-11
5.88562e-05
5.27473e-11
5.88563e-05
5.97807e-11
5.88562e-05
4.15501e-11
5.88563e-05
4.53281e-11
5.88562e-05
2.75218e-11
5.88562e-05
2.7638e-11
5.88562e-05
1.35024e-11
1.00848e-11
0.000109187
1.19606e-11
0.000109187
2.07451e-11
0.000109187
2.8852e-11
0.000109187
3.81939e-11
0.000109187
4.17078e-11
0.000109187
5.25045e-11
0.000109187
4.9795e-11
0.000109187
6.1345e-11
0.000109187
5.2411e-11
0.000109188
6.40651e-11
0.000109187
5.01166e-11
0.000109188
6.09525e-11
0.000109187
4.34475e-11
0.000109188
5.24396e-11
0.000109187
3.41533e-11
0.000109188
3.98893e-11
0.000109187
2.24507e-11
0.000109187
2.43382e-11
0.000109187
1.10539e-11
8.56502e-12
0.000165852
9.70865e-12
0.000165852
1.64905e-11
0.000165852
2.29708e-11
0.000165852
3.10946e-11
0.000165852
3.29608e-11
0.000165852
4.29698e-11
0.000165852
3.90473e-11
0.000165852
5.04295e-11
0.000165852
4.08016e-11
0.000165852
5.28491e-11
0.000165852
3.87643e-11
0.000165852
5.04577e-11
0.000165852
3.33723e-11
0.000165852
4.34811e-11
0.000165852
2.61246e-11
0.000165852
3.31799e-11
0.000165852
1.69624e-11
0.000165852
2.02453e-11
0.000165852
8.35813e-12
6.76911e-12
0.000228848
7.46412e-12
0.000228848
1.22376e-11
0.000228848
1.70755e-11
0.000228848
2.37106e-11
0.000228848
2.42177e-11
0.000228848
3.29196e-11
0.000228848
2.83571e-11
0.000228848
3.88038e-11
0.000228848
2.93132e-11
0.000228848
4.08083e-11
0.000228848
2.75768e-11
0.000228848
3.90968e-11
0.000228848
2.34882e-11
0.000228848
3.37423e-11
0.000228848
1.82431e-11
0.000228848
2.58133e-11
0.000228848
1.16177e-11
0.000228848
1.57242e-11
0.000228848
5.68071e-12
4.90833e-12
0.000298178
4.97865e-12
0.000298178
7.92033e-12
0.000298178
1.10831e-11
0.000298178
1.58683e-11
0.000298178
1.55406e-11
0.000298178
2.21475e-11
0.000298178
1.79676e-11
0.000298178
2.62285e-11
0.000298178
1.83508e-11
0.000298178
2.76859e-11
0.000298178
1.70709e-11
0.000298178
2.66156e-11
0.000298178
1.43649e-11
0.000298178
2.30115e-11
0.000298178
1.10534e-11
0.000298178
1.76407e-11
0.000298178
6.8991e-12
0.000298178
1.07286e-11
0.000298178
3.33944e-12
3.12024e-12
0.000373841
2.61433e-12
0.000373841
4.08764e-12
0.000373841
5.75785e-12
0.000373841
8.5477e-12
0.000373841
8.00306e-12
0.000373841
1.20048e-11
0.000373841
9.14223e-12
0.000373841
1.42912e-11
0.000373841
9.2241e-12
0.000373841
1.51497e-11
0.000373841
8.48032e-12
0.000373841
1.46147e-11
0.000373841
7.04752e-12
0.000373841
1.26722e-11
0.000373841
5.36445e-12
0.000373841
9.73042e-12
0.000373841
3.29626e-12
0.000373841
5.93194e-12
0.000373841
1.55056e-12
1.67515e-12
0.000455836
0.000455836
0.000455836
0.000455836
0.000455836
0.000455836
0.000455836
0.000455836
0.000455836
0.000455836
0.000455836
0.000455836
0.000455836
0.000455836
0.000455836
0.000455836
0.000455836
0.000455836
0.000455836
)
;

boundaryField
{
    top
    {
        type            calculated;
        value           uniform 0;
    }
    bottom
    {
        type            calculated;
        value           uniform 0;
    }
    inlet
    {
        type            calculated;
        value           nonuniform List<scalar> 
20
(
1.91641e-05
5.11594e-05
7.68219e-05
9.61516e-05
0.000109148
0.000115812
0.000116144
0.000110142
9.78078e-05
7.91406e-05
5.41406e-05
2.28078e-05
-1.48578e-05
-5.88562e-05
-0.000109187
-0.000165852
-0.000228848
-0.000298178
-0.000373841
-0.000455836
)
;
    }
    outlet
    {
        type            calculated;
        value           nonuniform List<scalar> 
20
(
-1.91641e-05
-5.11594e-05
-7.68219e-05
-9.61516e-05
-0.000109148
-0.000115813
-0.000116144
-0.000110142
-9.78078e-05
-7.91406e-05
-5.41406e-05
-2.28078e-05
1.48578e-05
5.88562e-05
0.000109187
0.000165852
0.000228848
0.000298178
0.000373841
0.000455836
)
;
    }
    frontAndBack
    {
        type            empty;
        value           nonuniform 0();
    }
}


// ************************************************************************* //
