/*--------------------------------*- C++ -*----------------------------------*\
| =========                 |                                                 |
| \\      /  F ield         | OpenFOAM: The Open Source CFD Toolbox           |
|  \\    /   O peration     | Version:  4.1                                   |
|   \\  /    A nd           | Web:      www.OpenFOAM.org                      |
|    \\/     M anipulation  |                                                 |
\*---------------------------------------------------------------------------*/
FoamFile
{
    version     2.0;
    format      ascii;
    class       volVectorField;
    location    "3.8";
    object      U;
}
// * * * * * * * * * * * * * * * * * * * * * * * * * * * * * * * * * * * * * //

dimensions      [0 1 -1 0 0 0 0];

internalField   nonuniform List<vector> 
400
(
(-0.383281 8.21227e-10 0)
(-0.383281 7.65183e-10 0)
(-0.383281 3.1523e-09 0)
(-0.383281 1.59488e-09 0)
(-0.383281 5.05189e-09 0)
(-0.383281 2.17273e-09 0)
(-0.383281 6.44107e-09 0)
(-0.383281 2.43553e-09 0)
(-0.383281 7.13958e-09 0)
(-0.383281 2.48819e-09 0)
(-0.383281 7.09226e-09 0)
(-0.383281 2.3609e-09 0)
(-0.383281 6.34302e-09 0)
(-0.383281 2.17253e-09 0)
(-0.383281 4.98805e-09 0)
(-0.383281 1.83108e-09 0)
(-0.383281 3.31493e-09 0)
(-0.383281 1.48326e-09 0)
(-0.383281 1.33635e-09 0)
(-0.383281 6.4039e-10 0)
(-1.02319 2.82256e-09 0)
(-1.02319 3.24027e-09 0)
(-1.02319 1.04936e-08 0)
(-1.02319 6.43366e-09 0)
(-1.02319 1.67269e-08 0)
(-1.02319 8.77235e-09 0)
(-1.02319 2.12485e-08 0)
(-1.02319 9.92582e-09 0)
(-1.02319 2.35078e-08 0)
(-1.02319 1.01827e-08 0)
(-1.02319 2.33321e-08 0)
(-1.02319 9.6432e-09 0)
(-1.02319 2.08662e-08 0)
(-1.02319 8.69846e-09 0)
(-1.02319 1.6456e-08 0)
(-1.02319 7.10771e-09 0)
(-1.02319 1.0996e-08 0)
(-1.02319 5.44654e-09 0)
(-1.02319 4.57884e-09 0)
(-1.02319 2.2946e-09 0)
(-1.53644 4.63759e-09 0)
(-1.53644 6.06558e-09 0)
(-1.53644 1.64416e-08 0)
(-1.53644 1.13776e-08 0)
(-1.53644 2.59167e-08 0)
(-1.53644 1.54579e-08 0)
(-1.53644 3.27528e-08 0)
(-1.53644 1.75371e-08 0)
(-1.53644 3.61217e-08 0)
(-1.53644 1.80033e-08 0)
(-1.53644 3.57729e-08 0)
(-1.53644 1.70099e-08 0)
(-1.53644 3.1942e-08 0)
(-1.53644 1.51575e-08 0)
(-1.53644 2.51977e-08 0)
(-1.53644 1.21499e-08 0)
(-1.53644 1.68583e-08 0)
(-1.53644 8.95436e-09 0)
(-1.53644 7.14805e-09 0)
(-1.53644 3.70035e-09 0)
(-1.92303 6.83943e-09 0)
(-1.92303 1.01003e-08 0)
(-1.92303 2.24912e-08 0)
(-1.92303 1.81735e-08 0)
(-1.92303 3.49234e-08 0)
(-1.92303 2.45453e-08 0)
(-1.92303 4.37794e-08 0)
(-1.92303 2.78903e-08 0)
(-1.92303 4.80133e-08 0)
(-1.92303 2.86119e-08 0)
(-1.92303 4.73683e-08 0)
(-1.92303 2.69252e-08 0)
(-1.92303 4.21878e-08 0)
(-1.92303 2.36369e-08 0)
(-1.92303 3.32942e-08 0)
(-1.92303 1.8505e-08 0)
(-1.92303 2.23091e-08 0)
(-1.92303 1.29525e-08 0)
(-1.92303 9.68545e-09 0)
(-1.92303 5.14209e-09 0)
(-2.18297 9.36185e-09 0)
(-2.18297 1.47799e-08 0)
(-2.18297 2.87225e-08 0)
(-2.18297 2.5985e-08 0)
(-2.18297 4.40052e-08 0)
(-2.18297 3.49349e-08 0)
(-2.18297 5.47542e-08 0)
(-2.18297 3.97209e-08 0)
(-2.18297 5.97274e-08 0)
(-2.18297 4.07185e-08 0)
(-2.18297 5.87055e-08 0)
(-2.18297 3.8208e-08 0)
(-2.18297 5.21506e-08 0)
(-2.18297 3.32019e-08 0)
(-2.18297 4.11564e-08 0)
(-2.18297 2.55778e-08 0)
(-2.18297 2.75936e-08 0)
(-2.18297 1.72139e-08 0)
(-2.18297 1.22155e-08 0)
(-2.18297 6.6367e-09 0)
(-2.31625 1.18641e-08 0)
(-2.31625 1.94948e-08 0)
(-2.31625 3.43898e-08 0)
(-2.31625 3.37888e-08 0)
(-2.31625 5.21146e-08 0)
(-2.31625 4.53e-08 0)
(-2.31625 6.44402e-08 0)
(-2.31625 5.15442e-08 0)
(-2.31625 6.99675e-08 0)
(-2.31625 5.28263e-08 0)
(-2.31625 6.85477e-08 0)
(-2.31625 4.94864e-08 0)
(-2.31625 6.07541e-08 0)
(-2.31625 4.27148e-08 0)
(-2.31625 4.79416e-08 0)
(-2.31625 3.25588e-08 0)
(-2.31625 3.21496e-08 0)
(-2.31625 2.12873e-08 0)
(-2.31625 1.44719e-08 0)
(-2.31625 8.08514e-09 0)
(-2.32287 1.4084e-08 0)
(-2.32287 2.37194e-08 0)
(-2.32287 3.90454e-08 0)
(-2.32288 4.0761e-08 0)
(-2.32287 5.86541e-08 0)
(-2.32288 5.45841e-08 0)
(-2.32288 7.21585e-08 0)
(-2.32288 6.21772e-08 0)
(-2.32288 7.80432e-08 0)
(-2.32288 6.37451e-08 0)
(-2.32288 7.62492e-08 0)
(-2.32288 5.9676e-08 0)
(-2.32288 6.74438e-08 0)
(-2.32288 5.1292e-08 0)
(-2.32288 5.32153e-08 0)
(-2.32288 3.88387e-08 0)
(-2.32288 3.56821e-08 0)
(-2.32288 2.48646e-08 0)
(-2.32288 1.63025e-08 0)
(-2.32288 9.40117e-09 0)
(-2.20284 1.58696e-08 0)
(-2.20284 2.71587e-08 0)
(-2.20284 4.24896e-08 0)
(-2.20284 4.64698e-08 0)
(-2.20284 6.33784e-08 0)
(-2.20284 6.22379e-08 0)
(-2.20284 7.76451e-08 0)
(-2.20284 7.10055e-08 0)
(-2.20284 8.36986e-08 0)
(-2.20284 7.28573e-08 0)
(-2.20284 8.158e-08 0)
(-2.20284 6.82162e-08 0)
(-2.20284 7.20287e-08 0)
(-2.20284 5.84807e-08 0)
(-2.20284 5.68304e-08 0)
(-2.20284 4.41104e-08 0)
(-2.20284 3.80931e-08 0)
(-2.20284 2.78028e-08 0)
(-2.20284 1.76454e-08 0)
(-2.20284 1.05303e-08 0)
(-1.95616 1.71315e-08 0)
(-1.95616 2.96397e-08 0)
(-1.95616 4.46383e-08 0)
(-1.95616 5.06659e-08 0)
(-1.95616 6.6195e-08 0)
(-1.95616 6.79374e-08 0)
(-1.95616 8.0808e-08 0)
(-1.95616 7.76589e-08 0)
(-1.95616 8.68526e-08 0)
(-1.95616 7.97848e-08 0)
(-1.95616 8.4473e-08 0)
(-1.95616 7.47587e-08 0)
(-1.95616 7.44568e-08 0)
(-1.95616 6.39967e-08 0)
(-1.95616 5.87449e-08 0)
(-1.95616 4.81766e-08 0)
(-1.95616 3.9355e-08 0)
(-1.95616 3.0012e-08 0)
(-1.95616 1.84629e-08 0)
(-1.95616 1.14165e-08 0)
(-1.58281 1.78213e-08 0)
(-1.58281 3.10715e-08 0)
(-1.58281 4.54747e-08 0)
(-1.58281 5.32256e-08 0)
(-1.58281 6.71037e-08 0)
(-1.58281 7.15136e-08 0)
(-1.58281 8.16615e-08 0)
(-1.58281 8.1937e-08 0)
(-1.58281 8.75335e-08 0)
(-1.58281 8.43172e-08 0)
(-1.58281 8.49642e-08 0)
(-1.58281 7.91042e-08 0)
(-1.58281 7.47655e-08 0)
(-1.58281 6.76758e-08 0)
(-1.58281 5.89868e-08 0)
(-1.58281 5.09171e-08 0)
(-1.58281 3.94887e-08 0)
(-1.58281 3.14423e-08 0)
(-1.58281 1.8738e-08 0)
(-1.58281 1.20093e-08 0)
(-1.08281 1.79181e-08 0)
(-1.08281 3.14123e-08 0)
(-1.08281 4.50133e-08 0)
(-1.08281 5.40901e-08 0)
(-1.08281 6.61446e-08 0)
(-1.08281 7.28761e-08 0)
(-1.08281 8.02643e-08 0)
(-1.08281 8.37236e-08 0)
(-1.08281 8.58141e-08 0)
(-1.08281 8.63253e-08 0)
(-1.08281 8.31314e-08 0)
(-1.08281 8.11243e-08 0)
(-1.08281 7.30279e-08 0)
(-1.08281 6.94085e-08 0)
(-1.08281 5.76125e-08 0)
(-1.08281 5.22452e-08 0)
(-1.08281 3.85326e-08 0)
(-1.08281 3.20603e-08 0)
(-1.08281 1.84652e-08 0)
(-1.08281 1.2262e-08 0)
(-0.456156 1.74286e-08 0)
(-0.456156 3.06635e-08 0)
(-0.456156 4.32938e-08 0)
(-0.456156 5.32514e-08 0)
(-0.456156 6.33898e-08 0)
(-0.456156 7.19942e-08 0)
(-0.456156 7.67094e-08 0)
(-0.456156 8.29659e-08 0)
(-0.456156 8.18008e-08 0)
(-0.456156 8.57407e-08 0)
(-0.456156 7.90829e-08 0)
(-0.456156 8.07433e-08 0)
(-0.456156 6.9342e-08 0)
(-0.456156 6.91251e-08 0)
(-0.456156 5.46977e-08 0)
(-0.456156 5.20992e-08 0)
(-0.456156 3.65345e-08 0)
(-0.456156 3.18418e-08 0)
(-0.456156 1.76519e-08 0)
(-0.456156 1.21361e-08 0)
(0.297156 1.63899e-08 0)
(0.297156 2.8873e-08 0)
(0.297156 4.03854e-08 0)
(0.297156 5.07486e-08 0)
(0.297156 5.89433e-08 0)
(0.297156 6.88938e-08 0)
(0.297156 7.11237e-08 0)
(0.297156 7.96699e-08 0)
(0.297156 7.5633e-08 0)
(0.297156 8.25513e-08 0)
(0.297156 7.29562e-08 0)
(0.297156 7.79331e-08 0)
(0.297156 6.38301e-08 0)
(0.297156 6.67915e-08 0)
(0.297156 5.03357e-08 0)
(0.297156 5.04403e-08 0)
(0.297156 3.35502e-08 0)
(0.297156 3.07666e-08 0)
(0.297156 1.63192e-08 0)
(0.297156 1.16055e-08 0)
(1.17712 1.4871e-08 0)
(1.17712 2.61412e-08 0)
(1.17712 3.63935e-08 0)
(1.17712 4.66737e-08 0)
(1.17712 5.29488e-08 0)
(1.17712 6.36618e-08 0)
(1.17712 6.36767e-08 0)
(1.17712 7.39057e-08 0)
(1.17712 6.7492e-08 0)
(1.17712 7.6805e-08 0)
(1.17712 6.49265e-08 0)
(1.17712 7.27168e-08 0)
(1.17712 5.66463e-08 0)
(1.17712 6.24106e-08 0)
(1.17712 4.46421e-08 0)
(1.17712 4.72537e-08 0)
(1.17712 2.96488e-08 0)
(1.17712 2.88145e-08 0)
(1.17712 1.45013e-08 0)
(1.17712 1.06617e-08 0)
(2.18375 1.29752e-08 0)
(2.18375 2.26353e-08 0)
(2.18375 3.14843e-08 0)
(2.18375 4.12002e-08 0)
(2.18375 4.56281e-08 0)
(2.18375 5.64873e-08 0)
(2.18375 5.46318e-08 0)
(2.18375 6.5853e-08 0)
(2.18375 5.76596e-08 0)
(2.18375 6.86573e-08 0)
(2.18375 5.52666e-08 0)
(2.18375 6.52116e-08 0)
(2.18375 4.80325e-08 0)
(2.18375 5.60612e-08 0)
(2.18375 3.78004e-08 0)
(2.18375 4.25758e-08 0)
(2.18375 2.49526e-08 0)
(2.18375 2.59797e-08 0)
(2.18375 1.22596e-08 0)
(2.18375 9.32487e-09 0)
(3.31703 1.08145e-08 0)
(3.31703 1.85722e-08 0)
(3.31703 2.58744e-08 0)
(3.31703 3.45783e-08 0)
(3.31703 3.72794e-08 0)
(3.31703 4.76619e-08 0)
(3.31703 4.43537e-08 0)
(3.31703 5.58106e-08 0)
(3.31703 4.65328e-08 0)
(3.31703 5.83867e-08 0)
(3.31703 4.43676e-08 0)
(3.31703 5.56482e-08 0)
(3.31703 3.83417e-08 0)
(3.31703 4.79204e-08 0)
(3.31703 3.00857e-08 0)
(3.31703 3.65122e-08 0)
(3.31703 1.96624e-08 0)
(3.31703 2.22939e-08 0)
(3.31703 9.6883e-09 0)
(3.31703 7.65878e-09 0)
(4.57697 8.52845e-09 0)
(4.57697 1.42747e-08 0)
(4.57697 1.99447e-08 0)
(4.57697 2.72773e-08 0)
(4.57697 2.84874e-08 0)
(4.57697 3.77887e-08 0)
(4.57697 3.35891e-08 0)
(4.57697 4.44431e-08 0)
(4.57697 3.49451e-08 0)
(4.57697 4.6654e-08 0)
(4.57697 3.30685e-08 0)
(4.57697 4.46187e-08 0)
(4.57697 2.83449e-08 0)
(4.57697 3.84803e-08 0)
(4.57697 2.21244e-08 0)
(4.57697 2.94069e-08 0)
(4.57697 1.42459e-08 0)
(4.57697 1.7945e-08 0)
(4.57697 7.01779e-09 0)
(4.57697 5.81134e-09 0)
(5.96356 6.29458e-09 0)
(5.96356 1.01617e-08 0)
(5.96356 1.42389e-08 0)
(5.96356 2.00395e-08 0)
(5.96356 2.00915e-08 0)
(5.96356 2.78925e-08 0)
(5.96356 2.33885e-08 0)
(5.96356 3.29506e-08 0)
(5.96356 2.40428e-08 0)
(5.96356 3.47139e-08 0)
(5.96356 2.25024e-08 0)
(5.96356 3.33128e-08 0)
(5.96356 1.90585e-08 0)
(5.96356 2.87765e-08 0)
(5.96356 1.47404e-08 0)
(5.96356 2.20363e-08 0)
(5.96356 9.29084e-09 0)
(5.96356 1.34237e-08 0)
(5.96356 4.52169e-09 0)
(5.96356 4.04489e-09 0)
(7.47681 3.91582e-09 0)
(7.47681 6.23446e-09 0)
(7.47681 8.79785e-09 0)
(7.47681 1.27838e-08 0)
(7.47681 1.23881e-08 0)
(7.47681 1.78979e-08 0)
(7.47681 1.43129e-08 0)
(7.47681 2.12366e-08 0)
(7.47681 1.46023e-08 0)
(7.47681 2.24472e-08 0)
(7.47681 1.35708e-08 0)
(7.47681 2.16033e-08 0)
(7.47681 1.14156e-08 0)
(7.47681 1.86937e-08 0)
(7.47681 8.78592e-09 0)
(7.47681 1.43392e-08 0)
(7.47681 5.48735e-09 0)
(7.47681 8.73068e-09 0)
(7.47681 2.65668e-09 0)
(7.47681 2.49622e-09 0)
(9.11672 1.13846e-09 0)
(9.11672 1.76185e-09 0)
(9.11672 2.5077e-09 0)
(9.11672 3.75492e-09 0)
(9.11672 3.48454e-09 0)
(9.11672 5.3014e-09 0)
(9.11672 3.9616e-09 0)
(9.11672 6.33525e-09 0)
(9.11672 3.97666e-09 0)
(9.11672 6.73559e-09 0)
(9.11672 3.63743e-09 0)
(9.11672 6.51622e-09 0)
(9.11672 3.00417e-09 0)
(9.11672 5.66541e-09 0)
(9.11672 2.27538e-09 0)
(9.11672 4.35842e-09 0)
(9.11672 1.37317e-09 0)
(9.11672 2.66804e-09 0)
(9.11672 6.32394e-10 0)
(9.11672 7.46562e-10 0)
)
;

boundaryField
{
    top
    {
        type            fixedValue;
        value           uniform (10 0 0);
    }
    bottom
    {
        type            fixedValue;
        value           uniform (0 0 0);
    }
    inlet
    {
        type            zeroGradient;
    }
    outlet
    {
        type            zeroGradient;
    }
    frontAndBack
    {
        type            empty;
    }
}


// ************************************************************************* //
