# vtk DataFile Version 2.0
OUTPUT by 3D-VPM
ASCII
DATASET UNSTRUCTURED_GRID
POINTS 820 double
1.000000e+00	0.000000e+00	1.112331e-03
9.931674e-01	0.000000e+00	1.505063e-04
9.755282e-01	0.000000e+00	-2.300979e-03
9.448927e-01	0.000000e+00	-6.424079e-03
9.045085e-01	0.000000e+00	-1.166231e-02
8.530688e-01	0.000000e+00	-1.795373e-02
7.938926e-01	0.000000e+00	-2.479253e-02
7.266841e-01	0.000000e+00	-3.192887e-02
6.545085e-01	0.000000e+00	-3.898040e-02
5.781101e-01	0.000000e+00	-4.549188e-02
5.000000e-01	0.000000e+00	-5.119792e-02
4.218900e-01	0.000000e+00	-5.540500e-02
3.454915e-01	0.000000e+00	-5.802707e-02
2.733159e-01	0.000000e+00	-5.825698e-02
2.061074e-01	0.000000e+00	-5.634210e-02
1.469312e-01	0.000000e+00	-5.165155e-02
9.549150e-02	0.000000e+00	-4.481628e-02
5.510729e-02	0.000000e+00	-3.558522e-02
2.447174e-02	0.000000e+00	-2.475015e-02
6.832625e-03	0.000000e+00	-1.232115e-02
0.000000e+00	0.000000e+00	1.112331e-03
6.832625e-03	0.000000e+00	1.454582e-02
2.447174e-02	0.000000e+00	2.697481e-02
5.510728e-02	0.000000e+00	3.780988e-02
9.549150e-02	0.000000e+00	4.704094e-02
1.469312e-01	0.000000e+00	5.387622e-02
2.061074e-01	0.000000e+00	5.856677e-02
2.733159e-01	0.000000e+00	6.048164e-02
3.454915e-01	0.000000e+00	6.025173e-02
4.218900e-01	0.000000e+00	5.762966e-02
5.000000e-01	0.000000e+00	5.342258e-02
5.781101e-01	0.000000e+00	4.771655e-02
6.545085e-01	0.000000e+00	4.120506e-02
7.266841e-01	0.000000e+00	3.415353e-02
7.938926e-01	0.000000e+00	2.701719e-02
8.530688e-01	0.000000e+00	2.017839e-02
9.045085e-01	0.000000e+00	1.388697e-02
9.448927e-01	0.000000e+00	8.648741e-03
9.755282e-01	0.000000e+00	4.525641e-03
9.931674e-01	0.000000e+00	2.074156e-03
1.000000e+00	0.000000e+00	1.112331e-03
1.000000e+00	1.052632e+00	1.112331e-03
9.931674e-01	1.052632e+00	1.505063e-04
9.755282e-01	1.052632e+00	-2.300979e-03
9.448927e-01	1.052632e+00	-6.424079e-03
9.045085e-01	1.052632e+00	-1.166231e-02
8.530689e-01	1.052632e+00	-1.795373e-02
7.938926e-01	1.052632e+00	-2.479253e-02
7.266841e-01	1.052632e+00	-3.192887e-02
6.545085e-01	1.052632e+00	-3.898040e-02
5.781101e-01	1.052632e+00	-4.549188e-02
5.000000e-01	1.052632e+00	-5.119792e-02
4.218900e-01	1.052632e+00	-5.540500e-02
3.454915e-01	1.052632e+00	-5.802707e-02
2.733158e-01	1.052632e+00	-5.825698e-02
2.061074e-01	1.052632e+00	-5.634210e-02
1.469311e-01	1.052632e+00	-5.165155e-02
9.549150e-02	1.052632e+00	-4.481628e-02
5.510729e-02	1.052632e+00	-3.558522e-02
2.447174e-02	1.052632e+00	-2.475015e-02
6.832625e-03	1.052632e+00	-1.232115e-02
0.000000e+00	1.052632e+00	1.112331e-03
6.832625e-03	1.052632e+00	1.454582e-02
2.447174e-02	1.052632e+00	2.697481e-02
5.510728e-02	1.052632e+00	3.780988e-02
9.549150e-02	1.052632e+00	4.704094e-02
1.469311e-01	1.052632e+00	5.387622e-02
2.061074e-01	1.052632e+00	5.856677e-02
2.733158e-01	1.052632e+00	6.048164e-02
3.454915e-01	1.052632e+00	6.025173e-02
4.218900e-01	1.052632e+00	5.762966e-02
5.000000e-01	1.052632e+00	5.342258e-02
5.781101e-01	1.052632e+00	4.771655e-02
6.545085e-01	1.052632e+00	4.120506e-02
7.266841e-01	1.052632e+00	3.415353e-02
7.938926e-01	1.052632e+00	2.701719e-02
8.530689e-01	1.052632e+00	2.017839e-02
9.045085e-01	1.052632e+00	1.388697e-02
9.448927e-01	1.052632e+00	8.648741e-03
9.755282e-01	1.052632e+00	4.525641e-03
9.931674e-01	1.052632e+00	2.074156e-03
1.000000e+00	1.052632e+00	1.112331e-03
1.000000e+00	2.105263e+00	1.112331e-03
9.931674e-01	2.105263e+00	1.505063e-04
9.755282e-01	2.105263e+00	-2.300979e-03
9.448927e-01	2.105263e+00	-6.424079e-03
9.045085e-01	2.105263e+00	-1.166231e-02
8.530689e-01	2.105263e+00	-1.795373e-02
7.938926e-01	2.105263e+00	-2.479253e-02
7.266841e-01	2.105263e+00	-3.192887e-02
6.545085e-01	2.105263e+00	-3.898040e-02
5.781101e-01	2.105263e+00	-4.549188e-02
5.000000e-01	2.105263e+00	-5.119792e-02
4.218900e-01	2.105263e+00	-5.540500e-02
3.454915e-01	2.105263e+00	-5.802707e-02
2.733158e-01	2.105263e+00	-5.825698e-02
2.061074e-01	2.105263e+00	-5.634210e-02
1.469312e-01	2.105263e+00	-5.165155e-02
9.549150e-02	2.105263e+00	-4.481628e-02
5.510729e-02	2.105263e+00	-3.558522e-02
2.447174e-02	2.105263e+00	-2.475015e-02
6.832625e-03	2.105263e+00	-1.232115e-02
0.000000e+00	2.105263e+00	1.112331e-03
6.832625e-03	2.105263e+00	1.454582e-02
2.447174e-02	2.105263e+00	2.697481e-02
5.510728e-02	2.105263e+00	3.780988e-02
9.549150e-02	2.105263e+00	4.704094e-02
1.469312e-01	2.105263e+00	5.387622e-02
2.061074e-01	2.105263e+00	5.856677e-02
2.733158e-01	2.105263e+00	6.048164e-02
3.454915e-01	2.105263e+00	6.025173e-02
4.218900e-01	2.105263e+00	5.762966e-02
5.000000e-01	2.105263e+00	5.342258e-02
5.781101e-01	2.105263e+00	4.771655e-02
6.545085e-01	2.105263e+00	4.120506e-02
7.266841e-01	2.105263e+00	3.415353e-02
7.938926e-01	2.105263e+00	2.701719e-02
8.530689e-01	2.105263e+00	2.017839e-02
9.045085e-01	2.105263e+00	1.388697e-02
9.448927e-01	2.105263e+00	8.648741e-03
9.755282e-01	2.105263e+00	4.525641e-03
9.931674e-01	2.105263e+00	2.074156e-03
1.000000e+00	2.105263e+00	1.112331e-03
1.000000e+00	3.157895e+00	1.112331e-03
9.931674e-01	3.157895e+00	1.505063e-04
9.755282e-01	3.157895e+00	-2.300979e-03
9.448927e-01	3.157895e+00	-6.424079e-03
9.045085e-01	3.157895e+00	-1.166231e-02
8.530689e-01	3.157895e+00	-1.795373e-02
7.938926e-01	3.157895e+00	-2.479253e-02
7.266842e-01	3.157895e+00	-3.192887e-02
6.545085e-01	3.157895e+00	-3.898040e-02
5.781101e-01	3.157895e+00	-4.549188e-02
5.000000e-01	3.157895e+00	-5.119792e-02
4.218900e-01	3.157895e+00	-5.540500e-02
3.454915e-01	3.157895e+00	-5.802707e-02
2.733158e-01	3.157895e+00	-5.825698e-02
2.061074e-01	3.157895e+00	-5.634210e-02
1.469312e-01	3.157895e+00	-5.165155e-02
9.549150e-02	3.157895e+00	-4.481628e-02
5.510729e-02	3.157895e+00	-3.558522e-02
2.447174e-02	3.157895e+00	-2.475015e-02
6.832625e-03	3.157895e+00	-1.232115e-02
0.000000e+00	3.157895e+00	1.112331e-03
6.832625e-03	3.157895e+00	1.454582e-02
2.447174e-02	3.157895e+00	2.697481e-02
5.510728e-02	3.157895e+00	3.780988e-02
9.549150e-02	3.157895e+00	4.704094e-02
1.469312e-01	3.157895e+00	5.387622e-02
2.061074e-01	3.157895e+00	5.856677e-02
2.733158e-01	3.157895e+00	6.048164e-02
3.454915e-01	3.157895e+00	6.025173e-02
4.218900e-01	3.157895e+00	5.762966e-02
5.000000e-01	3.157895e+00	5.342258e-02
5.781101e-01	3.157895e+00	4.771655e-02
6.545085e-01	3.157895e+00	4.120506e-02
7.266842e-01	3.157895e+00	3.415353e-02
7.938926e-01	3.157895e+00	2.701719e-02
8.530689e-01	3.157895e+00	2.017839e-02
9.045085e-01	3.157895e+00	1.388697e-02
9.448927e-01	3.157895e+00	8.648741e-03
9.755282e-01	3.157895e+00	4.525641e-03
9.931674e-01	3.157895e+00	2.074156e-03
1.000000e+00	3.157895e+00	1.112331e-03
1.000000e+00	4.210526e+00	1.112331e-03
9.931674e-01	4.210526e+00	1.505063e-04
9.755282e-01	4.210526e+00	-2.300979e-03
9.448927e-01	4.210526e+00	-6.424079e-03
9.045085e-01	4.210526e+00	-1.166231e-02
8.530689e-01	4.210526e+00	-1.795373e-02
7.938926e-01	4.210526e+00	-2.479253e-02
7.266841e-01	4.210526e+00	-3.192887e-02
6.545085e-01	4.210526e+00	-3.898040e-02
5.781101e-01	4.210526e+00	-4.549188e-02
5.000000e-01	4.210526e+00	-5.119792e-02
4.218900e-01	4.210526e+00	-5.540500e-02
3.454915e-01	4.210526e+00	-5.802707e-02
2.733158e-01	4.210526e+00	-5.825698e-02
2.061074e-01	4.210526e+00	-5.634210e-02
1.469311e-01	4.210526e+00	-5.165155e-02
9.549150e-02	4.210526e+00	-4.481628e-02
5.510729e-02	4.210526e+00	-3.558522e-02
2.447174e-02	4.210526e+00	-2.475015e-02
6.832625e-03	4.210526e+00	-1.232115e-02
0.000000e+00	4.210526e+00	1.112331e-03
6.832625e-03	4.210526e+00	1.454582e-02
2.447174e-02	4.210526e+00	2.697481e-02
5.510728e-02	4.210526e+00	3.780988e-02
9.549150e-02	4.210526e+00	4.704094e-02
1.469311e-01	4.210526e+00	5.387622e-02
2.061074e-01	4.210526e+00	5.856677e-02
2.733158e-01	4.210526e+00	6.048164e-02
3.454915e-01	4.210526e+00	6.025173e-02
4.218900e-01	4.210526e+00	5.762966e-02
5.000000e-01	4.210526e+00	5.342258e-02
5.781101e-01	4.210526e+00	4.771655e-02
6.545085e-01	4.210526e+00	4.120506e-02
7.266841e-01	4.210526e+00	3.415353e-02
7.938926e-01	4.210526e+00	2.701719e-02
8.530689e-01	4.210526e+00	2.017839e-02
9.045085e-01	4.210526e+00	1.388697e-02
9.448927e-01	4.210526e+00	8.648741e-03
9.755282e-01	4.210526e+00	4.525641e-03
9.931674e-01	4.210526e+00	2.074156e-03
1.000000e+00	4.210526e+00	1.112331e-03
1.000000e+00	5.263158e+00	1.112331e-03
9.931674e-01	5.263158e+00	1.505063e-04
9.755282e-01	5.263158e+00	-2.300979e-03
9.448927e-01	5.263158e+00	-6.424079e-03
9.045085e-01	5.263158e+00	-1.166231e-02
8.530689e-01	5.263158e+00	-1.795373e-02
7.938926e-01	5.263158e+00	-2.479253e-02
7.266842e-01	5.263158e+00	-3.192887e-02
6.545085e-01	5.263158e+00	-3.898040e-02
5.781101e-01	5.263158e+00	-4.549188e-02
5.000000e-01	5.263158e+00	-5.119792e-02
4.218900e-01	5.263158e+00	-5.540500e-02
3.454915e-01	5.263158e+00	-5.802707e-02
2.733158e-01	5.263158e+00	-5.825698e-02
2.061074e-01	5.263158e+00	-5.634210e-02
1.469311e-01	5.263158e+00	-5.165155e-02
9.549150e-02	5.263158e+00	-4.481628e-02
5.510729e-02	5.263158e+00	-3.558522e-02
2.447174e-02	5.263158e+00	-2.475015e-02
6.832625e-03	5.263158e+00	-1.232115e-02
0.000000e+00	5.263158e+00	1.112331e-03
6.832625e-03	5.263158e+00	1.454582e-02
2.447174e-02	5.263158e+00	2.697481e-02
5.510728e-02	5.263158e+00	3.780988e-02
9.549150e-02	5.263158e+00	4.704094e-02
1.469311e-01	5.263158e+00	5.387622e-02
2.061074e-01	5.263158e+00	5.856677e-02
2.733158e-01	5.263158e+00	6.048164e-02
3.454915e-01	5.263158e+00	6.025173e-02
4.218900e-01	5.263158e+00	5.762966e-02
5.000000e-01	5.263158e+00	5.342258e-02
5.781101e-01	5.263158e+00	4.771655e-02
6.545085e-01	5.263158e+00	4.120506e-02
7.266842e-01	5.263158e+00	3.415353e-02
7.938926e-01	5.263158e+00	2.701719e-02
8.530689e-01	5.263158e+00	2.017839e-02
9.045085e-01	5.263158e+00	1.388697e-02
9.448927e-01	5.263158e+00	8.648741e-03
9.755282e-01	5.263158e+00	4.525641e-03
9.931674e-01	5.263158e+00	2.074156e-03
1.000000e+00	5.263158e+00	1.112331e-03
1.000000e+00	6.315789e+00	1.112331e-03
9.931673e-01	6.315789e+00	1.505063e-04
9.755282e-01	6.315789e+00	-2.300979e-03
9.448927e-01	6.315789e+00	-6.424079e-03
9.045085e-01	6.315789e+00	-1.166231e-02
[...]
CELL_DATA 760
VECTORS V double
3.461967e-01	1.095611e-03	4.873374e-02
3.544475e-01	1.051821e-03	4.926103e-02
3.611672e-01	9.718779e-04	4.860794e-02
3.667138e-01	8.711311e-04	4.756641e-02
3.707977e-01	7.548177e-04	4.535108e-02
3.758508e-01	6.218014e-04	4.343581e-02
3.795982e-01	4.685550e-04	4.030657e-02
3.843178e-01	2.924478e-04	3.754768e-02
3.884823e-01	9.421862e-05	3.311058e-02
3.936089e-01	-1.207665e-04	2.875361e-02
3.983462e-01	-3.422539e-04	2.145531e-02
4.033860e-01	-5.561334e-04	1.384460e-02
4.074114e-01	-7.478675e-04	1.297778e-03
4.101225e-01	-9.039029e-04	-1.168507e-02
4.123141e-01	-1.016915e-03	-3.268166e-02
4.057994e-01	-1.084091e-03	-5.392242e-02
3.872504e-01	-1.109545e-03	-8.851804e-02
3.533290e-01	-1.099685e-03	-1.249641e-01
2.534695e-01	-1.061073e-03	-1.786014e-01
4.954637e-02	-1.001002e-03	-9.741211e-02
1.371555e-01	-9.090036e-04	2.696586e-01
3.493817e-01	-8.106902e-04	2.461837e-01
4.246923e-01	-6.913767e-04	1.502036e-01
4.386711e-01	-5.523885e-04	1.002718e-01
4.428725e-01	-3.849248e-04	5.884868e-02
4.389592e-01	-1.899503e-04	3.479373e-02
4.282828e-01	3.192503e-05	1.220242e-02
4.188166e-01	2.702012e-04	-1.334108e-03
4.087764e-01	5.118020e-04	-1.402960e-02
3.984906e-01	7.385992e-04	-2.146309e-02
3.886552e-01	9.346166e-04	-2.839174e-02
3.785696e-01	1.087443e-03	-3.226571e-02
3.691099e-01	1.191299e-03	-3.606187e-02
3.586640e-01	1.247286e-03	-3.808373e-02
3.483099e-01	1.261951e-03	-4.025300e-02
3.355821e-01	1.245733e-03	-4.104398e-02
3.223494e-01	1.210355e-03	-4.181191e-02
3.065054e-01	1.168084e-03	-4.125124e-02
2.897090e-01	1.130469e-03	-4.026368e-02
2.742834e-01	1.109881e-03	-3.861059e-02
3.498913e-01	6.295526e-04	4.925383e-02
3.579251e-01	6.033972e-04	4.974435e-02
3.642564e-01	5.560643e-04	4.902370e-02
3.694548e-01	4.962766e-04	4.792194e-02
3.733466e-01	4.271900e-04	4.566283e-02
3.783612e-01	3.485163e-04	4.372593e-02
3.821807e-01	2.587119e-04	4.058079e-02
3.870314e-01	1.567274e-04	3.781280e-02
3.913331e-01	4.330659e-05	3.335355e-02
3.965510e-01	-7.840856e-05	2.896853e-02
4.012876e-01	-2.027753e-04	2.161374e-02
4.062023e-01	-3.222071e-04	1.394126e-02
4.099597e-01	-4.289909e-04	1.305895e-03
4.122633e-01	-5.159306e-04	-1.174606e-02
4.139245e-01	-5.791382e-04	-3.280930e-02
4.067755e-01	-6.170119e-04	-5.405213e-02
3.874895e-01	-6.316237e-04	-8.857271e-02
3.526604e-01	-6.262242e-04	-1.247277e-01
2.516949e-01	-6.041654e-04	-1.773510e-01
4.721204e-02	-5.693297e-04	-9.282263e-02
1.402063e-01	-5.154078e-04	2.756568e-01
3.535585e-01	-4.574916e-04	2.491268e-01
4.286784e-01	-3.872847e-04	1.516135e-01
4.424317e-01	-3.060267e-04	1.011314e-01
4.465707e-01	-2.090933e-04	5.934009e-02
4.426398e-01	-9.747820e-05	3.508546e-02
4.319224e-01	2.826243e-05	1.230612e-02
4.223221e-01	1.622519e-04	-1.345275e-03
4.120230e-01	2.974650e-04	-1.414103e-02
4.013456e-01	4.242261e-04	-2.161686e-02
3.910078e-01	5.340834e-04	-2.856360e-02
3.803455e-01	6.204342e-04	-3.241707e-02
3.702773e-01	6.801400e-04	-3.617593e-02
3.592318e-01	7.136603e-04	-3.814402e-02
3.483142e-01	7.243141e-04	-4.025350e-02
3.350758e-01	7.175497e-04	-4.098206e-02
3.213887e-01	6.995914e-04	-4.168730e-02
3.051541e-01	6.771469e-04	-4.106937e-02
2.880729e-01	6.567305e-04	-4.003631e-02
2.725464e-01	6.454450e-04	-3.836607e-02
3.506102e-01	1.064703e-04	4.935503e-02
3.585735e-01	1.009757e-04	4.983446e-02
3.648307e-01	9.142473e-05	4.910100e-02
3.699688e-01	7.917096e-05	4.798861e-02
3.738182e-01	6.493235e-05	4.572051e-02
3.788049e-01	4.910570e-05	4.377721e-02
3.826051e-01	3.200472e-05	4.062584e-02
3.874402e-01	1.398155e-05	3.785274e-02
3.917264e-01	-4.480789e-06	3.338707e-02
3.969263e-01	-2.280743e-05	2.899595e-02
4.016405e-01	-4.035944e-05	2.163274e-02
4.065275e-01	-5.647721e-05	1.395241e-02
4.102504e-01	-7.060623e-05	1.306821e-03
4.125117e-01	-8.221476e-05	-1.175314e-02
4.141205e-01	-9.100981e-05	-3.282483e-02
4.069049e-01	-9.672505e-05	-5.406932e-02
3.875305e-01	-9.935965e-05	-8.858208e-02
3.525733e-01	-9.894446e-05	-1.246969e-01
2.514263e-01	-9.555298e-05	-1.771618e-01
4.682396e-02	-8.946734e-05	-9.205964e-02
1.407428e-01	-7.930116e-05	2.767115e-01
3.542991e-01	-6.799680e-05	2.496487e-01
4.293647e-01	-5.435271e-05	1.518562e-01
4.430419e-01	-3.913824e-05	1.012709e-01
4.471263e-01	-2.208539e-05	5.941392e-02
4.431493e-01	-3.868105e-06	3.512585e-02
4.323907e-01	1.519047e-05	1.231946e-02
4.227494e-01	3.429775e-05	-1.346636e-03
4.124080e-01	5.285158e-05	-1.415424e-02
4.016861e-01	7.009282e-05	-2.163520e-02
3.913016e-01	8.544890e-05	-2.858506e-02
3.805903e-01	9.842340e-05	-3.243794e-02
3.704709e-01	1.086983e-04	-3.619484e-02
3.593718e-01	1.161428e-04	-3.815888e-02
3.483979e-01	1.207879e-04	-4.026317e-02
3.351007e-01	1.228927e-04	-4.098510e-02
3.213526e-01	1.228777e-04	-4.168260e-02
3.050583e-01	1.214449e-04	-4.105649e-02
2.879292e-01	1.195278e-04	-4.001633e-02
2.723791e-01	1.183133e-04	-3.834252e-02
3.508185e-01	3.532257e-05	4.938435e-02
3.587652e-01	3.359067e-05	4.986110e-02
3.650032e-01	3.050894e-05	4.912420e-02
3.701242e-01	2.649995e-05	4.800876e-02
3.739605e-01	2.181863e-05	4.573791e-02
3.789375e-01	1.663227e-05	4.379253e-02
3.827304e-01	1.107685e-05	4.063915e-02
3.875595e-01	5.277961e-06	3.786440e-02
3.918403e-01	-6.088746e-07	3.339678e-02
3.970345e-01	-6.423028e-06	2.900386e-02
4.017426e-01	-1.199549e-05	2.163824e-02
4.066225e-01	-1.714901e-05	1.395567e-02
4.103368e-01	-2.173108e-05	1.307096e-03
4.125877e-01	-2.558335e-05	-1.175531e-02
4.141832e-01	-2.860943e-05	-3.282981e-02
4.069503e-01	-3.070450e-05	-5.407535e-02
3.875520e-01	-3.184224e-05	-8.858699e-02
3.525589e-01	-3.199360e-05	-1.246918e-01
2.513589e-01	-3.116046e-05	-1.771142e-01
4.671683e-02	-2.940059e-05	-9.184902e-02
1.408971e-01	-2.627969e-05	2.770149e-01
3.545156e-01	-2.271317e-05	2.498012e-01
4.295660e-01	-1.836117e-05	1.519274e-01
4.432203e-01	-1.349797e-05	1.013117e-01
4.472877e-01	-8.065188e-06	5.943537e-02
4.432963e-01	-2.293680e-06	3.513750e-02
4.325251e-01	3.714943e-06	1.232329e-02
4.228720e-01	9.729106e-06	-1.347026e-03
4.125192e-01	1.559021e-05	-1.415806e-02
4.017859e-01	2.109418e-05	-2.164058e-02
3.913899e-01	2.609031e-05	-2.859151e-02
3.806668e-01	3.043963e-05	-3.244445e-02
3.705350e-01	3.404272e-05	-3.620111e-02
3.594229e-01	3.684175e-05	-3.816431e-02
3.484349e-01	3.881155e-05	-4.026745e-02
3.351223e-01	3.998570e-05	-4.098774e-02
3.213570e-01	4.043843e-05	-4.168318e-02
3.050451e-01	4.034338e-05	-4.105470e-02
2.879005e-01	3.996398e-05	-4.001234e-02
2.723415e-01	3.967575e-05	-3.833723e-02
3.509025e-01	1.614221e-05	4.939617e-02
3.588431e-01	1.539932e-05	4.987193e-02
3.650739e-01	1.406410e-05	4.913372e-02
3.701884e-01	1.230868e-05	4.801710e-02
3.740196e-01	1.024393e-05	4.574515e-02
3.789928e-01	7.945936e-06	4.379893e-02
3.827827e-01	5.479296e-06	4.064470e-02
3.876093e-01	2.903878e-06	3.786926e-02
3.918877e-01	2.882571e-07	3.340082e-02
3.970797e-01	-2.300328e-06	2.900716e-02
4.017854e-01	-4.791627e-06	2.164055e-02
4.066627e-01	-7.111798e-06	1.395706e-02
4.103740e-01	-9.198310e-06	1.307215e-03
4.126210e-01	-1.098203e-05	-1.175625e-02
4.142116e-01	-1.241831e-05	-3.283206e-02
4.069722e-01	-1.345494e-05	-5.407826e-02
3.875646e-01	-1.407454e-05	-8.858987e-02
3.525574e-01	-1.425463e-05	-1.246912e-01
2.513359e-01	-1.399308e-05	-1.770980e-01
4.667600e-02	-1.330591e-05	-9.176874e-02
1.409584e-01	-1.201010e-05	2.771355e-01
3.546032e-01	-1.048806e-05	2.498630e-01
4.296482e-01	-8.605264e-06	1.519564e-01
4.432935e-01	-6.485287e-06	1.013284e-01
4.473540e-01	-4.107335e-06	5.944418e-02
4.433567e-01	-1.574908e-06	3.514229e-02
4.325806e-01	1.067743e-06	1.232487e-02
4.229228e-01	3.721962e-06	-1.347188e-03
4.125656e-01	6.322983e-06	-1.415965e-02
4.018280e-01	8.786152e-06	-2.164284e-02
3.914276e-01	1.104930e-05	-2.859427e-02
3.807002e-01	1.305268e-05	-3.244730e-02
3.705639e-01	1.475175e-05	-3.620393e-02
3.594470e-01	1.611715e-05	-3.816686e-02
3.484537e-01	1.712940e-05	-4.026962e-02
3.351351e-01	1.779273e-05	-4.098931e-02
3.213633e-01	1.813019e-05	-4.168399e-02
3.050443e-01	1.820613e-05	-4.105460e-02
2.878934e-01	1.812351e-05	-4.001136e-02
2.723305e-01	1.803717e-05	-3.833567e-02
3.509438e-01	8.856495e-06	4.940200e-02
3.588817e-01	8.474698e-06	4.987730e-02
3.651092e-01	7.782477e-06	4.913848e-02
3.702208e-01	6.864082e-06	4.802129e-02
3.740496e-01	5.776288e-06	4.574881e-02
3.790209e-01	4.559189e-06	4.380217e-02
3.828093e-01	3.247927e-06	4.064753e-02
3.876347e-01	1.874974e-06	3.787174e-02
3.919120e-01	4.748188e-07	3.340289e-02
3.971030e-01	-9.175144e-07	2.900886e-02
4.018076e-01	-2.264801e-06	2.164175e-02
4.066837e-01	-3.528101e-06	1.395777e-02
4.103935e-01	-4.674679e-06	1.307277e-03
4.126388e-01	-5.667086e-06	-1.175676e-02
4.142271e-01	-6.481112e-06	-3.283329e-02
4.069846e-01	-7.086997e-06	-5.407991e-02
3.875727e-01	-7.473649e-06	-8.859171e-02
3.525586e-01	-7.625287e-06	-1.246917e-01
2.513265e-01	-7.540156e-06	-1.770914e-01
4.665703e-02	-7.222438e-06	-9.173144e-02
1.409882e-01	-6.579870e-06	2.771940e-01
3.546465e-01	-5.802638e-06	2.498935e-01
4.296893e-01	-4.826435e-06	1.519710e-01
4.433302e-01	-3.716676e-06	1.013368e-01
4.473875e-01	-2.463841e-06	5.944863e-02
4.433874e-01	-1.123160e-06	3.514472e-02
4.326088e-01	2.819185e-07	1.232568e-02
4.229487e-01	1.699594e-06	-1.347271e-03
4.125894e-01	3.096495e-06	-1.416046e-02
4.018497e-01	4.428459e-06	-2.164402e-02
3.914474e-01	5.663488e-06	-2.859571e-02
3.807179e-01	6.770307e-06	-3.244881e-02
3.705795e-01	7.725103e-06	-3.620546e-02
3.594603e-01	8.509446e-06	-3.816828e-02
3.484646e-01	9.109443e-06	-4.027088e-02
3.351432e-01	9.525481e-06	-4.099030e-02
3.213682e-01	9.765884e-06	-4.168463e-02
3.050459e-01	9.859602e-06	-4.105481e-02
2.878919e-01	9.855499e-06	-4.001115e-02
2.723269e-01	9.829702e-06	-3.833518e-02
3.509669e-01	5.463829e-06	4.940524e-02
3.589034e-01	5.246409e-06	4.988031e-02
3.651292e-01	4.848714e-06	4.914117e-02
3.702392e-01	4.316030e-06	4.802368e-02
3.740667e-01	3.680346e-06	4.575091e-02
3.790371e-01	2.965097e-06	4.380404e-02
3.828247e-01	2.190867e-06	4.064916e-02
3.876494e-01	1.376776e-06	3.787318e-02
3.919262e-01	5.436608e-07	3.340410e-02
3.971167e-01	-2.884173e-07	2.900986e-02
4.018207e-01	-1.098644e-06	2.164245e-02
4.066962e-01	-1.864713e-06	1.395820e-02
4.104053e-01	-2.566721e-06	1.307315e-03
4.126496e-01	-3.181782e-06	-1.175707e-02
4.142368e-01	-3.695171e-06	-3.283406e-02
4.069927e-01	-4.088012e-06	-5.408098e-02
3.875784e-01	-4.352739e-06	-8.859301e-02
3.525605e-01	-4.477856e-06	-1.246924e-01
2.513225e-01	-4.462040e-06	-1.770886e-01
4.664721e-02	-4.304922e-06	-9.171213e-02
1.410044e-01	-3.955029e-06	2.772260e-01
3.546708e-01	-3.516064e-06	2.499106e-01
4.297125e-01	-2.954487e-06	1.519792e-01
4.433512e-01	-2.308701e-06	1.013416e-01
4.474068e-01	-1.573963e-06	5.945119e-02
4.434051e-01	-7.832346e-07	3.514613e-02
4.326252e-01	4.926293e-08	1.232614e-02
4.229639e-01	8.930466e-07	-1.347319e-03
4.126034e-01	1.728816e-06	-1.416095e-02
4.018626e-01	2.530907e-06	-2.164471e-02
3.914592e-01	3.281048e-06	-2.859658e-02
3.807286e-01	3.960973e-06	-3.244973e-02
3.705891e-01	4.555262e-06	-3.620640e-02
3.594687e-01	5.051565e-06	-3.816918e-02
3.484717e-01	5.441815e-06	-4.027170e-02
3.351488e-01	5.724642e-06	-4.099098e-02
3.213721e-01	5.902319e-06	-4.168514e-02
3.050479e-01	5.989260e-06	-4.105508e-02
2.878922e-01	6.010545e-06	-4.001119e-02
2.723261e-01	6.007531e-06	-3.833506e-02
3.509805e-01	3.411396e-06	4.940716e-02
3.589163e-01	3.312013e-06	4.988211e-02
3.651412e-01	3.136635e-06	4.914279e-02
3.702503e-01	2.913610e-06	4.802513e-02
3.740772e-01	2.664401e-06	4.575219e-02
3.790470e-01	2.400909e-06	4.380518e-02
3.828342e-01	2.122251e-06	4.065017e-02
3.876585e-01	1.815247e-06	3.787407e-02
3.919350e-01	1.461666e-06	3.340485e-02
3.971252e-01	1.049079e-06	2.901048e-02
4.018289e-01	5.828115e-07	2.164289e-02
4.067040e-01	9.012313e-08	1.395847e-02
4.104128e-01	-3.890625e-07	1.307338e-03
4.126567e-01	-8.132152e-07	-1.175727e-02
4.142432e-01	-1.158386e-06	-3.283456e-02
4.069982e-01	-1.412643e-06	-5.408172e-02
3.875825e-01	-1.579835e-06	-8.859397e-02
3.525626e-01	-1.661224e-06	-1.246931e-01
2.513211e-01	-1.660806e-06	-1.770876e-01
4.664195e-02	-1.578998e-06	-9.170179e-02
1.410138e-01	-1.387281e-06	2.772444e-01
3.546851e-01	-1.142553e-06	2.499207e-01
4.297265e-01	-8.269000e-07	1.519841e-01
4.433640e-01	-4.608346e-07	1.013445e-01
4.474185e-01	-3.710778e-08	5.945275e-02
4.434160e-01	4.337930e-07	3.514699e-02
4.326353e-01	9.521849e-07	1.232643e-02
4.229732e-01	1.500215e-06	-1.347349e-03
4.126121e-01	2.051923e-06	-1.416124e-02
4.018707e-01	2.564567e-06	-2.164514e-02
3.914667e-01	2.998858e-06	-2.859712e-02
3.807355e-01	3.328910e-06	-3.245031e-02
3.705953e-01	3.551828e-06	-3.620701e-02
3.594743e-01	3.685157e-06	-3.816976e-02
3.484765e-01	3.754630e-06	-4.027225e-02
3.351528e-01	3.782371e-06	-4.099147e-02
3.213751e-01	3.782903e-06	-4.168553e-02
3.050499e-01	3.765578e-06	-4.105535e-02
2.878932e-01	3.740240e-06	-4.001133e-02
2.723264e-01	3.723074e-06	-3.833510e-02
3.509836e-01	-3.335562e-04	4.940760e-02
3.589188e-01	-3.341877e-04	4.988245e-02
3.651429e-01	-3.361307e-04	4.914301e-02
3.702511e-01	-3.327954e-04	4.802523e-02
3.740772e-01	-3.224210e-04	4.575219e-02
3.790466e-01	-3.344760e-04	4.380514e-02
3.828339e-01	-2.815466e-04	4.065014e-02
3.876590e-01	-3.046971e-04	3.787412e-02
3.919368e-01	-2.183916e-04	3.340500e-02
3.971285e-01	-2.510284e-04	2.901073e-02
4.018337e-01	-1.324745e-04	2.164315e-02
4.067096e-01	-1.723665e-04	1.395867e-02
4.104185e-01	-2.905953e-05	1.307357e-03
4.126618e-01	-7.541483e-05	-1.175742e-02
4.142474e-01	8.653452e-05	-3.283490e-02
4.070014e-01	1.888965e-04	-5.408214e-02
3.875846e-01	2.364468e-04	-8.859444e-02
3.525634e-01	2.187605e-04	-1.246934e-01
2.513200e-01	2.101607e-04	-1.770869e-01
4.663911e-02	2.067850e-04	-9.169620e-02
1.410187e-01	2.068700e-04	2.772539e-01
3.546924e-01	2.103904e-04	2.499258e-01
4.297335e-01	2.191300e-04	1.519866e-01
4.433706e-01	2.369419e-04	1.013460e-01
4.474250e-01	1.895036e-04	5.945361e-02
4.434226e-01	8.723658e-05	3.514751e-02
4.326420e-01	-7.463763e-05	1.232662e-02
4.229799e-01	-2.822828e-05	-1.347370e-03
4.126181e-01	-1.715035e-04	-1.416145e-02
4.018754e-01	-1.316028e-04	-2.164540e-02
3.914695e-01	-2.501704e-04	-2.859733e-02
3.807363e-01	-2.175705e-04	-3.245038e-02
3.705943e-01	-3.039336e-04	-3.620691e-02
3.594720e-01	-2.808596e-04	-3.816952e-02
3.484734e-01	-3.338802e-04	-4.027190e-02
3.351494e-01	-3.219276e-04	-4.099106e-02
3.213717e-01	-3.324072e-04	-4.168509e-02
3.050465e-01	-3.358414e-04	-4.105490e-02
2.878899e-01	-3.339777e-04	-4.001087e-02
2.723232e-01	-3.333924e-04	-3.833465e-02
3.510871e-01	2.775898e-09	4.942216e-02
3.590704e-01	3.798232e-09	4.990352e-02
3.650610e-01	6.458779e-09	4.913199e-02
3.698848e-01	9.560539e-09	4.797771e-02
3.741534e-01	1.246380e-08	4.576152e-02
3.782584e-01	1.479211e-08	4.371405e-02
3.824263e-01	1.668061e-08	4.060686e-02
3.866949e-01	1.820538e-08	3.777992e-02
3.912263e-01	1.935365e-08	3.334445e-02
3.959569e-01	2.015766e-08	2.892514e-02
4.007532e-01	2.068168e-08	2.158496e-02
4.053204e-01	2.089949e-08	1.391098e-02
4.089081e-01	2.081826e-08	1.302545e-03
4.109902e-01	2.039841e-08	-1.170979e-02
4.095275e-01	1.960589e-08	-3.246078e-02
4.038613e-01	1.845980e-08	-5.366488e-02
3.866733e-01	1.700350e-08	-8.838613e-02
3.534086e-01	1.532373e-08	-1.249923e-01
2.518121e-01	1.340408e-08	-1.774336e-01
4.676621e-02	1.136337e-08	-9.194609e-02
1.411480e-01	8.877382e-09	2.775082e-01
3.551868e-01	6.661693e-09	2.502742e-01
4.305805e-01	4.401443e-09	1.522862e-01
4.424605e-01	2.231056e-09	1.011380e-01
4.442858e-01	1.280015e-10	5.903647e-02
4.387033e-01	-1.804049e-09	3.477344e-02
4.309709e-01	-3.538649e-09	1.227901e-02
4.214698e-01	-4.969191e-09	-1.342560e-03
4.112290e-01	-6.068297e-09	-1.411377e-02
4.007950e-01	-6.982405e-09	-2.158720e-02
3.902978e-01	-7.874053e-09	-2.851173e-02
3.800255e-01	-8.682319e-09	-3.238980e-02
3.696297e-01	-9.034558e-09	-3.611267e-02
3.590638e-01	-8.781434e-09	-3.812618e-02
3.476846e-01	-8.026233e-09	-4.018073e-02
3.352248e-01	-6.491783e-09	-4.100028e-02
3.210044e-01	-4.453720e-09	-4.163745e-02
3.049636e-01	-2.045356e-09	-4.104374e-02
2.880403e-01	3.187481e-11	-4.003178e-02
2.724252e-01	5.439594e-10	-3.834901e-02
3.509835e-01	3.335748e-04	4.940758e-02
3.589186e-01	3.342084e-04	4.988242e-02
3.651427e-01	3.361535e-04	4.914298e-02
3.702509e-01	3.328210e-04	4.802521e-02
3.740771e-01	3.224501e-04	4.575217e-02
3.790465e-01	3.345088e-04	4.380513e-02
3.828338e-01	2.815833e-04	4.065013e-02
3.876590e-01	3.047375e-04	3.787412e-02
3.919368e-01	2.184350e-04	3.340500e-02
3.971285e-01	2.510743e-04	2.901072e-02
4.018337e-01	1.325219e-04	2.164315e-02
4.067096e-01	1.724146e-04	1.395867e-02
4.104185e-01	2.910729e-05	1.307357e-03
4.126619e-01	7.546117e-05	-1.175742e-02
4.142475e-01	-8.649064e-05	-3.283490e-02
4.070014e-01	-1.888560e-04	-5.408215e-02
3.875847e-01	-2.364104e-04	-8.859446e-02
3.525635e-01	-2.187289e-04	-1.246934e-01
2.513202e-01	-2.101345e-04	-1.770870e-01
4.663925e-02	-2.067647e-04	-9.169647e-02
1.410185e-01	-2.068567e-04	2.772536e-01
3.546922e-01	-2.103832e-04	2.499257e-01
4.297334e-01	-2.191292e-04	1.519866e-01
4.433705e-01	-2.369471e-04	1.013460e-01
4.474249e-01	-1.895147e-04	5.945360e-02
4.434225e-01	-8.725299e-05	3.514751e-02
4.326420e-01	7.461642e-05	1.232662e-02
4.229799e-01	2.820304e-05	-1.347370e-03
4.126181e-01	1.714751e-04	-1.416145e-02
4.018754e-01	1.315721e-04	-2.164540e-02
3.914695e-01	2.501382e-04	-2.859733e-02
3.807363e-01	2.175372e-04	-3.245038e-02
3.705943e-01	3.038997e-04	-3.620691e-02
3.594720e-01	2.808261e-04	-3.816952e-02
3.484734e-01	3.338478e-04	-4.027190e-02
3.351495e-01	3.218971e-04	-4.099107e-02
3.213718e-01	3.323791e-04	-4.168510e-02
3.050467e-01	3.358161e-04	-4.105492e-02
2.878901e-01	3.339554e-04	-4.001089e-02
2.723233e-01	3.333722e-04	-3.833467e-02
3.509801e-01	-3.378189e-06	4.940711e-02
3.589161e-01	-3.276787e-06	4.988208e-02
3.651411e-01	-3.099707e-06	4.914276e-02
3.702502e-01	-2.873943e-06	4.802511e-02
3.740770e-01	-2.620476e-06	4.575217e-02
3.790468e-01	-2.351262e-06	4.380517e-02
3.828340e-01	-2.066320e-06	4.065016e-02
3.876584e-01	-1.753260e-06	3.787406e-02
3.919349e-01	-1.394213e-06	3.340484e-02
3.971251e-01	-9.770747e-07	2.901048e-02
4.018289e-01	-5.074854e-07	2.164289e-02
4.067040e-01	-1.300447e-08	1.395847e-02
4.104128e-01	4.663400e-07	1.307339e-03
4.126567e-01	8.891580e-07	-1.175727e-02
4.142433e-01	1.231711e-06	-3.283457e-02
4.069983e-01	1.482294e-06	-5.408174e-02
3.875828e-01	1.644803e-06	-8.859402e-02
3.525629e-01	1.720607e-06	-1.246932e-01
2.513215e-01	1.713542e-06	-1.770879e-01
4.664235e-02	1.624414e-06	-9.170258e-02
1.410134e-01	1.423525e-06	2.772436e-01
3.546847e-01	1.170455e-06	2.499204e-01
4.297261e-01	8.461513e-07	1.519840e-01
4.433637e-01	4.716470e-07	1.013445e-01
4.474183e-01	3.958322e-08	5.945272e-02
4.434158e-01	-4.392493e-07	3.514698e-02
4.326351e-01	-9.651594e-07	1.232643e-02
4.229731e-01	-1.520061e-06	-1.347348e-03
4.126120e-01	-2.077826e-06	-1.416124e-02
4.018707e-01	-2.595302e-06	-2.164514e-02
3.914666e-01	-3.032907e-06	-2.859712e-02
3.807355e-01	-3.365071e-06	-3.245031e-02
3.705953e-01	-3.589706e-06	-3.620701e-02
3.594743e-01	-3.724262e-06	-3.816977e-02
3.484765e-01	-3.793851e-06	-4.027226e-02
3.351529e-01	-3.821314e-06	-4.099148e-02
3.213753e-01	-3.820835e-06	-4.168555e-02
3.050501e-01	-3.802130e-06	-4.105538e-02
2.878935e-01	-3.774629e-06	-4.001137e-02
2.723268e-01	-3.754536e-06	-3.833515e-02
3.509664e-01	-5.420155e-06	4.940517e-02
3.589030e-01	-5.200947e-06	4.988026e-02
3.651289e-01	-4.799848e-06	4.914112e-02
3.702389e-01	-4.262276e-06	4.802364e-02
3.740664e-01	-3.620108e-06	4.575087e-02
3.790368e-01	-2.897408e-06	4.380401e-02
3.828245e-01	-2.115815e-06	4.064914e-02
3.876492e-01	-1.294893e-06	3.787316e-02
3.919260e-01	-4.557657e-07	3.340409e-02
3.971166e-01	3.809359e-07	2.900985e-02
4.018206e-01	1.193930e-06	2.164245e-02
4.066961e-01	1.960915e-06	1.395820e-02
4.104053e-01	2.662375e-06	1.307315e-03
4.126497e-01	3.275899e-06	-1.175707e-02
4.142369e-01	3.786580e-06	-3.283407e-02
4.069929e-01	4.175430e-06	-5.408101e-02
3.875787e-01	4.434898e-06	-8.859308e-02
3.525610e-01	4.553658e-06	-1.246925e-01
2.513232e-01	4.530244e-06	-1.770891e-01