# vtk DataFile Version 2.0
OUTPUT by 3D-VPM
ASCII
DATASET UNSTRUCTURED_GRID
POINTS 820 double
9.510565e-01	0.000000e+00	-3.090170e-01
9.442611e-01	0.000000e+00	-3.078203e-01
9.267277e-01	0.000000e+00	-3.047010e-01
8.963175e-01	0.000000e+00	-2.991555e-01
8.562911e-01	0.000000e+00	-2.916579e-01
8.054250e-01	0.000000e+00	-2.817457e-01
7.470317e-01	0.000000e+00	-2.699633e-01
6.809074e-01	0.000000e+00	-2.559818e-01
6.100852e-01	0.000000e+00	-2.403847e-01
5.354138e-01	0.000000e+00	-2.229691e-01
4.593635e-01	0.000000e+00	-2.042585e-01
3.837764e-01	0.000000e+00	-1.841224e-01
3.103069e-01	0.000000e+00	-1.630077e-01
2.415927e-01	0.000000e+00	-1.409228e-01
1.782654e-01	0.000000e+00	-1.183331e-01
1.234349e-01	0.000000e+00	-9.558566e-02
7.662509e-02	0.000000e+00	-7.318920e-02
4.106998e-02	0.000000e+00	-5.193053e-02
1.528206e-02	0.000000e+00	-3.215886e-02
2.347037e-03	0.000000e+00	-1.488740e-02
0.000000e+00	0.000000e+00	0.000000e+00
1.064939e-02	0.000000e+00	1.066461e-02
3.126595e-02	0.000000e+00	1.703450e-02
6.375031e-02	0.000000e+00	1.787236e-02
1.050105e-01	0.000000e+00	1.417221e-02
1.560448e-01	0.000000e+00	4.777214e-03
2.137742e-01	0.000000e+00	-9.048270e-03
2.782849e-01	0.000000e+00	-2.799567e-02
3.468570e-01	0.000000e+00	-5.051783e-02
4.187060e-01	0.000000e+00	-7.662000e-02
4.916930e-01	0.000000e+00	-1.047585e-01
5.642168e-01	0.000000e+00	-1.343226e-01
6.348639e-01	0.000000e+00	-1.641238e-01
7.013280e-01	0.000000e+00	-1.931337e-01
7.630418e-01	0.000000e+00	-2.206893e-01
8.172084e-01	0.000000e+00	-2.454799e-01
8.641863e-01	0.000000e+00	-2.673591e-01
9.009752e-01	0.000000e+00	-2.848204e-01
9.288372e-01	0.000000e+00	-2.982085e-01
9.448555e-01	0.000000e+00	-3.059908e-01
9.510565e-01	0.000000e+00	-3.090170e-01
9.510565e-01	1.052632e+00	-3.090170e-01
9.442611e-01	1.052632e+00	-3.078203e-01
9.267277e-01	1.052632e+00	-3.047010e-01
8.963175e-01	1.052632e+00	-2.991555e-01
8.562911e-01	1.052632e+00	-2.916579e-01
8.054250e-01	1.052632e+00	-2.817457e-01
7.470317e-01	1.052632e+00	-2.699633e-01
6.809074e-01	1.052632e+00	-2.559818e-01
6.100852e-01	1.052632e+00	-2.403847e-01
5.354138e-01	1.052632e+00	-2.229691e-01
4.593635e-01	1.052632e+00	-2.042585e-01
3.837764e-01	1.052632e+00	-1.841224e-01
3.103069e-01	1.052632e+00	-1.630077e-01
2.415927e-01	1.052632e+00	-1.409228e-01
1.782654e-01	1.052632e+00	-1.183331e-01
1.234349e-01	1.052632e+00	-9.558566e-02
7.662509e-02	1.052632e+00	-7.318920e-02
4.106998e-02	1.052632e+00	-5.193053e-02
1.528206e-02	1.052632e+00	-3.215886e-02
2.347037e-03	1.052632e+00	-1.488740e-02
0.000000e+00	1.052632e+00	0.000000e+00
1.064939e-02	1.052632e+00	1.066461e-02
3.126595e-02	1.052632e+00	1.703450e-02
6.375031e-02	1.052632e+00	1.787236e-02
1.050105e-01	1.052632e+00	1.417221e-02
1.560448e-01	1.052632e+00	4.777214e-03
2.137742e-01	1.052632e+00	-9.048270e-03
2.782849e-01	1.052632e+00	-2.799567e-02
3.468570e-01	1.052632e+00	-5.051783e-02
4.187060e-01	1.052632e+00	-7.662000e-02
4.916930e-01	1.052632e+00	-1.047585e-01
5.642168e-01	1.052632e+00	-1.343226e-01
6.348639e-01	1.052632e+00	-1.641238e-01
7.013280e-01	1.052632e+00	-1.931337e-01
7.630418e-01	1.052632e+00	-2.206893e-01
8.172084e-01	1.052632e+00	-2.454799e-01
8.641863e-01	1.052632e+00	-2.673591e-01
9.009752e-01	1.052632e+00	-2.848204e-01
9.288372e-01	1.052632e+00	-2.982085e-01
9.448555e-01	1.052632e+00	-3.059908e-01
9.510565e-01	1.052632e+00	-3.090170e-01
9.510565e-01	2.105263e+00	-3.090170e-01
9.442611e-01	2.105263e+00	-3.078203e-01
9.267277e-01	2.105263e+00	-3.047010e-01
8.963175e-01	2.105263e+00	-2.991555e-01
8.562911e-01	2.105263e+00	-2.916579e-01
8.054250e-01	2.105263e+00	-2.817457e-01
7.470317e-01	2.105263e+00	-2.699633e-01
6.809074e-01	2.105263e+00	-2.559818e-01
6.100852e-01	2.105263e+00	-2.403847e-01
5.354138e-01	2.105263e+00	-2.229691e-01
4.593635e-01	2.105263e+00	-2.042585e-01
3.837764e-01	2.105263e+00	-1.841224e-01
3.103069e-01	2.105263e+00	-1.630077e-01
2.415927e-01	2.105263e+00	-1.409228e-01
1.782654e-01	2.105263e+00	-1.183331e-01
1.234349e-01	2.105263e+00	-9.558566e-02
7.662509e-02	2.105263e+00	-7.318920e-02
4.106998e-02	2.105263e+00	-5.193053e-02
1.528206e-02	2.105263e+00	-3.215886e-02
2.347037e-03	2.105263e+00	-1.488740e-02
0.000000e+00	2.105263e+00	0.000000e+00
1.064939e-02	2.105263e+00	1.066461e-02
3.126595e-02	2.105263e+00	1.703450e-02
6.375031e-02	2.105263e+00	1.787236e-02
1.050105e-01	2.105263e+00	1.417221e-02
1.560448e-01	2.105263e+00	4.777214e-03
2.137742e-01	2.105263e+00	-9.048270e-03
2.782849e-01	2.105263e+00	-2.799567e-02
3.468570e-01	2.105263e+00	-5.051783e-02
4.187060e-01	2.105263e+00	-7.662000e-02
4.916930e-01	2.105263e+00	-1.047585e-01
5.642168e-01	2.105263e+00	-1.343226e-01
6.348639e-01	2.105263e+00	-1.641238e-01
7.013280e-01	2.105263e+00	-1.931337e-01
7.630418e-01	2.105263e+00	-2.206893e-01
8.172084e-01	2.105263e+00	-2.454799e-01
8.641863e-01	2.105263e+00	-2.673591e-01
9.009752e-01	2.105263e+00	-2.848204e-01
9.288372e-01	2.105263e+00	-2.982085e-01
9.448555e-01	2.105263e+00	-3.059908e-01
9.510565e-01	2.105263e+00	-3.090170e-01
9.510565e-01	3.157895e+00	-3.090170e-01
9.442611e-01	3.157895e+00	-3.078203e-01
9.267277e-01	3.157895e+00	-3.047010e-01
8.963175e-01	3.157895e+00	-2.991555e-01
8.562911e-01	3.157895e+00	-2.916579e-01
8.054250e-01	3.157895e+00	-2.817457e-01
7.470317e-01	3.157895e+00	-2.699633e-01
6.809074e-01	3.157895e+00	-2.559818e-01
6.100852e-01	3.157895e+00	-2.403847e-01
5.354138e-01	3.157895e+00	-2.229691e-01
4.593635e-01	3.157895e+00	-2.042585e-01
3.837764e-01	3.157895e+00	-1.841224e-01
3.103069e-01	3.157895e+00	-1.630077e-01
2.415927e-01	3.157895e+00	-1.409228e-01
1.782654e-01	3.157895e+00	-1.183331e-01
1.234349e-01	3.157895e+00	-9.558566e-02
7.662509e-02	3.157895e+00	-7.318920e-02
4.106998e-02	3.157895e+00	-5.193053e-02
1.528206e-02	3.157895e+00	-3.215886e-02
2.347037e-03	3.157895e+00	-1.488740e-02
0.000000e+00	3.157895e+00	0.000000e+00
1.064939e-02	3.157895e+00	1.066461e-02
3.126595e-02	3.157895e+00	1.703450e-02
6.375031e-02	3.157895e+00	1.787236e-02
1.050105e-01	3.157895e+00	1.417221e-02
1.560448e-01	3.157895e+00	4.777214e-03
2.137742e-01	3.157895e+00	-9.048270e-03
2.782849e-01	3.157895e+00	-2.799567e-02
3.468570e-01	3.157895e+00	-5.051783e-02
4.187060e-01	3.157895e+00	-7.662000e-02
4.916930e-01	3.157895e+00	-1.047585e-01
5.642168e-01	3.157895e+00	-1.343226e-01
6.348639e-01	3.157895e+00	-1.641238e-01
7.013280e-01	3.157895e+00	-1.931337e-01
7.630418e-01	3.157895e+00	-2.206893e-01
8.172084e-01	3.157895e+00	-2.454799e-01
8.641863e-01	3.157895e+00	-2.673591e-01
9.009752e-01	3.157895e+00	-2.848204e-01
9.288372e-01	3.157895e+00	-2.982085e-01
9.448555e-01	3.157895e+00	-3.059908e-01
9.510565e-01	3.157895e+00	-3.090170e-01
9.510565e-01	4.210526e+00	-3.090170e-01
9.442611e-01	4.210526e+00	-3.078203e-01
9.267277e-01	4.210526e+00	-3.047010e-01
8.963175e-01	4.210526e+00	-2.991555e-01
8.562911e-01	4.210526e+00	-2.916579e-01
8.054250e-01	4.210526e+00	-2.817457e-01
7.470317e-01	4.210526e+00	-2.699633e-01
6.809074e-01	4.210526e+00	-2.559818e-01
6.100852e-01	4.210526e+00	-2.403847e-01
5.354138e-01	4.210526e+00	-2.229691e-01
4.593635e-01	4.210526e+00	-2.042585e-01
3.837764e-01	4.210526e+00	-1.841224e-01
3.103069e-01	4.210526e+00	-1.630077e-01
2.415927e-01	4.210526e+00	-1.409228e-01
1.782654e-01	4.210526e+00	-1.183331e-01
1.234349e-01	4.210526e+00	-9.558566e-02
7.662509e-02	4.210526e+00	-7.318920e-02
4.106998e-02	4.210526e+00	-5.193053e-02
1.528206e-02	4.210526e+00	-3.215886e-02
2.347037e-03	4.210526e+00	-1.488740e-02
0.000000e+00	4.210526e+00	0.000000e+00
1.064939e-02	4.210526e+00	1.066461e-02
3.126595e-02	4.210526e+00	1.703450e-02
6.375031e-02	4.210526e+00	1.787236e-02
1.050105e-01	4.210526e+00	1.417221e-02
1.560448e-01	4.210526e+00	4.777214e-03
2.137742e-01	4.210526e+00	-9.048270e-03
2.782849e-01	4.210526e+00	-2.799567e-02
3.468570e-01	4.210526e+00	-5.051783e-02
4.187060e-01	4.210526e+00	-7.662000e-02
4.916930e-01	4.210526e+00	-1.047585e-01
5.642168e-01	4.210526e+00	-1.343226e-01
6.348639e-01	4.210526e+00	-1.641238e-01
7.013280e-01	4.210526e+00	-1.931337e-01
7.630418e-01	4.210526e+00	-2.206893e-01
8.172084e-01	4.210526e+00	-2.454799e-01
8.641863e-01	4.210526e+00	-2.673591e-01
9.009752e-01	4.210526e+00	-2.848204e-01
9.288372e-01	4.210526e+00	-2.982085e-01
9.448555e-01	4.210526e+00	-3.059908e-01
9.510565e-01	4.210526e+00	-3.090170e-01
9.510565e-01	5.263158e+00	-3.090170e-01
9.442611e-01	5.263158e+00	-3.078203e-01
9.267277e-01	5.263158e+00	-3.047010e-01
8.963175e-01	5.263158e+00	-2.991555e-01
8.562911e-01	5.263158e+00	-2.916579e-01
8.054250e-01	5.263158e+00	-2.817457e-01
7.470317e-01	5.263158e+00	-2.699633e-01
6.809074e-01	5.263158e+00	-2.559818e-01
6.100852e-01	5.263158e+00	-2.403847e-01
5.354138e-01	5.263158e+00	-2.229691e-01
4.593635e-01	5.263158e+00	-2.042585e-01
3.837764e-01	5.263158e+00	-1.841224e-01
3.103069e-01	5.263158e+00	-1.630077e-01
2.415927e-01	5.263158e+00	-1.409228e-01
1.782654e-01	5.263158e+00	-1.183331e-01
1.234349e-01	5.263158e+00	-9.558566e-02
7.662509e-02	5.263158e+00	-7.318920e-02
4.106998e-02	5.263158e+00	-5.193053e-02
1.528206e-02	5.263158e+00	-3.215886e-02
2.347037e-03	5.263158e+00	-1.488740e-02
0.000000e+00	5.263158e+00	0.000000e+00
1.064939e-02	5.263158e+00	1.066461e-02
3.126595e-02	5.263158e+00	1.703450e-02
6.375031e-02	5.263158e+00	1.787236e-02
1.050105e-01	5.263158e+00	1.417221e-02
1.560448e-01	5.263158e+00	4.777214e-03
2.137742e-01	5.263158e+00	-9.048270e-03
2.782849e-01	5.263158e+00	-2.799567e-02
3.468570e-01	5.263158e+00	-5.051783e-02
4.187060e-01	5.263158e+00	-7.662000e-02
4.916930e-01	5.263158e+00	-1.047585e-01
5.642168e-01	5.263158e+00	-1.343226e-01
6.348639e-01	5.263158e+00	-1.641238e-01
7.013280e-01	5.263158e+00	-1.931337e-01
7.630418e-01	5.263158e+00	-2.206893e-01
8.172084e-01	5.263158e+00	-2.454799e-01
8.641863e-01	5.263158e+00	-2.673591e-01
9.009752e-01	5.263158e+00	-2.848204e-01
9.288372e-01	5.263158e+00	-2.982085e-01
9.448555e-01	5.263158e+00	-3.059908e-01
9.510565e-01	5.263158e+00	-3.090170e-01
9.510565e-01	6.315789e+00	-3.090170e-01
9.442611e-01	6.315789e+00	-3.078203e-01
[...]
CELL_DATA 760
VECTORS V double
8.414322e-01	-6.902399e-02	-1.481731e-01
8.655554e-01	-6.885042e-02	-1.539876e-01
8.835731e-01	-6.840069e-02	-1.611280e-01
8.953424e-01	-6.760635e-02	-1.677114e-01
8.978110e-01	-6.644550e-02	-1.749554e-01
8.991274e-01	-6.490052e-02	-1.814227e-01
8.920937e-01	-6.296109e-02	-1.886266e-01
8.847876e-01	-6.060317e-02	-1.948559e-01
8.704578e-01	-5.779830e-02	-2.030171e-01
8.548225e-01	-5.451396e-02	-2.103109e-01
8.295234e-01	-5.072467e-02	-2.209823e-01
7.986081e-01	-4.641626e-02	-2.295150e-01
7.512663e-01	-4.162167e-02	-2.414582e-01
6.892521e-01	-3.639206e-02	-2.458656e-01
6.026141e-01	-3.076536e-02	-2.500055e-01
4.719544e-01	-2.486431e-02	-2.258097e-01
2.702656e-01	-1.869690e-02	-1.615938e-01
-1.727658e-02	-1.242910e-02	1.324601e-02
-4.216495e-01	-5.862401e-03	5.630065e-01
-3.426298e-01	7.171537e-04	2.173321e+00
2.326767e+00	8.429186e-03	2.330092e+00
2.541493e+00	1.519305e-02	7.852439e-01
2.210415e+00	2.213838e-02	5.701261e-02
1.925429e+00	2.898493e-02	-1.726693e-01
1.720113e+00	3.597367e-02	-3.166591e-01
1.570351e+00	4.293951e-02	-3.760796e-01
1.435513e+00	4.987676e-02	-4.216233e-01
1.336707e+00	5.660692e-02	-4.390347e-01
1.250618e+00	6.301182e-02	-4.543394e-01
1.181683e+00	6.889360e-02	-4.555715e-01
1.121859e+00	7.413680e-02	-4.573222e-01
1.071606e+00	7.860433e-02	-4.520379e-01
1.027470e+00	8.223404e-02	-4.484648e-01
9.871980e-01	8.501823e-02	-4.407905e-01
9.499790e-01	8.700830e-02	-4.347786e-01
9.115288e-01	8.830218e-02	-4.245306e-01
8.743633e-01	8.902816e-02	-4.150018e-01
8.341902e-01	8.933529e-02	-4.008436e-01
7.910628e-01	8.937916e-02	-3.843288e-01
7.483123e-01	8.933347e-02	-3.651835e-01
8.268670e-01	-4.833900e-02	-1.456083e-01
8.473578e-01	-4.821471e-02	-1.507502e-01
8.618239e-01	-4.789623e-02	-1.571618e-01
8.705139e-01	-4.733248e-02	-1.630606e-01
8.702696e-01	-4.650083e-02	-1.695884e-01
8.688901e-01	-4.538245e-02	-1.753215e-01
8.588961e-01	-4.396668e-02	-1.816072e-01
8.480322e-01	-4.223851e-02	-1.867613e-01
8.293681e-01	-4.018315e-02	-1.934337e-01
8.083869e-01	-3.778544e-02	-1.988865e-01
7.766075e-01	-3.501570e-02	-2.068856e-01
7.379570e-01	-3.192424e-02	-2.120843e-01
6.816630e-01	-2.848856e-02	-2.190876e-01
6.086245e-01	-2.476369e-02	-2.171046e-01
5.088405e-01	-2.077556e-02	-2.111018e-01
3.608606e-01	-1.660721e-02	-1.726561e-01
1.374785e-01	-1.226040e-02	-8.219945e-02
-1.813687e-01	-7.848531e-03	1.390559e-01
-6.030512e-01	-3.231739e-03	8.052228e-01
-4.197840e-01	1.387097e-03	2.662715e+00
2.682227e+00	6.786501e-03	2.686060e+00
2.843879e+00	1.150189e-02	8.786720e-01
2.433114e+00	1.631537e-02	6.275662e-02
2.097239e+00	2.102404e-02	-1.880769e-01
1.860415e+00	2.578661e-02	-3.424875e-01
1.689594e+00	3.048342e-02	-4.046368e-01
1.539022e+00	3.510866e-02	-4.520250e-01
1.427776e+00	3.954419e-02	-4.689460e-01
1.330693e+00	4.371817e-02	-4.834300e-01
1.251884e+00	4.752295e-02	-4.826357e-01
1.182653e+00	5.084822e-02	-4.821045e-01
1.123325e+00	5.366519e-02	-4.738547e-01
1.070383e+00	5.592418e-02	-4.671954e-01
1.021734e+00	5.762963e-02	-4.562112e-01
9.765853e-01	5.882279e-02	-4.469556e-01
9.307575e-01	5.957449e-02	-4.334861e-01
8.867483e-01	5.997312e-02	-4.208801e-01
8.402933e-01	6.011947e-02	-4.037762e-01
7.917028e-01	6.011581e-02	-3.846398e-01
7.448133e-01	6.007251e-02	-3.634760e-01
8.205732e-01	-2.042012e-02	-1.444999e-01
8.397345e-01	-2.036929e-02	-1.493940e-01
8.527207e-01	-2.023639e-02	-1.555017e-01
8.598828e-01	-1.999938e-02	-1.610692e-01
8.580957e-01	-1.964000e-02	-1.672161e-01
8.551333e-01	-1.914154e-02	-1.725457e-01
8.435143e-01	-1.849421e-02	-1.783549e-01
8.309156e-01	-1.769270e-02	-1.829918e-01
8.103618e-01	-1.670986e-02	-1.890009e-01
7.869779e-01	-1.559532e-02	-1.936192e-01
7.529171e-01	-1.431687e-02	-2.005746e-01
7.116294e-01	-1.290730e-02	-2.045179e-01
6.518176e-01	-1.135081e-02	-2.094952e-01
5.746728e-01	-9.683589e-03	-2.049936e-01
4.699002e-01	-7.915691e-03	-1.949467e-01
3.151698e-01	-6.079561e-03	-1.507951e-01
8.319583e-02	-4.171915e-03	-4.974340e-02
-2.481661e-01	-2.240657e-03	1.902696e-01
-6.765689e-01	-2.249226e-04	9.033871e-01
-4.508238e-01	1.783377e-03	2.859603e+00
2.823323e+00	4.112510e-03	2.827358e+00
2.961601e+00	6.120519e-03	9.150443e-01
2.517735e+00	8.134046e-03	6.493923e-02
2.160536e+00	1.005796e-02	-1.937533e-01
1.910237e+00	1.194852e-02	-3.516593e-01
1.730198e+00	1.375220e-02	-4.143610e-01
1.572717e+00	1.546441e-02	-4.619214e-01
1.456070e+00	1.704458e-02	-4.782390e-01
1.354609e+00	1.847527e-02	-4.921184e-01
1.271661e+00	1.974215e-02	-4.902605e-01
1.198767e+00	2.080838e-02	-4.886733e-01
1.136457e+00	2.166869e-02	-4.793942e-01
1.080532e+00	2.230578e-02	-4.716253e-01
1.029155e+00	2.277780e-02	-4.595246e-01
9.815239e-01	2.308053e-02	-4.492159e-01
9.334816e-01	2.324601e-02	-4.347548e-01
8.875208e-01	2.330945e-02	-4.212468e-01
8.394014e-01	2.330839e-02	-4.033477e-01
7.894790e-01	2.327992e-02	-3.835594e-01
7.416803e-01	2.325281e-02	-3.619470e-01
8.183365e-01	-1.022190e-02	-1.441061e-01
8.366187e-01	-1.020085e-02	-1.488396e-01
8.488795e-01	-1.014453e-02	-1.548013e-01
8.553337e-01	-1.003867e-02	-1.602171e-01
8.527742e-01	-9.873421e-03	-1.661791e-01
8.489822e-01	-9.625469e-03	-1.713046e-01
8.365015e-01	-9.312684e-03	-1.768721e-01
8.226136e-01	-8.915102e-03	-1.811634e-01
8.010706e-01	-8.441620e-03	-1.868339e-01
7.769693e-01	-7.877504e-03	-1.911568e-01
7.414736e-01	-7.237731e-03	-1.975261e-01
6.984297e-01	-6.499644e-03	-2.007244e-01
6.368822e-01	-5.693758e-03	-2.046950e-01
5.575826e-01	-4.817928e-03	-1.988973e-01
4.501874e-01	-3.883589e-03	-1.867685e-01
2.919173e-01	-2.907869e-03	-1.396698e-01
5.547417e-02	-1.894091e-03	-3.316842e-02
-2.823260e-01	-8.603552e-04	2.164601e-01
-7.141686e-01	2.201146e-04	9.535920e-01
-4.666599e-01	1.281126e-03	2.960052e+00
2.894904e+00	2.523084e-03	2.899040e+00
3.020857e+00	3.601051e-03	9.333528e-01
2.559951e+00	4.659505e-03	6.602811e-02
2.191767e+00	5.662246e-03	-1.965541e-01
1.934557e+00	6.641574e-03	-3.561364e-01
1.749810e+00	7.561444e-03	-4.190579e-01
1.588831e+00	8.425665e-03	-4.666543e-01
1.469493e+00	9.215326e-03	-4.826478e-01
1.365841e+00	9.931358e-03	-4.961991e-01
1.281323e+00	1.055056e-02	-4.939854e-01
1.206778e+00	1.108924e-02	-4.919391e-01
1.142471e+00	1.152076e-02	-4.819308e-01
1.085232e+00	1.185901e-02	-4.736767e-01
1.032971e+00	1.209730e-02	-4.612286e-01
9.842123e-01	1.225748e-02	-4.504463e-01
9.351806e-01	1.233855e-02	-4.355461e-01
8.883578e-01	1.238256e-02	-4.216441e-01
8.395535e-01	1.239278e-02	-4.034208e-01
7.890923e-01	1.238596e-02	-3.833715e-01
7.406617e-01	1.237729e-02	-3.614500e-01
8.170399e-01	-5.647964e-03	-1.438777e-01
8.352004e-01	-5.635850e-03	-1.485873e-01
8.470209e-01	-5.606906e-03	-1.544623e-01
8.529701e-01	-5.548545e-03	-1.597744e-01
8.496394e-01	-5.453149e-03	-1.655682e-01
8.453997e-01	-5.313474e-03	-1.705817e-01
8.325273e-01	-5.142549e-03	-1.760317e-01
8.185127e-01	-4.923089e-03	-1.802603e-01
7.963562e-01	-4.658291e-03	-1.857343e-01
7.711725e-01	-4.316742e-03	-1.897306e-01
7.349101e-01	-3.932091e-03	-1.957776e-01
6.910512e-01	-3.496162e-03	-1.986039e-01
6.284621e-01	-3.024884e-03	-2.019887e-01
5.477797e-01	-2.604690e-03	-1.954005e-01
4.388207e-01	-2.061505e-03	-1.820528e-01
2.785324e-01	-1.454119e-03	-1.332657e-01
3.947637e-02	-8.447897e-04	-2.360321e-02
-3.022377e-01	-2.252897e-04	2.317265e-01
-7.357901e-01	4.224264e-04	9.824622e-01
-4.756923e-01	1.067008e-03	3.017345e+00
2.937151e+00	1.810150e-03	2.941349e+00
3.055417e+00	2.444835e-03	9.440308e-01
2.584087e+00	3.073159e-03	6.665063e-02
2.209637e+00	3.663850e-03	-1.981566e-01
1.948326e+00	4.233349e-03	-3.586713e-01
1.760743e+00	4.756558e-03	-4.216763e-01
1.597732e+00	5.242117e-03	-4.692685e-01
1.476933e+00	5.785657e-03	-4.850913e-01
1.372002e+00	6.189521e-03	-4.984374e-01
1.286273e+00	6.527222e-03	-4.958938e-01
1.210916e+00	6.807345e-03	-4.936260e-01
1.146294e+00	7.036969e-03	-4.835436e-01
1.088257e+00	7.234552e-03	-4.749970e-01
1.034928e+00	7.376635e-03	-4.621024e-01
9.854627e-01	7.474176e-03	-4.510185e-01
9.358664e-01	7.521881e-03	-4.358655e-01
8.888553e-01	7.544279e-03	-4.218802e-01
8.396035e-01	7.549539e-03	-4.034448e-01
7.887852e-01	7.543720e-03	-3.832223e-01
7.403527e-01	7.539781e-03	-3.612992e-01
8.163035e-01	-3.304513e-03	-1.437481e-01
8.342440e-01	-3.297727e-03	-1.484172e-01
8.457939e-01	-3.279777e-03	-1.542386e-01
8.514027e-01	-3.245497e-03	-1.594808e-01
8.479686e-01	-3.212970e-03	-1.652426e-01
8.435960e-01	-3.126340e-03	-1.702177e-01
8.304621e-01	-3.003930e-03	-1.755951e-01
8.157169e-01	-2.856148e-03	-1.796446e-01
7.928800e-01	-2.669084e-03	-1.849236e-01
7.674355e-01	-2.434726e-03	-1.888112e-01
7.307490e-01	-2.193849e-03	-1.946691e-01
6.863372e-01	-1.967130e-03	-1.972491e-01
6.244624e-01	-1.652304e-03	-2.007032e-01
5.433361e-01	-1.432894e-03	-1.938154e-01
4.315072e-01	-1.067278e-03	-1.790187e-01
2.694762e-01	-6.887984e-04	-1.289327e-01
2.923113e-02	-2.925867e-04	-1.747751e-02
-3.147347e-01	1.025374e-04	2.413080e-01
-7.498576e-01	5.142139e-04	1.001246e+00
-4.816653e-01	9.374718e-04	3.055232e+00
2.962411e+00	1.409088e-03	2.966644e+00
3.076366e+00	1.797332e-03	9.505034e-01
2.599168e+00	2.194630e-03	6.703962e-02
2.220487e+00	2.565607e-03	-1.991296e-01
1.956450e+00	2.916505e-03	-3.601669e-01
1.767074e+00	3.244019e-03	-4.231925e-01
1.604473e+00	3.658684e-03	-4.712484e-01
1.482579e+00	3.916917e-03	-4.869458e-01
1.375498e+00	4.161362e-03	-4.997074e-01
1.289119e+00	4.381776e-03	-4.969908e-01
1.213161e+00	4.548908e-03	-4.945411e-01
1.147925e+00	4.657393e-03	-4.842316e-01
1.089782e+00	4.755457e-03	-4.756625e-01
1.036441e+00	4.835161e-03	-4.627780e-01
9.865859e-01	4.888906e-03	-4.515326e-01
9.365249e-01	4.962168e-03	-4.361722e-01
8.890382e-01	4.964856e-03	-4.219670e-01
8.396007e-01	4.963301e-03	-4.034435e-01
7.886090e-01	4.959560e-03	-3.831367e-01
7.400586e-01	4.956314e-03	-3.611557e-01
8.159010e-01	-2.029374e-03	-1.436772e-01
8.337527e-01	-2.025328e-03	-1.483297e-01
8.451830e-01	-2.015106e-03	-1.541271e-01
8.513185e-01	-1.996442e-03	-1.594650e-01
8.471447e-01	-1.966239e-03	-1.650821e-01
8.417578e-01	-2.010086e-03	-1.698469e-01
8.283535e-01	-1.887783e-03	-1.751492e-01
8.137404e-01	-1.782826e-03	-1.792093e-01
7.906651e-01	-1.683586e-03	-1.844070e-01
7.649348e-01	-1.542197e-03	-1.881960e-01
7.287955e-01	-1.385863e-03	-1.941487e-01
6.838507e-01	-1.215215e-03	-1.965345e-01
6.209904e-01	-1.015410e-03	-1.995873e-01
5.391798e-01	-7.360749e-04	-1.923328e-01
4.267098e-01	-5.012596e-04	-1.770284e-01
2.642709e-01	-2.944722e-04	-1.264422e-01
2.255753e-02	-5.083729e-05	-1.348731e-02
-3.228772e-01	1.714148e-04	2.475509e-01
-7.587714e-01	4.309745e-04	1.013148e+00
-4.853977e-01	6.876517e-04	3.078907e+00
2.979144e+00	9.824653e-04	2.983401e+00
3.090059e+00	1.232432e-03	9.547340e-01
2.608790e+00	1.472865e-03	6.728778e-02
2.227486e+00	1.730801e-03	-1.997573e-01
1.961929e+00	1.950384e-03	-3.611754e-01
1.773572e+00	2.163502e-03	-4.247487e-01
1.607817e+00	2.361123e-03	-4.722306e-01
1.483903e+00	2.462013e-03	-4.873805e-01
1.378060e+00	2.606260e-03	-5.006382e-01
1.291162e+00	2.742376e-03	-4.977785e-01
1.214369e+00	2.855025e-03	-4.950337e-01
1.148930e+00	2.945279e-03	-4.846555e-01
1.090634e+00	3.043603e-03	-4.760343e-01
1.036862e+00	3.108907e-03	-4.629656e-01
9.874717e-01	3.229547e-03	-4.519380e-01
9.373969e-01	3.221092e-03	-4.365783e-01
8.888934e-01	3.215188e-03	-4.218983e-01
8.394550e-01	3.212266e-03	-4.033734e-01
7.884521e-01	3.209029e-03	-3.830605e-01
7.398556e-01	3.206741e-03	-3.610566e-01
8.156245e-01	-1.104129e-03	-1.436285e-01
8.334133e-01	-1.101087e-03	-1.482694e-01
8.447811e-01	-1.091550e-03	-1.540539e-01
8.501541e-01	-1.098715e-03	-1.592469e-01
8.483803e-01	-1.049945e-03	-1.653229e-01
8.420553e-01	-1.033222e-03	-1.699069e-01
8.269803e-01	-9.980958e-04	-1.748589e-01
8.128199e-01	-9.743301e-04	-1.790066e-01
7.896265e-01	-9.854260e-04	-1.841648e-01
7.635270e-01	-9.086290e-04	-1.878496e-01
7.264751e-01	-8.083896e-04	-1.935305e-01
6.814032e-01	-6.876290e-04	-1.958311e-01
6.178346e-01	-5.761681e-04	-1.985730e-01
5.356536e-01	-3.420578e-04	-1.910749e-01
4.242822e-01	-2.520200e-04	-1.760213e-01
2.612275e-01	-1.239733e-04	-1.249860e-01
1.921888e-02	1.323597e-05	-1.149111e-02
-3.269473e-01	1.552279e-04	2.506715e-01
-7.641236e-01	3.046208e-04	1.020294e+00
-4.876305e-01	4.534870e-04	3.093070e+00
2.989085e+00	6.248192e-04	2.993357e+00
3.097856e+00	7.703693e-04	9.571430e-01
2.615372e+00	9.134425e-04	6.745756e-02
2.232222e+00	1.047045e-03	-2.001820e-01
1.965141e+00	1.174637e-03	-3.617667e-01
1.774104e+00	1.294480e-03	-4.248759e-01
1.608927e+00	1.321549e-03	-4.725566e-01
1.486000e+00	1.433161e-03	-4.880694e-01
1.379154e+00	1.540218e-03	-5.010354e-01
1.292257e+00	1.596674e-03	-4.982008e-01
1.215702e+00	1.659731e-03	-4.955769e-01
1.150327e+00	1.800683e-03	-4.852450e-01
1.091976e+00	1.816804e-03	-4.766203e-01
1.039072e+00	1.853047e-03	-4.639524e-01
9.885150e-01	1.856726e-03	-4.524155e-01
9.362541e-01	1.829868e-03	-4.360461e-01
8.888283e-01	1.839131e-03	-4.218674e-01
8.394151e-01	1.864153e-03	-4.033543e-01
7.883371e-01	1.861393e-03	-3.830046e-01
7.397083e-01	1.859965e-03	-3.609847e-01
8.153905e-01	-1.372730e-03	-1.435873e-01
8.330028e-01	-1.372912e-03	-1.481963e-01
8.452098e-01	-1.374059e-03	-1.541320e-01
8.501097e-01	-1.357444e-03	-1.592386e-01
8.458882e-01	-1.318042e-03	-1.648372e-01
8.408437e-01	-1.273257e-03	-1.696624e-01
8.274563e-01	-1.141244e-03	-1.749595e-01
8.135760e-01	-1.200783e-03	-1.791731e-01
7.897572e-01	-9.788265e-04	-1.841953e-01
7.626097e-01	-1.026274e-03	-1.876239e-01
7.259077e-01	-6.681708e-04	-1.933794e-01
6.807504e-01	-7.548528e-04	-1.956435e-01
6.162393e-01	-3.179539e-04	-1.980603e-01
5.342528e-01	-3.799287e-04	-1.905753e-01
4.231963e-01	7.985996e-05	-1.755707e-01
2.593928e-01	4.170054e-04	-1.241082e-01
1.660102e-02	6.090013e-04	-9.925871e-03
-3.303255e-01	6.545715e-04	2.532615e-01
-7.670072e-01	7.006891e-04	1.024145e+00
-4.888605e-01	7.609023e-04	3.100872e+00
2.994662e+00	8.409767e-04	2.998941e+00
3.102735e+00	9.183878e-04	9.586504e-01
2.617686e+00	1.013821e-03	6.751724e-02
2.233948e+00	1.094609e-03	-2.003368e-01
1.966891e+00	1.027949e-03	-3.620889e-01
1.775990e+00	8.090750e-04	-4.253278e-01
1.609981e+00	4.605880e-04	-4.728662e-01
1.486935e+00	6.242296e-04	-4.883765e-01
1.380180e+00	3.076728e-04	-5.014084e-01
1.292671e+00	4.382752e-04	-4.983603e-01
1.216918e+00	1.448408e-04	-4.960726e-01
1.150963e+00	2.976021e-04	-4.855131e-01
1.091323e+00	4.182829e-05	-4.763352e-01
1.037457e+00	1.037694e-04	-4.632316e-01
9.871335e-01	-1.049771e-04	-4.517832e-01
9.370084e-01	-5.302743e-05	-4.363974e-01
8.896293e-01	-7.128321e-05	-4.222475e-01
8.402934e-01	-7.838711e-05	-4.037763e-01
7.882367e-01	-7.364347e-05	-3.829558e-01
7.396370e-01	-7.261770e-05	-3.609499e-01
8.156549e-01	3.645716e-05	-1.436339e-01
8.334971e-01	1.884748e-05	-1.482843e-01
8.441551e-01	1.726088e-05	-1.539397e-01
8.486926e-01	3.863877e-05	-1.589732e-01
8.466786e-01	3.629157e-05	-1.649913e-01
8.389103e-01	3.518724e-05	-1.692723e-01
8.260085e-01	3.372189e-05	-1.746534e-01
8.103881e-01	3.452811e-05	-1.784710e-01
7.873441e-01	7.744792e-05	-1.836325e-01
7.594235e-01	6.608425e-05	-1.868400e-01
7.228914e-01	5.815724e-05	-1.925758e-01
6.768712e-01	5.738008e-05	-1.945286e-01
6.123990e-01	-2.399969e-06	-1.968260e-01
5.301094e-01	9.408053e-07	-1.890973e-01
4.111679e-01	3.245843e-05	-1.705806e-01
2.512304e-01	1.368366e-07	-1.202028e-01
1.377664e-02	3.637259e-06	-8.237157e-03
-3.292984e-01	6.331705e-06	2.524740e-01
-7.669790e-01	7.696378e-06	1.024107e+00
-4.891284e-01	8.082884e-06	3.102571e+00
2.996886e+00	7.819592e-06	3.001169e+00
3.105622e+00	7.140718e-06	9.595426e-01
2.620994e+00	5.952064e-06	6.760256e-02
2.232147e+00	3.840002e-06	-2.001753e-01
1.959129e+00	3.614167e-05	-3.606599e-01
1.764227e+00	3.216725e-05	-4.225105e-01
1.606500e+00	-2.115115e-06	-4.718438e-01
1.483665e+00	4.881670e-05	-4.873025e-01
1.376844e+00	3.507509e-05	-5.001965e-01
1.290169e+00	2.579774e-05	-4.973959e-01
1.213914e+00	2.019621e-05	-4.948479e-01
1.149113e+00	-2.262633e-05	-4.847329e-01
1.089260e+00	-1.897781e-05	-4.754348e-01
1.037153e+00	-1.980791e-05	-4.630957e-01
9.857341e-01	-1.870867e-05	-4.511427e-01
9.369998e-01	-1.872218e-05	-4.363934e-01
8.882177e-01	-1.758217e-05	-4.215776e-01
8.392746e-01	-3.995529e-05	-4.032868e-01
7.886625e-01	-3.883488e-05	-3.831627e-01
7.398654e-01	-2.132324e-05	-3.610613e-01
8.183458e-01	1.454681e-03	-1.441077e-01
8.337146e-01	1.455031e-03	-1.483230e-01
8.444073e-01	1.456829e-03	-1.539857e-01
8.497126e-01	1.442072e-03	-1.591642e-01
8.459553e-01	1.405220e-03	-1.648503e-01
8.408884e-01	1.450667e-03	-1.696714e-01
8.274647e-01	1.275965e-03	-1.749613e-01
8.129363e-01	1.333535e-03	-1.790322e-01
7.893459e-01	1.062048e-03	-1.840993e-01
7.628627e-01	1.113185e-03	-1.876862e-01
7.260220e-01	7.638038e-04	-1.934098e-01
6.815425e-01	7.761166e-04	-1.958711e-01
6.170522e-01	3.431717e-04	-1.983216e-01
5.337544e-01	4.317978e-04	-1.903975e-01
4.231423e-01	-6.159449e-05	-1.755483e-01
2.599827e-01	-3.976577e-04	-1.243905e-01
1.646659e-02	-5.901386e-04	-9.845495e-03
-3.304351e-01	-6.110944e-04	2.533456e-01
-7.670611e-01	-6.869542e-04	1.024217e+00
-4.888631e-01	-7.475986e-04	3.100889e+00
2.994612e+00	-8.303595e-04	2.998891e+00
3.102648e+00	-8.821917e-04	9.586236e-01
2.617574e+00	-9.771646e-04	6.751436e-02
2.234796e+00	-1.090732e-03	-2.004129e-01
1.967396e+00	-1.028352e-03	-3.621819e-01
1.775300e+00	-7.814830e-04	-4.251625e-01
1.610296e+00	-4.406582e-04	-4.729586e-01
1.487423e+00	-6.404672e-04	-4.885366e-01
1.379881e+00	-3.360073e-04	-5.012997e-01
1.292483e+00	-4.006452e-04	-4.982880e-01
1.216314e+00	-1.214192e-04	-4.958265e-01
1.150452e+00	-2.229732e-04	-4.852976e-01
1.091363e+00	-1.460679e-05	-4.763524e-01
1.037460e+00	-1.221605e-04	-4.632327e-01
9.871520e-01	-2.210675e-05	-4.517917e-01
9.370273e-01	-5.007440e-05	-4.364062e-01
8.892135e-01	-2.071875e-05	-4.220502e-01
8.395106e-01	-1.112471e-05	-4.034001e-01
7.888551e-01	-1.532430e-05	-3.832563e-01
7.423188e-01	-1.629909e-05	-3.622587e-01
8.155961e-01	1.195800e-03	-1.436235e-01
8.333634e-01	1.210530e-03	-1.482605e-01
8.446902e-01	1.203348e-03	-1.540373e-01
8.500426e-01	1.197729e-03	-1.592260e-01
8.463531e-01	1.086443e-03	-1.649278e-01
8.413876e-01	1.062283e-03	-1.697721e-01
8.276367e-01	9.890620e-04	-1.749977e-01
8.135724e-01	9.710630e-04	-1.791723e-01
7.902306e-01	9.460074e-04	-1.843057e-01
7.633638e-01	8.672029e-04	-1.878095e-01
7.273268e-01	7.785510e-04	-1.937574e-01
6.823635e-01	7.081411e-04	-1.961071e-01
6.174191e-01	6.277590e-04	-1.984395e-01
5.357137e-01	4.787930e-04	-1.910964e-01
4.248486e-01	3.443127e-04	-1.762562e-01
2.612139e-01	2.373302e-04	-1.249795e-01
1.876544e-02	8.896918e-05	-1.122000e-02
-3.270397e-01	-6.138852e-05	2.507423e-01
-7.631251e-01	-2.172457e-04	1.018961e+00
-4.876007e-01	-3.713466e-04	3.092881e+00
2.990469e+00	-5.480658e-04	2.994743e+00
3.098775e+00	-6.979398e-04	9.574271e-01
2.614155e+00	-8.449751e-04	6.742616e-02
2.231385e+00	-9.813781e-04	-2.001069e-01
1.965675e+00	-1.145541e-03	-3.618651e-01
1.774413e+00	-1.263174e-03	-4.249500e-01
1.608241e+00	-1.371574e-03	-4.723553e-01
1.485341e+00	-1.501998e-03	-4.878529e-01
1.379877e+00	-1.586343e-03	-5.012981e-01
1.292905e+00	-1.650594e-03	-4.984504e-01
1.216161e+00	-1.703639e-03	-4.957640e-01
1.150400e+00	-1.780222e-03	-4.852756e-01
1.090736e+00	-1.802020e-03	-4.760789e-01
1.036901e+00	-1.808030e-03	-4.629832e-01
9.870212e-01	-1.830012e-03	-4.517318e-01
9.369272e-01	-1.851480e-03	-4.363596e-01
8.891631e-01	-1.769179e-03	-4.220263e-01
8.395187e-01	-1.779642e-03	-4.034040e-01
7.883723e-01	-1.779410e-03	-3.830217e-01
7.397161e-01	-1.795928e-03	-3.609885e-01
8.158738e-01	1.718768e-03	-1.436724e-01
8.336951e-01	1.707875e-03	-1.483195e-01
8.448225e-01	1.584294e-03	-1.540614e-01
8.529463e-01	1.677159e-03	-1.597699e-01
8.485151e-01	1.704836e-03	-1.653491e-01
8.426218e-01	1.714511e-03	-1.700212e-01
8.288263e-01	1.673698e-03	-1.752492e-01
8.135508e-01	1.611617e-03	-1.791675e-01
7.907593e-01	1.541706e-03	-1.844290e-01
7.650611e-01	1.421473e-03	-1.882271e-01
7.281031e-01	1.275264e-03	-1.939642e-01
6.835513e-01	1.191510e-03	-1.964484e-01
6.202111e-01	9.860692e-04	-1.993369e-01
5.379825e-01	7.888128e-04	-1.919057e-01