# vtk DataFile Version 2.0
OUTPUT by 3D-VPM
ASCII
DATASET UNSTRUCTURED_GRID
POINTS 820 double
9.510565e-01	0.000000e+00	-3.090170e-01
9.442611e-01	0.000000e+00	-3.078203e-01
9.267277e-01	0.000000e+00	-3.047010e-01
8.963175e-01	0.000000e+00	-2.991555e-01
8.562911e-01	0.000000e+00	-2.916579e-01
8.054250e-01	0.000000e+00	-2.817457e-01
7.470317e-01	0.000000e+00	-2.699633e-01
6.809074e-01	0.000000e+00	-2.559818e-01
6.100852e-01	0.000000e+00	-2.403847e-01
5.354138e-01	0.000000e+00	-2.229691e-01
4.593635e-01	0.000000e+00	-2.042585e-01
3.837764e-01	0.000000e+00	-1.841224e-01
3.103069e-01	0.000000e+00	-1.630077e-01
2.415927e-01	0.000000e+00	-1.409228e-01
1.782654e-01	0.000000e+00	-1.183331e-01
1.234349e-01	0.000000e+00	-9.558566e-02
7.662509e-02	0.000000e+00	-7.318920e-02
4.106998e-02	0.000000e+00	-5.193053e-02
1.528206e-02	0.000000e+00	-3.215886e-02
2.347037e-03	0.000000e+00	-1.488740e-02
0.000000e+00	0.000000e+00	0.000000e+00
1.064939e-02	0.000000e+00	1.066461e-02
3.126595e-02	0.000000e+00	1.703450e-02
6.375031e-02	0.000000e+00	1.787236e-02
1.050105e-01	0.000000e+00	1.417221e-02
1.560448e-01	0.000000e+00	4.777214e-03
2.137742e-01	0.000000e+00	-9.048270e-03
2.782849e-01	0.000000e+00	-2.799567e-02
3.468570e-01	0.000000e+00	-5.051783e-02
4.187060e-01	0.000000e+00	-7.662000e-02
4.916930e-01	0.000000e+00	-1.047585e-01
5.642168e-01	0.000000e+00	-1.343226e-01
6.348639e-01	0.000000e+00	-1.641238e-01
7.013280e-01	0.000000e+00	-1.931337e-01
7.630418e-01	0.000000e+00	-2.206893e-01
8.172084e-01	0.000000e+00	-2.454799e-01
8.641863e-01	0.000000e+00	-2.673591e-01
9.009752e-01	0.000000e+00	-2.848204e-01
9.288372e-01	0.000000e+00	-2.982085e-01
9.448555e-01	0.000000e+00	-3.059908e-01
9.510565e-01	0.000000e+00	-3.090170e-01
9.510565e-01	1.052632e+00	-3.090170e-01
9.442611e-01	1.052632e+00	-3.078203e-01
9.267277e-01	1.052632e+00	-3.047010e-01
8.963175e-01	1.052632e+00	-2.991555e-01
8.562911e-01	1.052632e+00	-2.916579e-01
8.054250e-01	1.052632e+00	-2.817457e-01
7.470317e-01	1.052632e+00	-2.699633e-01
6.809074e-01	1.052632e+00	-2.559818e-01
6.100852e-01	1.052632e+00	-2.403847e-01
5.354138e-01	1.052632e+00	-2.229691e-01
4.593635e-01	1.052632e+00	-2.042585e-01
3.837764e-01	1.052632e+00	-1.841224e-01
3.103069e-01	1.052632e+00	-1.630077e-01
2.415927e-01	1.052632e+00	-1.409228e-01
1.782654e-01	1.052632e+00	-1.183331e-01
1.234349e-01	1.052632e+00	-9.558566e-02
7.662509e-02	1.052632e+00	-7.318920e-02
4.106998e-02	1.052632e+00	-5.193053e-02
1.528206e-02	1.052632e+00	-3.215886e-02
2.347037e-03	1.052632e+00	-1.488740e-02
0.000000e+00	1.052632e+00	0.000000e+00
1.064939e-02	1.052632e+00	1.066461e-02
3.126595e-02	1.052632e+00	1.703450e-02
6.375031e-02	1.052632e+00	1.787236e-02
1.050105e-01	1.052632e+00	1.417221e-02
1.560448e-01	1.052632e+00	4.777214e-03
2.137742e-01	1.052632e+00	-9.048270e-03
2.782849e-01	1.052632e+00	-2.799567e-02
3.468570e-01	1.052632e+00	-5.051783e-02
4.187060e-01	1.052632e+00	-7.662000e-02
4.916930e-01	1.052632e+00	-1.047585e-01
5.642168e-01	1.052632e+00	-1.343226e-01
6.348639e-01	1.052632e+00	-1.641238e-01
7.013280e-01	1.052632e+00	-1.931337e-01
7.630418e-01	1.052632e+00	-2.206893e-01
8.172084e-01	1.052632e+00	-2.454799e-01
8.641863e-01	1.052632e+00	-2.673591e-01
9.009752e-01	1.052632e+00	-2.848204e-01
9.288372e-01	1.052632e+00	-2.982085e-01
9.448555e-01	1.052632e+00	-3.059908e-01
9.510565e-01	1.052632e+00	-3.090170e-01
9.510565e-01	2.105263e+00	-3.090170e-01
9.442611e-01	2.105263e+00	-3.078203e-01
9.267277e-01	2.105263e+00	-3.047010e-01
8.963175e-01	2.105263e+00	-2.991555e-01
8.562911e-01	2.105263e+00	-2.916579e-01
8.054250e-01	2.105263e+00	-2.817457e-01
7.470317e-01	2.105263e+00	-2.699633e-01
6.809074e-01	2.105263e+00	-2.559818e-01
6.100852e-01	2.105263e+00	-2.403847e-01
5.354138e-01	2.105263e+00	-2.229691e-01
4.593635e-01	2.105263e+00	-2.042585e-01
3.837764e-01	2.105263e+00	-1.841224e-01
3.103069e-01	2.105263e+00	-1.630077e-01
2.415927e-01	2.105263e+00	-1.409228e-01
1.782654e-01	2.105263e+00	-1.183331e-01
1.234349e-01	2.105263e+00	-9.558566e-02
7.662509e-02	2.105263e+00	-7.318920e-02
4.106998e-02	2.105263e+00	-5.193053e-02
1.528206e-02	2.105263e+00	-3.215886e-02
2.347037e-03	2.105263e+00	-1.488740e-02
0.000000e+00	2.105263e+00	0.000000e+00
1.064939e-02	2.105263e+00	1.066461e-02
3.126595e-02	2.105263e+00	1.703450e-02
6.375031e-02	2.105263e+00	1.787236e-02
1.050105e-01	2.105263e+00	1.417221e-02
1.560448e-01	2.105263e+00	4.777214e-03
2.137742e-01	2.105263e+00	-9.048270e-03
2.782849e-01	2.105263e+00	-2.799567e-02
3.468570e-01	2.105263e+00	-5.051783e-02
4.187060e-01	2.105263e+00	-7.662000e-02
4.916930e-01	2.105263e+00	-1.047585e-01
5.642168e-01	2.105263e+00	-1.343226e-01
6.348639e-01	2.105263e+00	-1.641238e-01
7.013280e-01	2.105263e+00	-1.931337e-01
7.630418e-01	2.105263e+00	-2.206893e-01
8.172084e-01	2.105263e+00	-2.454799e-01
8.641863e-01	2.105263e+00	-2.673591e-01
9.009752e-01	2.105263e+00	-2.848204e-01
9.288372e-01	2.105263e+00	-2.982085e-01
9.448555e-01	2.105263e+00	-3.059908e-01
9.510565e-01	2.105263e+00	-3.090170e-01
9.510565e-01	3.157895e+00	-3.090170e-01
9.442611e-01	3.157895e+00	-3.078203e-01
9.267277e-01	3.157895e+00	-3.047010e-01
8.963175e-01	3.157895e+00	-2.991555e-01
8.562911e-01	3.157895e+00	-2.916579e-01
8.054250e-01	3.157895e+00	-2.817457e-01
7.470317e-01	3.157895e+00	-2.699633e-01
6.809074e-01	3.157895e+00	-2.559818e-01
6.100852e-01	3.157895e+00	-2.403847e-01
5.354138e-01	3.157895e+00	-2.229691e-01
4.593635e-01	3.157895e+00	-2.042585e-01
3.837764e-01	3.157895e+00	-1.841224e-01
3.103069e-01	3.157895e+00	-1.630077e-01
2.415927e-01	3.157895e+00	-1.409228e-01
1.782654e-01	3.157895e+00	-1.183331e-01
1.234349e-01	3.157895e+00	-9.558566e-02
7.662509e-02	3.157895e+00	-7.318920e-02
4.106998e-02	3.157895e+00	-5.193053e-02
1.528206e-02	3.157895e+00	-3.215886e-02
2.347037e-03	3.157895e+00	-1.488740e-02
0.000000e+00	3.157895e+00	0.000000e+00
1.064939e-02	3.157895e+00	1.066461e-02
3.126595e-02	3.157895e+00	1.703450e-02
6.375031e-02	3.157895e+00	1.787236e-02
1.050105e-01	3.157895e+00	1.417221e-02
1.560448e-01	3.157895e+00	4.777214e-03
2.137742e-01	3.157895e+00	-9.048270e-03
2.782849e-01	3.157895e+00	-2.799567e-02
3.468570e-01	3.157895e+00	-5.051783e-02
4.187060e-01	3.157895e+00	-7.662000e-02
4.916930e-01	3.157895e+00	-1.047585e-01
5.642168e-01	3.157895e+00	-1.343226e-01
6.348639e-01	3.157895e+00	-1.641238e-01
7.013280e-01	3.157895e+00	-1.931337e-01
7.630418e-01	3.157895e+00	-2.206893e-01
8.172084e-01	3.157895e+00	-2.454799e-01
8.641863e-01	3.157895e+00	-2.673591e-01
9.009752e-01	3.157895e+00	-2.848204e-01
9.288372e-01	3.157895e+00	-2.982085e-01
9.448555e-01	3.157895e+00	-3.059908e-01
9.510565e-01	3.157895e+00	-3.090170e-01
9.510565e-01	4.210526e+00	-3.090170e-01
9.442611e-01	4.210526e+00	-3.078203e-01
9.267277e-01	4.210526e+00	-3.047010e-01
8.963175e-01	4.210526e+00	-2.991555e-01
8.562911e-01	4.210526e+00	-2.916579e-01
8.054250e-01	4.210526e+00	-2.817457e-01
7.470317e-01	4.210526e+00	-2.699633e-01
6.809074e-01	4.210526e+00	-2.559818e-01
6.100852e-01	4.210526e+00	-2.403847e-01
5.354138e-01	4.210526e+00	-2.229691e-01
4.593635e-01	4.210526e+00	-2.042585e-01
3.837764e-01	4.210526e+00	-1.841224e-01
3.103069e-01	4.210526e+00	-1.630077e-01
2.415927e-01	4.210526e+00	-1.409228e-01
1.782654e-01	4.210526e+00	-1.183331e-01
1.234349e-01	4.210526e+00	-9.558566e-02
7.662509e-02	4.210526e+00	-7.318920e-02
4.106998e-02	4.210526e+00	-5.193053e-02
1.528206e-02	4.210526e+00	-3.215886e-02
2.347037e-03	4.210526e+00	-1.488740e-02
0.000000e+00	4.210526e+00	0.000000e+00
1.064939e-02	4.210526e+00	1.066461e-02
3.126595e-02	4.210526e+00	1.703450e-02
6.375031e-02	4.210526e+00	1.787236e-02
1.050105e-01	4.210526e+00	1.417221e-02
1.560448e-01	4.210526e+00	4.777214e-03
2.137742e-01	4.210526e+00	-9.048270e-03
2.782849e-01	4.210526e+00	-2.799567e-02
3.468570e-01	4.210526e+00	-5.051783e-02
4.187060e-01	4.210526e+00	-7.662000e-02
4.916930e-01	4.210526e+00	-1.047585e-01
5.642168e-01	4.210526e+00	-1.343226e-01
6.348639e-01	4.210526e+00	-1.641238e-01
7.013280e-01	4.210526e+00	-1.931337e-01
7.630418e-01	4.210526e+00	-2.206893e-01
8.172084e-01	4.210526e+00	-2.454799e-01
8.641863e-01	4.210526e+00	-2.673591e-01
9.009752e-01	4.210526e+00	-2.848204e-01
9.288372e-01	4.210526e+00	-2.982085e-01
9.448555e-01	4.210526e+00	-3.059908e-01
9.510565e-01	4.210526e+00	-3.090170e-01
9.510565e-01	5.263158e+00	-3.090170e-01
9.442611e-01	5.263158e+00	-3.078203e-01
9.267277e-01	5.263158e+00	-3.047010e-01
8.963175e-01	5.263158e+00	-2.991555e-01
8.562911e-01	5.263158e+00	-2.916579e-01
8.054250e-01	5.263158e+00	-2.817457e-01
7.470317e-01	5.263158e+00	-2.699633e-01
6.809074e-01	5.263158e+00	-2.559818e-01
6.100852e-01	5.263158e+00	-2.403847e-01
5.354138e-01	5.263158e+00	-2.229691e-01
4.593635e-01	5.263158e+00	-2.042585e-01
3.837764e-01	5.263158e+00	-1.841224e-01
3.103069e-01	5.263158e+00	-1.630077e-01
2.415927e-01	5.263158e+00	-1.409228e-01
1.782654e-01	5.263158e+00	-1.183331e-01
1.234349e-01	5.263158e+00	-9.558566e-02
7.662509e-02	5.263158e+00	-7.318920e-02
4.106998e-02	5.263158e+00	-5.193053e-02
1.528206e-02	5.263158e+00	-3.215886e-02
2.347037e-03	5.263158e+00	-1.488740e-02
0.000000e+00	5.263158e+00	0.000000e+00
1.064939e-02	5.263158e+00	1.066461e-02
3.126595e-02	5.263158e+00	1.703450e-02
6.375031e-02	5.263158e+00	1.787236e-02
1.050105e-01	5.263158e+00	1.417221e-02
1.560448e-01	5.263158e+00	4.777214e-03
2.137742e-01	5.263158e+00	-9.048270e-03
2.782849e-01	5.263158e+00	-2.799567e-02
3.468570e-01	5.263158e+00	-5.051783e-02
4.187060e-01	5.263158e+00	-7.662000e-02
4.916930e-01	5.263158e+00	-1.047585e-01
5.642168e-01	5.263158e+00	-1.343226e-01
6.348639e-01	5.263158e+00	-1.641238e-01
7.013280e-01	5.263158e+00	-1.931337e-01
7.630418e-01	5.263158e+00	-2.206893e-01
8.172084e-01	5.263158e+00	-2.454799e-01
8.641863e-01	5.263158e+00	-2.673591e-01
9.009752e-01	5.263158e+00	-2.848204e-01
9.288372e-01	5.263158e+00	-2.982085e-01
9.448555e-01	5.263158e+00	-3.059908e-01
9.510565e-01	5.263158e+00	-3.090170e-01
9.510565e-01	6.315789e+00	-3.090170e-01
9.442611e-01	6.315789e+00	-3.078203e-01
[...]
CELL_DATA 760
VECTORS V double
8.414281e-01	-6.902821e-02	-1.481724e-01
8.655502e-01	-6.885463e-02	-1.539867e-01
8.835666e-01	-6.840488e-02	-1.611268e-01
8.953341e-01	-6.761049e-02	-1.677098e-01
8.978009e-01	-6.644959e-02	-1.749534e-01
8.991153e-01	-6.490453e-02	-1.814202e-01
8.920794e-01	-6.296500e-02	-1.886236e-01
8.847709e-01	-6.060695e-02	-1.948523e-01
8.704387e-01	-5.780192e-02	-2.030126e-01
8.548007e-01	-5.451735e-02	-2.103056e-01
8.294982e-01	-5.072778e-02	-2.209756e-01
7.985792e-01	-4.641901e-02	-2.295067e-01
7.512332e-01	-4.162401e-02	-2.414476e-01
6.892133e-01	-3.639393e-02	-2.458518e-01
6.025685e-01	-3.076670e-02	-2.499866e-01
4.718995e-01	-2.486509e-02	-2.257834e-01
2.701988e-01	-1.869708e-02	-1.615539e-01
-1.736008e-02	-1.242871e-02	1.331003e-02
-4.217419e-01	-5.861414e-03	5.631300e-01
-3.426685e-01	7.187215e-04	2.173567e+00
2.326939e+00	8.431416e-03	2.330265e+00
2.541631e+00	1.519584e-02	7.852866e-01
2.210510e+00	2.214174e-02	5.701506e-02
1.925496e+00	2.898884e-02	-1.726753e-01
1.720163e+00	3.597811e-02	-3.166682e-01
1.570388e+00	4.294447e-02	-3.760886e-01
1.435541e+00	4.988225e-02	-4.216317e-01
1.336729e+00	5.661293e-02	-4.390419e-01
1.250634e+00	6.301833e-02	-4.543454e-01
1.181696e+00	6.890062e-02	-4.555763e-01
1.121868e+00	7.414429e-02	-4.573260e-01
1.071613e+00	7.861228e-02	-4.520407e-01
1.027474e+00	8.224239e-02	-4.484669e-01
9.872011e-01	8.502691e-02	-4.407919e-01
9.499807e-01	8.701724e-02	-4.347794e-01
9.115294e-01	8.831131e-02	-4.245309e-01
8.743629e-01	8.903741e-02	-4.150016e-01
8.341891e-01	8.934461e-02	-4.008431e-01
7.910610e-01	8.938851e-02	-3.843280e-01
7.483101e-01	8.934282e-02	-3.651825e-01
8.268623e-01	-4.834040e-02	-1.456074e-01
8.473517e-01	-4.821610e-02	-1.507491e-01
8.618162e-01	-4.789759e-02	-1.571604e-01
8.705044e-01	-4.733380e-02	-1.630588e-01
8.702581e-01	-4.650210e-02	-1.695862e-01
8.688764e-01	-4.538367e-02	-1.753187e-01
8.588800e-01	-4.396783e-02	-1.816038e-01
8.480134e-01	-4.223960e-02	-1.867572e-01
8.293464e-01	-4.018415e-02	-1.934287e-01
8.083618e-01	-3.778635e-02	-1.988803e-01
7.765782e-01	-3.501644e-02	-2.068778e-01
7.379230e-01	-3.192485e-02	-2.120745e-01
6.816237e-01	-2.848896e-02	-2.190750e-01
6.085783e-01	-2.476387e-02	-2.170882e-01
5.087860e-01	-2.077548e-02	-2.110792e-01
3.607950e-01	-1.660685e-02	-1.726248e-01
1.373992e-01	-1.225976e-02	-8.215203e-02
-1.814673e-01	-7.847591e-03	1.391315e-01
-6.031599e-01	-3.230498e-03	8.053680e-01
-4.198295e-01	1.388633e-03	2.663004e+00
2.682429e+00	6.788373e-03	2.686262e+00
2.844042e+00	1.150405e-02	8.787224e-01
2.433227e+00	1.631781e-02	6.275953e-02
2.097319e+00	2.102675e-02	-1.880841e-01
1.860475e+00	2.578957e-02	-3.424986e-01
1.689640e+00	3.048663e-02	-4.046479e-01
1.539059e+00	3.511210e-02	-4.520356e-01
1.427805e+00	3.954785e-02	-4.689556e-01
1.330716e+00	4.372204e-02	-4.834383e-01
1.251902e+00	4.752703e-02	-4.826428e-01
1.182668e+00	5.085247e-02	-4.821107e-01
1.123338e+00	5.366962e-02	-4.738599e-01
1.070393e+00	5.592877e-02	-4.671996e-01
1.021742e+00	5.763435e-02	-4.562145e-01
9.765907e-01	5.882761e-02	-4.469581e-01
9.307611e-01	5.957938e-02	-4.334878e-01
8.867503e-01	5.997805e-02	-4.208811e-01
8.402937e-01	6.012442e-02	-4.037764e-01
7.917020e-01	6.012078e-02	-3.846394e-01
7.448116e-01	6.007747e-02	-3.634752e-01
8.205673e-01	-2.041032e-02	-1.444989e-01
8.397272e-01	-2.035849e-02	-1.493927e-01
8.527118e-01	-2.022814e-02	-1.555001e-01
8.598723e-01	-1.999213e-02	-1.610673e-01
8.580835e-01	-1.963355e-02	-1.672137e-01
8.551191e-01	-1.913572e-02	-1.725428e-01
8.434980e-01	-1.848890e-02	-1.783514e-01
8.308969e-01	-1.768775e-02	-1.829876e-01
8.103402e-01	-1.670516e-02	-1.889958e-01
7.869526e-01	-1.558500e-02	-1.936130e-01
7.528879e-01	-1.431300e-02	-2.005668e-01
7.115960e-01	-1.290395e-02	-2.045083e-01
6.517786e-01	-1.134790e-02	-2.094827e-01
5.746269e-01	-9.681027e-03	-2.049772e-01
4.698458e-01	-7.913406e-03	-1.949242e-01
3.151044e-01	-6.077500e-03	-1.507638e-01
8.311653e-02	-4.170041e-03	-4.969599e-02
-2.482648e-01	-2.238942e-03	1.903453e-01
-6.766779e-01	-2.233558e-04	9.035326e-01
-4.508694e-01	1.784806e-03	2.859892e+00
2.823526e+00	4.113779e-03	2.827561e+00
2.961764e+00	6.121640e-03	9.150947e-01
2.517847e+00	8.135002e-03	6.494214e-02
2.160616e+00	1.005872e-02	-1.937604e-01
1.910296e+00	1.194907e-02	-3.516702e-01
1.730243e+00	1.375246e-02	-4.143719e-01
1.572752e+00	1.546432e-02	-4.619318e-01
1.456098e+00	1.704401e-02	-4.782482e-01
1.354631e+00	1.847405e-02	-4.921264e-01
1.271679e+00	1.973998e-02	-4.902671e-01
1.198780e+00	2.080517e-02	-4.886789e-01
1.136468e+00	2.166541e-02	-4.793988e-01
1.080541e+00	2.230240e-02	-4.716290e-01
1.029162e+00	2.277396e-02	-4.595275e-01
9.815285e-01	2.307602e-02	-4.492179e-01
9.334845e-01	2.324067e-02	-4.347562e-01
8.875221e-01	2.330313e-02	-4.212474e-01
8.394012e-01	2.330090e-02	-4.033476e-01
7.894775e-01	2.327044e-02	-3.835586e-01
7.416778e-01	2.324365e-02	-3.619458e-01
8.181639e-01	-1.021957e-02	-1.440757e-01
8.367506e-01	-1.019853e-02	-1.488631e-01
8.489800e-01	-1.014225e-02	-1.548196e-01
8.553681e-01	-1.003645e-02	-1.602236e-01
8.527912e-01	-9.871284e-03	-1.661824e-01
8.489880e-01	-9.623435e-03	-1.713057e-01
8.364986e-01	-9.310791e-03	-1.768714e-01
8.226036e-01	-8.913378e-03	-1.811612e-01
8.009751e-01	-8.440109e-03	-1.868116e-01
7.769558e-01	-7.876290e-03	-1.911535e-01
7.415359e-01	-7.236959e-03	-1.975427e-01
6.984085e-01	-6.499485e-03	-2.007183e-01
6.368539e-01	-5.694066e-03	-2.046859e-01
5.575458e-01	-4.817996e-03	-1.988842e-01
4.501411e-01	-3.883313e-03	-1.867493e-01
2.918593e-01	-2.907446e-03	-1.396420e-01
5.540234e-02	-1.893715e-03	-3.312547e-02
-2.824166e-01	-8.602155e-04	2.165296e-01
-7.142694e-01	2.197882e-04	9.537266e-01
-4.667022e-01	1.279792e-03	2.960320e+00
2.895091e+00	2.538264e-03	2.899228e+00
3.021006e+00	3.601802e-03	9.333989e-01
2.560052e+00	4.660754e-03	6.603072e-02
2.191837e+00	5.663683e-03	-1.965604e-01
1.934607e+00	6.643136e-03	-3.561456e-01
1.749845e+00	7.563102e-03	-4.190663e-01
1.588855e+00	8.427396e-03	-4.666613e-01
1.469507e+00	9.224337e-03	-4.826522e-01
1.365843e+00	9.932976e-03	-4.961998e-01
1.281316e+00	1.055199e-02	-4.939829e-01
1.206779e+00	1.109045e-02	-4.919396e-01
1.142481e+00	1.152178e-02	-4.819351e-01
1.085235e+00	1.185986e-02	-4.736777e-01
1.032963e+00	1.209801e-02	-4.612247e-01
9.841937e-01	1.225810e-02	-4.504377e-01
9.351510e-01	1.233909e-02	-4.355323e-01
8.883114e-01	1.238305e-02	-4.216220e-01
8.394624e-01	1.239325e-02	-4.033770e-01
7.889786e-01	1.238643e-02	-3.833163e-01
7.407085e-01	1.237776e-02	-3.614728e-01
8.170364e-01	-5.651517e-03	-1.438771e-01
8.351961e-01	-5.640400e-03	-1.485865e-01
8.470155e-01	-5.608906e-03	-1.544613e-01
8.529634e-01	-5.549547e-03	-1.597731e-01
8.496311e-01	-5.453389e-03	-1.655666e-01
8.453898e-01	-5.313141e-03	-1.705797e-01
8.325158e-01	-5.141837e-03	-1.760293e-01
8.184994e-01	-4.922203e-03	-1.802574e-01
7.963415e-01	-4.657356e-03	-1.857309e-01
7.711568e-01	-4.321672e-03	-1.897268e-01
7.348948e-01	-3.930847e-03	-1.957735e-01
6.910323e-01	-3.494702e-03	-1.985984e-01
6.284266e-01	-3.023313e-03	-2.019773e-01
5.477252e-01	-2.603100e-03	-1.953810e-01
4.387582e-01	-2.059946e-03	-1.820269e-01
2.784648e-01	-1.452580e-03	-1.332333e-01
3.940265e-02	-8.433553e-04	-2.355914e-02
-3.023193e-01	-2.239663e-04	2.317891e-01
-7.358615e-01	4.236242e-04	9.825574e-01
-4.758740e-01	1.068075e-03	3.018498e+00
2.937187e+00	1.811063e-03	2.941385e+00
3.055102e+00	2.445617e-03	9.439334e-01
2.584220e+00	3.073815e-03	6.665407e-02
2.209724e+00	3.664401e-03	-1.981644e-01
1.948390e+00	4.233819e-03	-3.586831e-01
1.760792e+00	4.756944e-03	-4.216879e-01
1.597884e+00	5.242510e-03	-4.693132e-01
1.476953e+00	5.786185e-03	-4.850978e-01
1.371927e+00	6.190360e-03	-4.984101e-01
1.286285e+00	6.528666e-03	-4.958984e-01
1.210925e+00	6.809486e-03	-4.936295e-01
1.146300e+00	7.038869e-03	-4.835463e-01
1.088262e+00	7.236293e-03	-4.749989e-01
1.034931e+00	7.378670e-03	-4.621038e-01
9.854644e-01	7.476765e-03	-4.510193e-01
9.358668e-01	7.525222e-03	-4.358657e-01
8.888550e-01	7.548549e-03	-4.218800e-01
8.396025e-01	7.554969e-03	-4.034443e-01
7.887836e-01	7.551127e-03	-3.832215e-01
7.403507e-01	7.546868e-03	-3.612982e-01
8.162981e-01	-3.274875e-03	-1.437471e-01
8.342375e-01	-3.267862e-03	-1.484160e-01
8.457863e-01	-3.249010e-03	-1.542372e-01
8.513942e-01	-3.212626e-03	-1.594792e-01
8.479591e-01	-3.151016e-03	-1.652408e-01
8.435856e-01	-3.098482e-03	-1.702156e-01
8.304508e-01	-2.981473e-03	-1.755927e-01
8.157038e-01	-2.837724e-03	-1.796417e-01
7.928643e-01	-2.653703e-03	-1.849199e-01
7.674171e-01	-2.421609e-03	-1.888067e-01
7.307273e-01	-2.182451e-03	-1.946633e-01
6.863116e-01	-1.956938e-03	-1.972417e-01
6.244322e-01	-1.643119e-03	-2.006935e-01
5.432995e-01	-1.425234e-03	-1.938023e-01
4.314618e-01	-1.061062e-03	-1.789999e-01
2.694205e-01	-6.837025e-04	-1.289060e-01
2.916392e-02	-2.883352e-04	-1.743732e-02
-3.148193e-01	1.062014e-04	2.413728e-01
-7.499513e-01	5.175348e-04	1.001371e+00
-4.817045e-01	9.410198e-04	3.055481e+00
2.962584e+00	1.395217e-03	2.966817e+00
3.076504e+00	1.797087e-03	9.505460e-01
2.599262e+00	2.193034e-03	6.704204e-02
2.220552e+00	2.562931e-03	-1.991355e-01
1.956497e+00	2.912719e-03	-3.601754e-01
1.767108e+00	3.239041e-03	-4.232007e-01
1.604499e+00	3.652403e-03	-4.712560e-01
1.482599e+00	3.901898e-03	-4.869522e-01
1.375512e+00	4.152037e-03	-4.997125e-01
1.289128e+00	4.370644e-03	-4.969945e-01
1.213168e+00	4.535536e-03	-4.945440e-01
1.147930e+00	4.641141e-03	-4.842337e-01
1.089786e+00	4.735602e-03	-4.756642e-01
1.036445e+00	4.810473e-03	-4.627794e-01
9.865880e-01	4.856455e-03	-4.515335e-01
9.365262e-01	4.917920e-03	-4.361728e-01
8.890387e-01	4.927018e-03	-4.219672e-01
8.396003e-01	4.928911e-03	-4.034433e-01
7.886075e-01	4.925965e-03	-3.831360e-01
7.400563e-01	4.922860e-03	-3.611545e-01
8.158595e-01	-2.026498e-03	-1.436699e-01
8.336795e-01	-2.022471e-03	-1.483167e-01
8.450701e-01	-2.012296e-03	-1.541066e-01
8.504530e-01	-1.993709e-03	-1.593029e-01
8.473544e-01	-1.963600e-03	-1.651229e-01
8.423957e-01	-2.007561e-03	-1.699756e-01
8.284860e-01	-1.885340e-03	-1.751772e-01
8.138271e-01	-1.780484e-03	-1.792284e-01
7.907217e-01	-1.681361e-03	-1.844202e-01
7.649714e-01	-1.540058e-03	-1.882050e-01
7.288184e-01	-1.383817e-03	-1.941548e-01
6.838613e-01	-1.213273e-03	-1.965375e-01
6.209899e-01	-1.013552e-03	-1.995872e-01
5.391695e-01	-7.343499e-04	-1.923291e-01
4.266894e-01	-4.996467e-04	-1.770199e-01
2.642400e-01	-2.930296e-04	-1.264274e-01
2.251506e-02	-4.951229e-05	-1.346192e-02
-3.229339e-01	1.726138e-04	2.475944e-01
-7.588363e-01	4.320334e-04	1.013235e+00
-4.854251e-01	6.885722e-04	3.079081e+00
2.979262e+00	9.832266e-04	2.983520e+00
3.090149e+00	1.233056e-03	9.547618e-01
2.608846e+00	1.473300e-03	6.728923e-02
2.227519e+00	1.731133e-03	-1.997603e-01
1.961946e+00	1.950549e-03	-3.611786e-01
1.773578e+00	2.163559e-03	-4.247500e-01
1.607811e+00	2.361042e-03	-4.722289e-01
1.483887e+00	2.461816e-03	-4.873752e-01
1.378034e+00	2.605915e-03	-5.006286e-01
1.291123e+00	2.741924e-03	-4.977634e-01
1.214314e+00	2.854468e-03	-4.950111e-01
1.148854e+00	2.944620e-03	-4.846234e-01
1.090526e+00	3.042873e-03	-4.759874e-01
1.036686e+00	3.108089e-03	-4.628872e-01
9.871650e-01	3.228637e-03	-4.517976e-01
9.372661e-01	3.220088e-03	-4.365174e-01
8.891265e-01	3.214112e-03	-4.220089e-01
8.395985e-01	3.211147e-03	-4.034424e-01
7.885040e-01	3.207896e-03	-3.830857e-01
7.398753e-01	3.205611e-03	-3.610662e-01
8.156223e-01	-1.127887e-03	-1.436281e-01
8.334107e-01	-1.125055e-03	-1.482689e-01
8.447778e-01	-1.116372e-03	-1.540533e-01
8.501499e-01	-1.125583e-03	-1.592461e-01
8.483750e-01	-1.105753e-03	-1.653218e-01
8.420482e-01	-1.054737e-03	-1.699054e-01
8.269718e-01	-1.013905e-03	-1.748571e-01
8.128099e-01	-9.857212e-04	-1.790044e-01
7.896136e-01	-9.931263e-04	-1.841618e-01
7.635110e-01	-9.132454e-04	-1.878457e-01
7.264559e-01	-8.104653e-04	-1.935254e-01
6.813802e-01	-6.557053e-04	-1.958245e-01
6.178074e-01	-5.759142e-04	-1.985643e-01
5.356206e-01	-3.415577e-04	-1.910632e-01
4.242413e-01	-2.515478e-04	-1.760043e-01
2.611771e-01	-1.234764e-04	-1.249619e-01
1.915685e-02	1.379585e-05	-1.145402e-02
-3.270252e-01	1.558882e-04	2.507311e-01
-7.642096e-01	3.054112e-04	1.020409e+00
-4.876665e-01	4.544215e-04	3.093298e+00
2.989244e+00	6.259277e-04	2.993515e+00
3.097979e+00	7.716235e-04	9.571810e-01
2.615457e+00	9.148259e-04	6.745975e-02
2.232281e+00	1.048515e-03	-2.001872e-01
1.965182e+00	1.176105e-03	-3.617743e-01
1.774133e+00	1.295770e-03	-4.248831e-01
1.608949e+00	1.322261e-03	-4.725631e-01
1.486016e+00	1.432559e-03	-4.880746e-01
1.379164e+00	1.539073e-03	-5.010392e-01
1.292264e+00	1.599033e-03	-4.982036e-01
1.215706e+00	1.666786e-03	-4.955787e-01
1.150330e+00	1.811957e-03	-4.852462e-01
1.091978e+00	1.832388e-03	-4.766211e-01
1.039072e+00	1.873969e-03	-4.639527e-01
9.885140e-01	1.885698e-03	-4.524150e-01
9.362522e-01	1.870835e-03	-4.360452e-01
8.888261e-01	1.873798e-03	-4.218663e-01
8.394128e-01	1.895458e-03	-4.033532e-01
7.883349e-01	1.891921e-03	-3.830035e-01
7.397063e-01	1.890353e-03	-3.609837e-01
8.153843e-01	-1.360496e-03	-1.435862e-01
8.329947e-01	-1.360547e-03	-1.481949e-01
8.452008e-01	-1.361220e-03	-1.541304e-01
8.500978e-01	-1.343430e-03	-1.592364e-01
8.458729e-01	-1.302024e-03	-1.648342e-01
8.408250e-01	-1.224841e-03	-1.696586e-01
8.274341e-01	-1.128727e-03	-1.749548e-01
8.135479e-01	-1.192576e-03	-1.791669e-01
7.897227e-01	-9.740765e-04	-1.841872e-01
7.625726e-01	-1.024470e-03	-1.876148e-01
7.254553e-01	-6.691599e-04	-1.932589e-01
6.807125e-01	-7.589540e-04	-1.956326e-01
6.166900e-01	-3.261155e-04	-1.982052e-01
5.342391e-01	-3.918449e-04	-1.905704e-01
4.231759e-01	6.765480e-05	-1.755623e-01
2.593603e-01	4.077715e-04	-1.240927e-01
1.655515e-02	6.029747e-04	-9.898447e-03
-3.303880e-01	6.508467e-04	2.533095e-01
-7.670796e-01	6.987310e-04	1.024241e+00
-4.888914e-01	7.603845e-04	3.101068e+00
2.994796e+00	8.419628e-04	2.999076e+00
3.102836e+00	9.206344e-04	9.586819e-01
2.617749e+00	1.017403e-03	6.751886e-02
2.233983e+00	1.099388e-03	-2.003399e-01
1.966905e+00	1.033777e-03	-3.620914e-01
1.775982e+00	8.503683e-04	-4.253258e-01
1.609946e+00	4.976983e-04	-4.728560e-01
1.486894e+00	6.294216e-04	-4.883629e-01
1.380194e+00	3.109423e-04	-5.014132e-01
1.292735e+00	4.392130e-04	-4.983852e-01
1.216974e+00	1.431266e-04	-4.960955e-01
1.150995e+00	2.927400e-04	-4.855268e-01
1.091344e+00	3.283789e-05	-4.763443e-01
1.037472e+00	8.806523e-05	-4.632381e-01
9.871430e-01	-1.299794e-04	-4.517876e-01
9.370147e-01	-7.232138e-05	-4.364003e-01
8.896336e-01	-8.678887e-05	-4.222496e-01
8.402959e-01	-9.275624e-05	-4.037775e-01
7.882361e-01	-8.765945e-05	-3.829556e-01
7.396352e-01	-8.657418e-05	-3.609490e-01
8.156308e-01	3.200133e-05	-1.436296e-01
8.334580e-01	1.435281e-05	-1.482773e-01
8.440926e-01	1.273086e-05	-1.539283e-01
8.486069e-01	3.407222e-05	-1.589571e-01
8.459257e-01	3.161693e-05	-1.648445e-01
8.390413e-01	3.035212e-05	-1.692987e-01
8.265948e-01	2.864611e-05	-1.747774e-01
8.104879e-01	2.918330e-05	-1.784930e-01
7.874173e-01	7.153123e-05	-1.836495e-01
7.594828e-01	5.957535e-05	-1.868546e-01
7.229494e-01	5.117361e-05	-1.925913e-01
6.769435e-01	1.812953e-05	-1.945494e-01
6.124807e-01	-8.513266e-06	-1.968523e-01
5.301391e-01	-4.127273e-06	-1.891079e-01
4.110868e-01	2.855200e-05	-1.705469e-01
2.510664e-01	-2.812539e-06	-1.201244e-01
1.359460e-02	1.601073e-06	-8.128311e-03
-3.294828e-01	5.115948e-06	2.526155e-01
-7.671554e-01	7.266745e-06	1.024343e+00
-4.891965e-01	8.398869e-06	3.103003e+00
2.997180e+00	8.990647e-06	3.001463e+00
3.105860e+00	9.071388e-06	9.596161e-01
2.621160e+00	8.700468e-06	6.760684e-02
2.232261e+00	7.467940e-06	-2.001855e-01
1.959965e+00	4.086353e-05	-3.608139e-01
1.764749e+00	3.819011e-05	-4.226357e-01
1.605955e+00	5.716564e-06	-4.716837e-01
1.483225e+00	5.937349e-05	-4.871578e-01
1.376799e+00	4.785175e-05	-5.001801e-01
1.290114e+00	3.698725e-05	-4.973744e-01
1.213846e+00	2.905079e-05	-4.948202e-01
1.149023e+00	-1.498996e-05	-4.846950e-01
1.089119e+00	-1.200739e-05	-4.753730e-01
1.036925e+00	-1.335171e-05	-4.629941e-01
9.856599e-01	-1.253501e-05	-4.511088e-01
9.371775e-01	-1.273875e-05	-4.364761e-01
8.883356e-01	-1.171728e-05	-4.216335e-01
8.393223e-01	-3.418643e-05	-4.033096e-01
7.886840e-01	-3.309121e-05	-3.831732e-01
7.398725e-01	-1.555670e-05	-3.610648e-01
8.183461e-01	1.434739e-03	-1.441078e-01
8.337102e-01	1.434982e-03	-1.483222e-01
8.444006e-01	1.436370e-03	-1.539845e-01
8.497045e-01	1.420552e-03	-1.591627e-01
8.459455e-01	1.381868e-03	-1.648484e-01
8.408767e-01	1.395164e-03	-1.696691e-01
8.274504e-01	1.256642e-03	-1.749583e-01
8.129203e-01	1.318914e-03	-1.790287e-01
7.893270e-01	1.051239e-03	-1.840949e-01
7.628395e-01	1.105821e-03	-1.876805e-01
7.259952e-01	7.597836e-04	-1.934027e-01
6.815104e-01	7.757887e-04	-1.958619e-01
6.170133e-01	3.475343e-04	-1.983091e-01
5.337079e-01	4.406167e-04	-1.903809e-01
4.230872e-01	-5.185854e-05	-1.755255e-01
2.599157e-01	-3.902049e-04	-1.243584e-01
1.638343e-02	-5.851934e-04	-9.795775e-03
-3.305391e-01	-6.077568e-04	2.534253e-01
-7.671760e-01	-6.846969e-04	1.024370e+00
-4.889113e-01	-7.460607e-04	3.101194e+00
2.994825e+00	-8.294925e-04	2.999105e+00
3.102820e+00	-8.818226e-04	9.586767e-01
2.617692e+00	-9.773479e-04	6.751740e-02
2.234881e+00	-1.091432e-03	-2.004205e-01
1.967459e+00	-1.029355e-03	-3.621934e-01
1.775346e+00	-8.171753e-04	-4.251735e-01
1.610330e+00	-4.714508e-04	-4.729688e-01
1.487450e+00	-6.386898e-04	-4.885455e-01
1.379902e+00	-3.316393e-04	-5.013072e-01
1.292498e+00	-3.933090e-04	-4.982938e-01
1.216326e+00	-1.108699e-04	-4.958312e-01
1.150461e+00	-2.086908e-04	-4.853012e-01
1.091368e+00	4.169701e-06	-4.763546e-01
1.037463e+00	-9.639444e-05	-4.632340e-01
9.871539e-01	1.318751e-05	-4.517926e-01
9.370278e-01	-2.031451e-05	-4.364064e-01
8.892128e-01	5.357968e-06	-4.220499e-01
8.395090e-01	1.386515e-05	-4.033994e-01
7.888537e-01	9.323935e-06	-3.832556e-01
7.423205e-01	8.285565e-06	-3.622595e-01
8.155900e-01	1.191320e-03	-1.436224e-01
8.333558e-01	1.206092e-03	-1.482591e-01
8.446807e-01	1.198947e-03	-1.540355e-01
8.500310e-01	1.193401e-03	-1.592239e-01
8.463393e-01	1.082188e-03	-1.649251e-01
8.413714e-01	1.058176e-03	-1.697689e-01
8.276178e-01	9.850938e-04	-1.749937e-01
8.135518e-01	9.673140e-04	-1.791677e-01
7.902061e-01	9.425908e-04	-1.843000e-01
7.633340e-01	8.640816e-04	-1.878021e-01
7.272929e-01	7.757524e-04	-1.937484e-01
6.823243e-01	7.057285e-04	-1.960958e-01
6.173734e-01	6.256756e-04	-1.984248e-01
5.356609e-01	4.770303e-04	-1.910775e-01
4.247863e-01	3.428936e-04	-1.762304e-01
2.611380e-01	2.362961e-04	-1.249432e-01
1.867360e-02	8.825928e-05	-1.116509e-02
-3.271530e-01	-6.178289e-05	2.508292e-01
-7.632498e-01	-2.173171e-04	1.019128e+00
-4.876535e-01	-3.710986e-04	3.093216e+00
2.990706e+00	-5.474456e-04	2.994980e+00
3.098966e+00	-6.969924e-04	9.574862e-01
2.614286e+00	-8.436888e-04	6.742956e-02
2.231479e+00	-9.797530e-04	-2.001154e-01
1.965747e+00	-1.143615e-03	-3.618783e-01
1.774468e+00	-1.260881e-03	-4.249633e-01
1.608284e+00	-1.368908e-03	-4.723679e-01
1.485375e+00	-1.498911e-03	-4.878642e-01
1.379904e+00	-1.582912e-03	-5.013081e-01
1.292927e+00	-1.646789e-03	-4.984590e-01
1.216180e+00	-1.699483e-03	-4.957717e-01
1.150415e+00	-1.775805e-03	-4.852819e-01
1.090746e+00	-1.797326e-03	-4.760835e-01
1.036909e+00	-1.803030e-03	-4.629867e-01
9.870268e-01	-1.824867e-03	-4.517344e-01
9.369307e-01	-1.846235e-03	-4.363612e-01
8.891647e-01	-1.763837e-03	-4.220270e-01
8.395185e-01	-1.774271e-03	-4.034040e-01
7.883707e-01	-1.774031e-03	-3.830209e-01
7.397135e-01	-1.790579e-03	-3.609872e-01
8.158671e-01	1.715923e-03	-1.436712e-01
8.336867e-01	1.705027e-03	-1.483180e-01
8.448120e-01	1.581407e-03	-1.540595e-01
8.529346e-01	1.674290e-03	-1.597677e-01
8.485007e-01	1.701952e-03	-1.653463e-01
8.426052e-01	1.711617e-03	-1.700178e-01
8.288065e-01	1.670689e-03	-1.752450e-01
8.135270e-01	1.608429e-03	-1.791623e-01
7.907320e-01	1.538260e-03	-1.844226e-01
7.650298e-01	1.417522e-03	-1.882194e-01
7.280671e-01	1.270410e-03	-1.939546e-01
6.835097e-01	1.185114e-03	-1.964365e-01
6.201632e-01	9.786371e-04	-1.993214e-01
5.379262e-01	7.827180e-04	-1.918856e-01