# vtk DataFile Version 2.0
OUTPUT by 3D-VPM
ASCII
DATASET UNSTRUCTURED_GRID
POINTS 820 double
9.510565e-01	0.000000e+00	-3.090170e-01
9.442611e-01	0.000000e+00	-3.078203e-01
9.267277e-01	0.000000e+00	-3.047010e-01
8.963175e-01	0.000000e+00	-2.991555e-01
8.562911e-01	0.000000e+00	-2.916579e-01
8.054250e-01	0.000000e+00	-2.817457e-01
7.470317e-01	0.000000e+00	-2.699633e-01
6.809074e-01	0.000000e+00	-2.559818e-01
6.100852e-01	0.000000e+00	-2.403847e-01
5.354138e-01	0.000000e+00	-2.229691e-01
4.593635e-01	0.000000e+00	-2.042585e-01
3.837764e-01	0.000000e+00	-1.841224e-01
3.103069e-01	0.000000e+00	-1.630077e-01
2.415927e-01	0.000000e+00	-1.409228e-01
1.782654e-01	0.000000e+00	-1.183331e-01
1.234349e-01	0.000000e+00	-9.558566e-02
7.662509e-02	0.000000e+00	-7.318920e-02
4.106998e-02	0.000000e+00	-5.193053e-02
1.528206e-02	0.000000e+00	-3.215886e-02
2.347037e-03	0.000000e+00	-1.488740e-02
0.000000e+00	0.000000e+00	0.000000e+00
1.064939e-02	0.000000e+00	1.066461e-02
3.126595e-02	0.000000e+00	1.703450e-02
6.375031e-02	0.000000e+00	1.787236e-02
1.050105e-01	0.000000e+00	1.417221e-02
1.560448e-01	0.000000e+00	4.777214e-03
2.137742e-01	0.000000e+00	-9.048270e-03
2.782849e-01	0.000000e+00	-2.799567e-02
3.468570e-01	0.000000e+00	-5.051783e-02
4.187060e-01	0.000000e+00	-7.662000e-02
4.916930e-01	0.000000e+00	-1.047585e-01
5.642168e-01	0.000000e+00	-1.343226e-01
6.348639e-01	0.000000e+00	-1.641238e-01
7.013280e-01	0.000000e+00	-1.931337e-01
7.630418e-01	0.000000e+00	-2.206893e-01
8.172084e-01	0.000000e+00	-2.454799e-01
8.641863e-01	0.000000e+00	-2.673591e-01
9.009752e-01	0.000000e+00	-2.848204e-01
9.288372e-01	0.000000e+00	-2.982085e-01
9.448555e-01	0.000000e+00	-3.059908e-01
9.510565e-01	0.000000e+00	-3.090170e-01
9.510565e-01	1.052632e+00	-3.090170e-01
9.442611e-01	1.052632e+00	-3.078203e-01
9.267277e-01	1.052632e+00	-3.047010e-01
8.963175e-01	1.052632e+00	-2.991555e-01
8.562911e-01	1.052632e+00	-2.916579e-01
8.054250e-01	1.052632e+00	-2.817457e-01
7.470317e-01	1.052632e+00	-2.699633e-01
6.809074e-01	1.052632e+00	-2.559818e-01
6.100852e-01	1.052632e+00	-2.403847e-01
5.354138e-01	1.052632e+00	-2.229691e-01
4.593635e-01	1.052632e+00	-2.042585e-01
3.837764e-01	1.052632e+00	-1.841224e-01
3.103069e-01	1.052632e+00	-1.630077e-01
2.415927e-01	1.052632e+00	-1.409228e-01
1.782654e-01	1.052632e+00	-1.183331e-01
1.234349e-01	1.052632e+00	-9.558566e-02
7.662509e-02	1.052632e+00	-7.318920e-02
4.106998e-02	1.052632e+00	-5.193053e-02
1.528206e-02	1.052632e+00	-3.215886e-02
2.347037e-03	1.052632e+00	-1.488740e-02
0.000000e+00	1.052632e+00	0.000000e+00
1.064939e-02	1.052632e+00	1.066461e-02
3.126595e-02	1.052632e+00	1.703450e-02
6.375031e-02	1.052632e+00	1.787236e-02
1.050105e-01	1.052632e+00	1.417221e-02
1.560448e-01	1.052632e+00	4.777214e-03
2.137742e-01	1.052632e+00	-9.048270e-03
2.782849e-01	1.052632e+00	-2.799567e-02
3.468570e-01	1.052632e+00	-5.051783e-02
4.187060e-01	1.052632e+00	-7.662000e-02
4.916930e-01	1.052632e+00	-1.047585e-01
5.642168e-01	1.052632e+00	-1.343226e-01
6.348639e-01	1.052632e+00	-1.641238e-01
7.013280e-01	1.052632e+00	-1.931337e-01
7.630418e-01	1.052632e+00	-2.206893e-01
8.172084e-01	1.052632e+00	-2.454799e-01
8.641863e-01	1.052632e+00	-2.673591e-01
9.009752e-01	1.052632e+00	-2.848204e-01
9.288372e-01	1.052632e+00	-2.982085e-01
9.448555e-01	1.052632e+00	-3.059908e-01
9.510565e-01	1.052632e+00	-3.090170e-01
9.510565e-01	2.105263e+00	-3.090170e-01
9.442611e-01	2.105263e+00	-3.078203e-01
9.267277e-01	2.105263e+00	-3.047010e-01
8.963175e-01	2.105263e+00	-2.991555e-01
8.562911e-01	2.105263e+00	-2.916579e-01
8.054250e-01	2.105263e+00	-2.817457e-01
7.470317e-01	2.105263e+00	-2.699633e-01
6.809074e-01	2.105263e+00	-2.559818e-01
6.100852e-01	2.105263e+00	-2.403847e-01
5.354138e-01	2.105263e+00	-2.229691e-01
4.593635e-01	2.105263e+00	-2.042585e-01
3.837764e-01	2.105263e+00	-1.841224e-01
3.103069e-01	2.105263e+00	-1.630077e-01
2.415927e-01	2.105263e+00	-1.409228e-01
1.782654e-01	2.105263e+00	-1.183331e-01
1.234349e-01	2.105263e+00	-9.558566e-02
7.662509e-02	2.105263e+00	-7.318920e-02
4.106998e-02	2.105263e+00	-5.193053e-02
1.528206e-02	2.105263e+00	-3.215886e-02
2.347037e-03	2.105263e+00	-1.488740e-02
0.000000e+00	2.105263e+00	0.000000e+00
1.064939e-02	2.105263e+00	1.066461e-02
3.126595e-02	2.105263e+00	1.703450e-02
6.375031e-02	2.105263e+00	1.787236e-02
1.050105e-01	2.105263e+00	1.417221e-02
1.560448e-01	2.105263e+00	4.777214e-03
2.137742e-01	2.105263e+00	-9.048270e-03
2.782849e-01	2.105263e+00	-2.799567e-02
3.468570e-01	2.105263e+00	-5.051783e-02
4.187060e-01	2.105263e+00	-7.662000e-02
4.916930e-01	2.105263e+00	-1.047585e-01
5.642168e-01	2.105263e+00	-1.343226e-01
6.348639e-01	2.105263e+00	-1.641238e-01
7.013280e-01	2.105263e+00	-1.931337e-01
7.630418e-01	2.105263e+00	-2.206893e-01
8.172084e-01	2.105263e+00	-2.454799e-01
8.641863e-01	2.105263e+00	-2.673591e-01
9.009752e-01	2.105263e+00	-2.848204e-01
9.288372e-01	2.105263e+00	-2.982085e-01
9.448555e-01	2.105263e+00	-3.059908e-01
9.510565e-01	2.105263e+00	-3.090170e-01
9.510565e-01	3.157895e+00	-3.090170e-01
9.442611e-01	3.157895e+00	-3.078203e-01
9.267277e-01	3.157895e+00	-3.047010e-01
8.963175e-01	3.157895e+00	-2.991555e-01
8.562911e-01	3.157895e+00	-2.916579e-01
8.054250e-01	3.157895e+00	-2.817457e-01
7.470317e-01	3.157895e+00	-2.699633e-01
6.809074e-01	3.157895e+00	-2.559818e-01
6.100852e-01	3.157895e+00	-2.403847e-01
5.354138e-01	3.157895e+00	-2.229691e-01
4.593635e-01	3.157895e+00	-2.042585e-01
3.837764e-01	3.157895e+00	-1.841224e-01
3.103069e-01	3.157895e+00	-1.630077e-01
2.415927e-01	3.157895e+00	-1.409228e-01
1.782654e-01	3.157895e+00	-1.183331e-01
1.234349e-01	3.157895e+00	-9.558566e-02
7.662509e-02	3.157895e+00	-7.318920e-02
4.106998e-02	3.157895e+00	-5.193053e-02
1.528206e-02	3.157895e+00	-3.215886e-02
2.347037e-03	3.157895e+00	-1.488740e-02
0.000000e+00	3.157895e+00	0.000000e+00
1.064939e-02	3.157895e+00	1.066461e-02
3.126595e-02	3.157895e+00	1.703450e-02
6.375031e-02	3.157895e+00	1.787236e-02
1.050105e-01	3.157895e+00	1.417221e-02
1.560448e-01	3.157895e+00	4.777214e-03
2.137742e-01	3.157895e+00	-9.048270e-03
2.782849e-01	3.157895e+00	-2.799567e-02
3.468570e-01	3.157895e+00	-5.051783e-02
4.187060e-01	3.157895e+00	-7.662000e-02
4.916930e-01	3.157895e+00	-1.047585e-01
5.642168e-01	3.157895e+00	-1.343226e-01
6.348639e-01	3.157895e+00	-1.641238e-01
7.013280e-01	3.157895e+00	-1.931337e-01
7.630418e-01	3.157895e+00	-2.206893e-01
8.172084e-01	3.157895e+00	-2.454799e-01
8.641863e-01	3.157895e+00	-2.673591e-01
9.009752e-01	3.157895e+00	-2.848204e-01
9.288372e-01	3.157895e+00	-2.982085e-01
9.448555e-01	3.157895e+00	-3.059908e-01
9.510565e-01	3.157895e+00	-3.090170e-01
9.510565e-01	4.210526e+00	-3.090170e-01
9.442611e-01	4.210526e+00	-3.078203e-01
9.267277e-01	4.210526e+00	-3.047010e-01
8.963175e-01	4.210526e+00	-2.991555e-01
8.562911e-01	4.210526e+00	-2.916579e-01
8.054250e-01	4.210526e+00	-2.817457e-01
7.470317e-01	4.210526e+00	-2.699633e-01
6.809074e-01	4.210526e+00	-2.559818e-01
6.100852e-01	4.210526e+00	-2.403847e-01
5.354138e-01	4.210526e+00	-2.229691e-01
4.593635e-01	4.210526e+00	-2.042585e-01
3.837764e-01	4.210526e+00	-1.841224e-01
3.103069e-01	4.210526e+00	-1.630077e-01
2.415927e-01	4.210526e+00	-1.409228e-01
1.782654e-01	4.210526e+00	-1.183331e-01
1.234349e-01	4.210526e+00	-9.558566e-02
7.662509e-02	4.210526e+00	-7.318920e-02
4.106998e-02	4.210526e+00	-5.193053e-02
1.528206e-02	4.210526e+00	-3.215886e-02
2.347037e-03	4.210526e+00	-1.488740e-02
0.000000e+00	4.210526e+00	0.000000e+00
1.064939e-02	4.210526e+00	1.066461e-02
3.126595e-02	4.210526e+00	1.703450e-02
6.375031e-02	4.210526e+00	1.787236e-02
1.050105e-01	4.210526e+00	1.417221e-02
1.560448e-01	4.210526e+00	4.777214e-03
2.137742e-01	4.210526e+00	-9.048270e-03
2.782849e-01	4.210526e+00	-2.799567e-02
3.468570e-01	4.210526e+00	-5.051783e-02
4.187060e-01	4.210526e+00	-7.662000e-02
4.916930e-01	4.210526e+00	-1.047585e-01
5.642168e-01	4.210526e+00	-1.343226e-01
6.348639e-01	4.210526e+00	-1.641238e-01
7.013280e-01	4.210526e+00	-1.931337e-01
7.630418e-01	4.210526e+00	-2.206893e-01
8.172084e-01	4.210526e+00	-2.454799e-01
8.641863e-01	4.210526e+00	-2.673591e-01
9.009752e-01	4.210526e+00	-2.848204e-01
9.288372e-01	4.210526e+00	-2.982085e-01
9.448555e-01	4.210526e+00	-3.059908e-01
9.510565e-01	4.210526e+00	-3.090170e-01
9.510565e-01	5.263158e+00	-3.090170e-01
9.442611e-01	5.263158e+00	-3.078203e-01
9.267277e-01	5.263158e+00	-3.047010e-01
8.963175e-01	5.263158e+00	-2.991555e-01
8.562911e-01	5.263158e+00	-2.916579e-01
8.054250e-01	5.263158e+00	-2.817457e-01
7.470317e-01	5.263158e+00	-2.699633e-01
6.809074e-01	5.263158e+00	-2.559818e-01
6.100852e-01	5.263158e+00	-2.403847e-01
5.354138e-01	5.263158e+00	-2.229691e-01
4.593635e-01	5.263158e+00	-2.042585e-01
3.837764e-01	5.263158e+00	-1.841224e-01
3.103069e-01	5.263158e+00	-1.630077e-01
2.415927e-01	5.263158e+00	-1.409228e-01
1.782654e-01	5.263158e+00	-1.183331e-01
1.234349e-01	5.263158e+00	-9.558566e-02
7.662509e-02	5.263158e+00	-7.318920e-02
4.106998e-02	5.263158e+00	-5.193053e-02
1.528206e-02	5.263158e+00	-3.215886e-02
2.347037e-03	5.263158e+00	-1.488740e-02
0.000000e+00	5.263158e+00	0.000000e+00
1.064939e-02	5.263158e+00	1.066461e-02
3.126595e-02	5.263158e+00	1.703450e-02
6.375031e-02	5.263158e+00	1.787236e-02
1.050105e-01	5.263158e+00	1.417221e-02
1.560448e-01	5.263158e+00	4.777214e-03
2.137742e-01	5.263158e+00	-9.048270e-03
2.782849e-01	5.263158e+00	-2.799567e-02
3.468570e-01	5.263158e+00	-5.051783e-02
4.187060e-01	5.263158e+00	-7.662000e-02
4.916930e-01	5.263158e+00	-1.047585e-01
5.642168e-01	5.263158e+00	-1.343226e-01
6.348639e-01	5.263158e+00	-1.641238e-01
7.013280e-01	5.263158e+00	-1.931337e-01
7.630418e-01	5.263158e+00	-2.206893e-01
8.172084e-01	5.263158e+00	-2.454799e-01
8.641863e-01	5.263158e+00	-2.673591e-01
9.009752e-01	5.263158e+00	-2.848204e-01
9.288372e-01	5.263158e+00	-2.982085e-01
9.448555e-01	5.263158e+00	-3.059908e-01
9.510565e-01	5.263158e+00	-3.090170e-01
9.510565e-01	6.315789e+00	-3.090170e-01
9.442611e-01	6.315789e+00	-3.078203e-01
[...]
CELL_DATA 760
VECTORS V double
8.414278e-01	-6.902823e-02	-1.481724e-01
8.655499e-01	-6.885465e-02	-1.539867e-01
8.835661e-01	-6.840490e-02	-1.611267e-01
8.953336e-01	-6.761052e-02	-1.677097e-01
8.978002e-01	-6.644962e-02	-1.749533e-01
8.991145e-01	-6.490456e-02	-1.814201e-01
8.920785e-01	-6.296504e-02	-1.886234e-01
8.847698e-01	-6.060700e-02	-1.948520e-01
8.704375e-01	-5.780197e-02	-2.030123e-01
8.547994e-01	-5.451740e-02	-2.103053e-01
8.294968e-01	-5.072781e-02	-2.209752e-01
7.985776e-01	-4.641901e-02	-2.295063e-01
7.512315e-01	-4.162397e-02	-2.414470e-01
6.892114e-01	-3.639385e-02	-2.458511e-01
6.025660e-01	-3.076656e-02	-2.499856e-01
4.718964e-01	-2.486492e-02	-2.257820e-01
2.701953e-01	-1.869686e-02	-1.615518e-01
-1.736471e-02	-1.242843e-02	1.331357e-02
-4.217473e-01	-5.861094e-03	5.631372e-01
-3.426708e-01	7.190907e-04	2.173582e+00
2.326950e+00	8.431833e-03	2.330275e+00
2.541640e+00	1.519629e-02	7.852892e-01
2.210516e+00	2.214224e-02	5.701521e-02
1.925501e+00	2.898936e-02	-1.726758e-01
1.720166e+00	3.597866e-02	-3.166688e-01
1.570391e+00	4.294505e-02	-3.760892e-01
1.435543e+00	4.988285e-02	-4.216323e-01
1.336730e+00	5.661355e-02	-4.390425e-01
1.250636e+00	6.301899e-02	-4.543458e-01
1.181697e+00	6.890131e-02	-4.555766e-01
1.121869e+00	7.414505e-02	-4.573262e-01
1.071613e+00	7.861307e-02	-4.520409e-01
1.027475e+00	8.224322e-02	-4.484670e-01
9.872013e-01	8.502778e-02	-4.407919e-01
9.499808e-01	8.701814e-02	-4.347795e-01
9.115294e-01	8.831223e-02	-4.245309e-01
8.743629e-01	8.903835e-02	-4.150016e-01
8.341890e-01	8.934556e-02	-4.008430e-01
7.910609e-01	8.938947e-02	-3.843279e-01
7.483099e-01	8.934378e-02	-3.651824e-01
8.268621e-01	-4.834025e-02	-1.456074e-01
8.473515e-01	-4.821595e-02	-1.507491e-01
8.618158e-01	-4.789744e-02	-1.571603e-01
8.705039e-01	-4.733366e-02	-1.630587e-01
8.702575e-01	-4.650196e-02	-1.695860e-01
8.688757e-01	-4.538353e-02	-1.753186e-01
8.588792e-01	-4.396769e-02	-1.816036e-01
8.480124e-01	-4.223946e-02	-1.867570e-01
8.293452e-01	-4.018401e-02	-1.934284e-01
8.083604e-01	-3.778620e-02	-1.988799e-01
7.765765e-01	-3.501629e-02	-2.068774e-01
7.379210e-01	-3.192467e-02	-2.120740e-01
6.816215e-01	-2.848877e-02	-2.190742e-01
6.085756e-01	-2.476364e-02	-2.170872e-01
5.087828e-01	-2.077522e-02	-2.110779e-01
3.607912e-01	-1.660657e-02	-1.726229e-01
1.373946e-01	-1.225945e-02	-8.214923e-02
-1.814733e-01	-7.847243e-03	1.391361e-01
-6.031665e-01	-3.230121e-03	8.053768e-01
-4.198323e-01	1.389042e-03	2.663022e+00
2.682442e+00	6.788815e-03	2.686275e+00
2.844053e+00	1.150452e-02	8.787256e-01
2.433234e+00	1.631831e-02	6.275972e-02
2.097324e+00	2.102727e-02	-1.880846e-01
1.860479e+00	2.579011e-02	-3.424993e-01
1.689643e+00	3.048718e-02	-4.046486e-01
1.539061e+00	3.511267e-02	-4.520364e-01
1.427807e+00	3.954845e-02	-4.689562e-01
1.330718e+00	4.372266e-02	-4.834389e-01
1.251904e+00	4.752766e-02	-4.826434e-01
1.182669e+00	5.085314e-02	-4.821112e-01
1.123339e+00	5.367031e-02	-4.738603e-01
1.070393e+00	5.592948e-02	-4.671999e-01
1.021742e+00	5.763508e-02	-4.562147e-01
9.765912e-01	5.882835e-02	-4.469583e-01
9.307615e-01	5.958013e-02	-4.334880e-01
8.867505e-01	5.997882e-02	-4.208812e-01
8.402939e-01	6.012519e-02	-4.037765e-01
7.917021e-01	6.012155e-02	-3.846394e-01
7.448116e-01	6.007824e-02	-3.634752e-01
8.205671e-01	-2.040998e-02	-1.444989e-01
8.397269e-01	-2.035815e-02	-1.493926e-01
8.527114e-01	-2.022780e-02	-1.555000e-01
8.598718e-01	-1.999178e-02	-1.610672e-01
8.580829e-01	-1.963320e-02	-1.672136e-01
8.551183e-01	-1.913537e-02	-1.725427e-01
8.434971e-01	-1.848855e-02	-1.783512e-01
8.308958e-01	-1.768739e-02	-1.829874e-01
8.103390e-01	-1.670480e-02	-1.889955e-01
7.869511e-01	-1.558463e-02	-1.936126e-01
7.528862e-01	-1.431263e-02	-2.005664e-01
7.115940e-01	-1.290358e-02	-2.045077e-01
6.517762e-01	-1.134752e-02	-2.094819e-01
5.746240e-01	-9.680638e-03	-2.049762e-01
4.698424e-01	-7.913011e-03	-1.949228e-01
3.151003e-01	-6.077095e-03	-1.507618e-01
8.311160e-02	-4.169625e-03	-4.969304e-02
-2.482711e-01	-2.238516e-03	1.903502e-01
-6.766849e-01	-2.229182e-04	9.035420e-01
-4.508724e-01	1.785255e-03	2.859911e+00
2.823539e+00	4.114241e-03	2.827574e+00
2.961775e+00	6.122114e-03	9.150981e-01
2.517855e+00	8.135487e-03	6.494234e-02
2.160621e+00	1.005922e-02	-1.937610e-01
1.910300e+00	1.194957e-02	-3.516710e-01
1.730247e+00	1.375298e-02	-4.143727e-01
1.572755e+00	1.546484e-02	-4.619325e-01
1.456100e+00	1.704455e-02	-4.782489e-01
1.354632e+00	1.847458e-02	-4.921270e-01
1.271680e+00	1.974052e-02	-4.902677e-01
1.198782e+00	2.080571e-02	-4.886794e-01
1.136469e+00	2.166596e-02	-4.793992e-01
1.080542e+00	2.230295e-02	-4.716293e-01
1.029162e+00	2.277451e-02	-4.595278e-01
9.815290e-01	2.307657e-02	-4.492182e-01
9.334848e-01	2.324122e-02	-4.347563e-01
8.875223e-01	2.330368e-02	-4.212475e-01
8.394013e-01	2.330145e-02	-4.033476e-01
7.894775e-01	2.327099e-02	-3.835587e-01
7.416777e-01	2.324420e-02	-3.619458e-01
8.181637e-01	-1.021917e-02	-1.440756e-01
8.367503e-01	-1.019814e-02	-1.488630e-01
8.489796e-01	-1.014186e-02	-1.548195e-01
8.553676e-01	-1.003606e-02	-1.602235e-01
8.527906e-01	-9.870891e-03	-1.661823e-01
8.489872e-01	-9.623041e-03	-1.713056e-01
8.364976e-01	-9.310397e-03	-1.768712e-01
8.226024e-01	-8.912982e-03	-1.811610e-01
8.009738e-01	-8.439712e-03	-1.868113e-01
7.769543e-01	-7.875890e-03	-1.911531e-01
7.415341e-01	-7.236558e-03	-1.975422e-01
6.984064e-01	-6.499079e-03	-2.007177e-01
6.368514e-01	-5.693658e-03	-2.046851e-01
5.575429e-01	-4.817585e-03	-1.988832e-01
4.501377e-01	-3.882897e-03	-1.867479e-01
2.918551e-01	-2.907025e-03	-1.396400e-01
5.539720e-02	-1.893289e-03	-3.312240e-02
-2.824231e-01	-8.597841e-04	2.165346e-01
-7.142766e-01	2.202254e-04	9.537362e-01
-4.667052e-01	1.280235e-03	2.960340e+00
2.895104e+00	2.538714e-03	2.899242e+00
3.021018e+00	3.602259e-03	9.334024e-01
2.560061e+00	4.661216e-03	6.603092e-02
2.191843e+00	5.664150e-03	-1.965609e-01
1.934611e+00	6.643608e-03	-3.561464e-01
1.749849e+00	7.563579e-03	-4.190671e-01
1.588858e+00	8.427878e-03	-4.666621e-01
1.469509e+00	9.224824e-03	-4.826529e-01
1.365845e+00	9.933465e-03	-4.962005e-01
1.281318e+00	1.055249e-02	-4.939834e-01
1.206780e+00	1.109094e-02	-4.919401e-01
1.142482e+00	1.152227e-02	-4.819355e-01
1.085235e+00	1.186035e-02	-4.736781e-01
1.032963e+00	1.209851e-02	-4.612250e-01
9.841942e-01	1.225859e-02	-4.504380e-01
9.351514e-01	1.233959e-02	-4.355325e-01
8.883117e-01	1.238355e-02	-4.216222e-01
8.394626e-01	1.239375e-02	-4.033771e-01
7.889787e-01	1.238692e-02	-3.833163e-01
7.407085e-01	1.237826e-02	-3.614728e-01
8.170362e-01	-5.651096e-03	-1.438771e-01
8.351958e-01	-5.639978e-03	-1.485865e-01
8.470151e-01	-5.608484e-03	-1.544613e-01
8.529629e-01	-5.549126e-03	-1.597730e-01
8.496304e-01	-5.452968e-03	-1.655665e-01
8.453890e-01	-5.312720e-03	-1.705795e-01
8.325148e-01	-5.141416e-03	-1.760291e-01
8.184983e-01	-4.921784e-03	-1.802571e-01
7.963402e-01	-4.656937e-03	-1.857306e-01
7.711553e-01	-4.321253e-03	-1.897264e-01
7.348929e-01	-3.930428e-03	-1.957730e-01
6.910302e-01	-3.494280e-03	-1.985978e-01
6.284241e-01	-3.022893e-03	-2.019765e-01
5.477222e-01	-2.602681e-03	-1.953800e-01
4.387547e-01	-2.059526e-03	-1.820254e-01
2.784606e-01	-1.452152e-03	-1.332313e-01
3.939748e-02	-8.429255e-04	-2.355604e-02
-3.023259e-01	-2.235357e-04	2.317941e-01
-7.358688e-01	4.240558e-04	9.825672e-01
-4.758771e-01	1.068508e-03	3.018517e+00
2.937201e+00	1.811498e-03	2.941399e+00
3.055113e+00	2.446054e-03	9.439369e-01
2.584228e+00	3.074254e-03	6.665428e-02
2.209730e+00	3.664836e-03	-1.981650e-01
1.948395e+00	4.234260e-03	-3.586839e-01
1.760795e+00	4.757379e-03	-4.216888e-01
1.597887e+00	5.242946e-03	-4.693140e-01
1.476955e+00	5.786625e-03	-4.850985e-01
1.371929e+00	6.190804e-03	-4.984107e-01
1.286287e+00	6.529105e-03	-4.958990e-01
1.210926e+00	6.809928e-03	-4.936300e-01
1.146301e+00	7.039312e-03	-4.835467e-01
1.088262e+00	7.236738e-03	-4.749993e-01
1.034932e+00	7.379117e-03	-4.621040e-01
9.854649e-01	7.477214e-03	-4.510195e-01
9.358672e-01	7.525671e-03	-4.358659e-01
8.888552e-01	7.549000e-03	-4.218802e-01
8.396026e-01	7.555420e-03	-4.034444e-01
7.887836e-01	7.551578e-03	-3.832215e-01
7.403507e-01	7.547319e-03	-3.612982e-01
8.162979e-01	-3.274443e-03	-1.437471e-01
8.342372e-01	-3.267430e-03	-1.484159e-01
8.457859e-01	-3.248579e-03	-1.542371e-01
8.513937e-01	-3.212195e-03	-1.594791e-01
8.479585e-01	-3.150586e-03	-1.652407e-01
8.435848e-01	-3.098054e-03	-1.702155e-01
8.304499e-01	-2.981045e-03	-1.755925e-01
8.157027e-01	-2.837299e-03	-1.796414e-01
7.928630e-01	-2.653279e-03	-1.849196e-01
7.674156e-01	-2.421179e-03	-1.888063e-01
7.307255e-01	-2.182023e-03	-1.946628e-01
6.863095e-01	-1.956515e-03	-1.972411e-01
6.244297e-01	-1.642697e-03	-2.006927e-01
5.432966e-01	-1.424810e-03	-1.938013e-01
4.314582e-01	-1.060640e-03	-1.789984e-01
2.694161e-01	-6.832808e-04	-1.289039e-01
2.915870e-02	-2.879108e-04	-1.743420e-02
-3.148258e-01	1.066234e-04	2.413779e-01
-7.499586e-01	5.179552e-04	1.001381e+00
-4.817076e-01	9.414387e-04	3.055500e+00
2.962598e+00	1.395635e-03	2.966831e+00
3.076516e+00	1.797505e-03	9.505496e-01
2.599270e+00	2.193451e-03	6.704225e-02
2.220558e+00	2.563343e-03	-1.991360e-01
1.956501e+00	2.913127e-03	-3.601762e-01
1.767112e+00	3.239450e-03	-4.232015e-01
1.604502e+00	3.652804e-03	-4.712568e-01
1.482601e+00	3.902299e-03	-4.869530e-01
1.375514e+00	4.152441e-03	-4.997131e-01
1.289130e+00	4.371053e-03	-4.969951e-01
1.213169e+00	4.535945e-03	-4.945445e-01
1.147931e+00	4.641546e-03	-4.842342e-01
1.089787e+00	4.736009e-03	-4.756646e-01
1.036445e+00	4.810885e-03	-4.627797e-01
9.865885e-01	4.856867e-03	-4.515338e-01
9.365266e-01	4.918334e-03	-4.361730e-01
8.890390e-01	4.927433e-03	-4.219674e-01
8.396005e-01	4.929327e-03	-4.034433e-01
7.886076e-01	4.926380e-03	-3.831360e-01
7.400563e-01	4.923276e-03	-3.611545e-01
8.158593e-01	-2.026098e-03	-1.436698e-01
8.336793e-01	-2.022071e-03	-1.483167e-01
8.450697e-01	-2.011897e-03	-1.541065e-01
8.504525e-01	-1.993310e-03	-1.593028e-01
8.473538e-01	-1.963201e-03	-1.651228e-01
8.423949e-01	-2.007163e-03	-1.699754e-01
8.284851e-01	-1.884941e-03	-1.751770e-01
8.138260e-01	-1.780085e-03	-1.792281e-01
7.907204e-01	-1.680963e-03	-1.844199e-01
7.649698e-01	-1.539658e-03	-1.882046e-01
7.288167e-01	-1.383417e-03	-1.941543e-01
6.838593e-01	-1.212874e-03	-1.965369e-01
6.209874e-01	-1.013150e-03	-1.995864e-01
5.391665e-01	-7.339472e-04	-1.923280e-01
4.266859e-01	-4.992408e-04	-1.770185e-01
2.642357e-01	-2.926183e-04	-1.264253e-01
2.250987e-02	-4.910151e-05	-1.345882e-02
-3.229404e-01	1.730270e-04	2.475993e-01
-7.588436e-01	4.324478e-04	1.013244e+00
-4.854282e-01	6.889881e-04	3.079101e+00
2.979276e+00	9.836446e-04	2.983533e+00
3.090160e+00	1.233476e-03	9.547653e-01
2.608854e+00	1.473719e-03	6.728943e-02
2.227525e+00	1.731559e-03	-1.997608e-01
1.961950e+00	1.950962e-03	-3.611794e-01
1.773581e+00	2.163981e-03	-4.247508e-01
1.607814e+00	2.361470e-03	-4.722297e-01
1.483889e+00	2.462247e-03	-4.873760e-01
1.378036e+00	2.606347e-03	-5.006293e-01
1.291124e+00	2.742368e-03	-4.977640e-01
1.214315e+00	2.854913e-03	-4.950116e-01
1.148855e+00	2.945066e-03	-4.846238e-01
1.090527e+00	3.043322e-03	-4.759878e-01
1.036687e+00	3.108538e-03	-4.628875e-01
9.871656e-01	3.229087e-03	-4.517979e-01
9.372666e-01	3.220538e-03	-4.365176e-01
8.891268e-01	3.214562e-03	-4.220090e-01
8.395986e-01	3.211597e-03	-4.034425e-01
7.885041e-01	3.208347e-03	-3.830857e-01
7.398753e-01	3.206062e-03	-3.610662e-01
8.156222e-01	-1.127520e-03	-1.436281e-01
8.334104e-01	-1.124689e-03	-1.482689e-01
8.447775e-01	-1.116005e-03	-1.540532e-01
8.501493e-01	-1.125218e-03	-1.592460e-01
8.483744e-01	-1.105388e-03	-1.653217e-01
8.420474e-01	-1.054369e-03	-1.699053e-01
8.269709e-01	-1.013536e-03	-1.748569e-01
8.128088e-01	-9.853530e-04	-1.790041e-01
7.896123e-01	-9.927496e-04	-1.841615e-01
7.635095e-01	-9.128744e-04	-1.878453e-01
7.264541e-01	-8.100924e-04	-1.935249e-01
6.813780e-01	-6.553263e-04	-1.958239e-01
6.178049e-01	-5.755346e-04	-1.985635e-01
5.356176e-01	-3.411832e-04	-1.910621e-01
4.242376e-01	-2.511704e-04	-1.760028e-01
2.611726e-01	-1.230998e-04	-1.249598e-01
1.915159e-02	1.417474e-05	-1.145088e-02
-3.270318e-01	1.562710e-04	2.507362e-01
-7.642169e-01	3.057973e-04	1.020419e+00
-4.876696e-01	4.548108e-04	3.093318e+00
2.989258e+00	6.263206e-04	2.993530e+00
3.097990e+00	7.720198e-04	9.571846e-01
2.615465e+00	9.152257e-04	6.745996e-02
2.232286e+00	1.048920e-03	-2.001877e-01
1.965187e+00	1.176522e-03	-3.617751e-01
1.774137e+00	1.296189e-03	-4.248839e-01
1.608952e+00	1.322701e-03	-4.725639e-01
1.486018e+00	1.433000e-03	-4.880754e-01
1.379166e+00	1.539516e-03	-5.010399e-01
1.292266e+00	1.599476e-03	-4.982042e-01
1.215708e+00	1.667231e-03	-4.955793e-01
1.150331e+00	1.812406e-03	-4.852466e-01
1.091979e+00	1.832836e-03	-4.766215e-01
1.039073e+00	1.874419e-03	-4.639530e-01
9.885146e-01	1.886150e-03	-4.524153e-01
9.362527e-01	1.871286e-03	-4.360454e-01
8.888264e-01	1.874249e-03	-4.218665e-01
8.394130e-01	1.895911e-03	-4.033533e-01
7.883350e-01	1.892374e-03	-3.830036e-01
7.397063e-01	1.890806e-03	-3.609837e-01
8.153841e-01	-1.360131e-03	-1.435862e-01
8.329944e-01	-1.360181e-03	-1.481948e-01
8.452005e-01	-1.360855e-03	-1.541303e-01
8.500973e-01	-1.343065e-03	-1.592363e-01
8.458723e-01	-1.301659e-03	-1.648341e-01
8.408242e-01	-1.224475e-03	-1.696585e-01
8.274332e-01	-1.128364e-03	-1.749546e-01
8.135467e-01	-1.192214e-03	-1.791666e-01
7.897212e-01	-9.737137e-04	-1.841869e-01
7.625710e-01	-1.024108e-03	-1.876144e-01
7.254535e-01	-6.687972e-04	-1.932584e-01
6.807103e-01	-7.585996e-04	-1.956320e-01
6.166875e-01	-3.257607e-04	-1.982044e-01
5.342362e-01	-3.914902e-04	-1.905693e-01
4.231724e-01	6.800889e-05	-1.755608e-01
2.593560e-01	4.080974e-04	-1.240906e-01
1.654982e-02	6.033046e-04	-9.895263e-03
-3.303947e-01	6.511781e-04	2.533146e-01
-7.670871e-01	6.990640e-04	1.024251e+00
-4.888945e-01	7.607184e-04	3.101088e+00
2.994810e+00	8.422972e-04	2.999090e+00
3.102848e+00	9.209691e-04	9.586855e-01
2.617757e+00	1.017741e-03	6.751907e-02
2.233989e+00	1.099725e-03	-2.003405e-01
1.966909e+00	1.034153e-03	-3.620923e-01
1.775986e+00	8.507455e-04	-4.253267e-01
1.609949e+00	4.980774e-04	-4.728569e-01
1.486896e+00	6.297978e-04	-4.883637e-01
1.380196e+00	3.113254e-04	-5.014139e-01
1.292737e+00	4.395916e-04	-4.983858e-01
1.216975e+00	1.435059e-04	-4.960961e-01
1.150996e+00	2.931209e-04	-4.855273e-01
1.091345e+00	3.321790e-05	-4.763447e-01
1.037473e+00	8.844674e-05	-4.632384e-01
9.871436e-01	-1.295957e-04	-4.517878e-01
9.370152e-01	-7.193653e-05	-4.364005e-01
8.896339e-01	-8.640315e-05	-4.222497e-01
8.402962e-01	-9.236993e-05	-4.037776e-01
7.882362e-01	-8.727286e-05	-3.829556e-01
7.396352e-01	-8.618750e-05	-3.609490e-01
8.156306e-01	3.234415e-05	-1.436296e-01
8.334577e-01	1.469438e-05	-1.482773e-01
8.440922e-01	1.307225e-05	-1.539282e-01
8.486064e-01	3.441539e-05	-1.589570e-01
8.459251e-01	3.195990e-05	-1.648444e-01
8.390405e-01	3.069501e-05	-1.692986e-01
8.265940e-01	2.898892e-05	-1.747772e-01
8.104868e-01	2.952708e-05	-1.784928e-01
7.874160e-01	7.186631e-05	-1.836492e-01
7.594813e-01	5.991246e-05	-1.868543e-01
7.229477e-01	5.151225e-05	-1.925908e-01
6.769415e-01	1.846640e-05	-1.945488e-01
6.124782e-01	-8.169818e-06	-1.968515e-01
5.301362e-01	-3.783706e-06	-1.891068e-01
4.110835e-01	2.889830e-05	-1.705455e-01
2.510624e-01	-2.465026e-06	-1.201225e-01
1.358922e-02	1.949750e-06	-8.125095e-03
-3.294896e-01	5.466053e-06	2.526206e-01
-7.671628e-01	7.617216e-06	1.024352e+00
-4.891997e-01	8.751055e-06	3.103023e+00
2.997194e+00	9.344905e-06	3.001477e+00
3.105872e+00	9.427506e-06	9.596198e-01
2.621168e+00	9.060344e-06	6.760705e-02
2.232268e+00	7.829971e-06	-2.001861e-01
1.959970e+00	4.122644e-05	-3.608148e-01
1.764753e+00	3.855567e-05	-4.226366e-01
1.605958e+00	6.083222e-06	-4.716845e-01
1.483227e+00	5.973994e-05	-4.871586e-01
1.376801e+00	4.822146e-05	-5.001809e-01
1.290115e+00	3.736036e-05	-4.973750e-01
1.213847e+00	2.942604e-05	-4.948207e-01
1.149025e+00	-1.460642e-05	-4.846955e-01
1.089120e+00	-1.162104e-05	-4.753735e-01
1.036926e+00	-1.296589e-05	-4.629945e-01
9.856606e-01	-1.214844e-05	-4.511091e-01
9.371779e-01	-1.235148e-05	-4.364763e-01
8.883359e-01	-1.132935e-05	-4.216336e-01
8.393225e-01	-3.379998e-05	-4.033097e-01
7.886842e-01	-3.270445e-05	-3.831732e-01
7.398725e-01	-1.516866e-05	-3.610648e-01
8.183462e-01	1.435051e-03	-1.441078e-01
8.337100e-01	1.435294e-03	-1.483221e-01
8.444003e-01	1.436682e-03	-1.539844e-01
8.497040e-01	1.420864e-03	-1.591626e-01
8.459448e-01	1.382181e-03	-1.648483e-01
8.408759e-01	1.395477e-03	-1.696689e-01
8.274495e-01	1.256958e-03	-1.749581e-01
8.129192e-01	1.319233e-03	-1.790284e-01
7.893257e-01	1.051556e-03	-1.840946e-01
7.628379e-01	1.106141e-03	-1.876801e-01
7.259934e-01	7.601035e-04	-1.934022e-01
6.815082e-01	7.761285e-04	-1.958613e-01
6.170107e-01	3.478753e-04	-1.983083e-01
5.337050e-01	4.409629e-04	-1.903798e-01
4.230836e-01	-5.151306e-05	-1.755240e-01
2.599113e-01	-3.898281e-04	-1.243563e-01
1.637805e-02	-5.848163e-04	-9.792558e-03
-3.305458e-01	-6.073784e-04	2.534304e-01
-7.671835e-01	-6.843169e-04	1.024380e+00
-4.889145e-01	-7.456762e-04	3.101214e+00
2.994839e+00	-8.291025e-04	2.999119e+00
3.102832e+00	-8.814256e-04	9.586804e-01
2.617701e+00	-9.769457e-04	6.751762e-02
2.234887e+00	-1.091024e-03	-2.004210e-01
1.967463e+00	-1.028980e-03	-3.621942e-01
1.775350e+00	-8.167913e-04	-4.251745e-01
1.610333e+00	-4.710642e-04	-4.729697e-01
1.487452e+00	-6.382965e-04	-4.885463e-01
1.379904e+00	-3.312468e-04	-5.013079e-01
1.292500e+00	-3.929156e-04	-4.982944e-01
1.216327e+00	-1.104709e-04	-4.958318e-01
1.150462e+00	-2.082843e-04	-4.853017e-01
1.091368e+00	4.578316e-06	-4.763550e-01
1.037464e+00	-9.598633e-05	-4.632344e-01
9.871545e-01	1.359506e-05	-4.517928e-01
9.370283e-01	-1.990596e-05	-4.364066e-01
8.892131e-01	5.767049e-06	-4.220500e-01
8.395092e-01	1.427447e-05	-4.033995e-01
7.888538e-01	9.733382e-06	-3.832557e-01
7.423207e-01	8.695077e-06	-3.622596e-01
8.155898e-01	1.191634e-03	-1.436224e-01
8.333555e-01	1.206407e-03	-1.482591e-01
8.446803e-01	1.199262e-03	-1.540355e-01
8.500305e-01	1.193717e-03	-1.592238e-01
8.463387e-01	1.082497e-03	-1.649250e-01
8.413706e-01	1.058486e-03	-1.697687e-01
8.276168e-01	9.854006e-04	-1.749934e-01
8.135507e-01	9.676231e-04	-1.791675e-01
7.902048e-01	9.429037e-04	-1.842997e-01
7.633324e-01	8.643949e-04	-1.878018e-01
7.272909e-01	7.760664e-04	-1.937479e-01
6.823219e-01	7.060456e-04	-1.960951e-01
6.173708e-01	6.259888e-04	-1.984240e-01
5.356578e-01	4.773530e-04	-1.910765e-01
4.247826e-01	3.432163e-04	-1.762289e-01
2.611333e-01	2.366223e-04	-1.249410e-01
1.866819e-02	8.858901e-05	-1.116185e-02
-3.271598e-01	-6.145178e-05	2.508344e-01
-7.632574e-01	-2.169819e-04	1.019138e+00
-4.876568e-01	-3.707603e-04	3.093236e+00
2.990721e+00	-5.471031e-04	2.994995e+00
3.098979e+00	-6.966463e-04	9.574899e-01
2.614295e+00	-8.433408e-04	6.742978e-02
2.231485e+00	-9.794033e-04	-2.001159e-01
1.965752e+00	-1.143265e-03	-3.618792e-01
1.774472e+00	-1.260528e-03	-4.249642e-01
1.608287e+00	-1.368568e-03	-4.723688e-01
1.485378e+00	-1.498563e-03	-4.878650e-01
1.379906e+00	-1.582562e-03	-5.013088e-01
1.292929e+00	-1.646437e-03	-4.984596e-01
1.216181e+00	-1.699128e-03	-4.957723e-01
1.150416e+00	-1.775450e-03	-4.852824e-01
1.090747e+00	-1.796967e-03	-4.760839e-01
1.036910e+00	-1.802666e-03	-4.629870e-01
9.870274e-01	-1.824501e-03	-4.517347e-01
9.369311e-01	-1.845870e-03	-4.363614e-01
8.891650e-01	-1.763464e-03	-4.220272e-01
8.395187e-01	-1.773899e-03	-4.034041e-01
7.883708e-01	-1.773658e-03	-3.830210e-01
7.397135e-01	-1.790207e-03	-3.609872e-01
8.158669e-01	1.716230e-03	-1.436712e-01
8.336864e-01	1.705334e-03	-1.483180e-01
8.448116e-01	1.581715e-03	-1.540594e-01
8.529343e-01	1.674597e-03	-1.597677e-01
8.485001e-01	1.702258e-03	-1.653462e-01
8.426044e-01	1.711927e-03	-1.700177e-01
8.288056e-01	1.670997e-03	-1.752448e-01
8.135258e-01	1.608735e-03	-1.791620e-01
7.907306e-01	1.538566e-03	-1.844223e-01
7.650282e-01	1.417827e-03	-1.882190e-01
7.280652e-01	1.270714e-03	-1.939541e-01
6.835075e-01	1.185409e-03	-1.964358e-01
6.201605e-01	9.789297e-04	-1.993206e-01
5.379230e-01	7.830100e-04	-1.918845e-01