# vtk DataFile Version 2.0
OUTPUT by 3D-VPM
ASCII
DATASET UNSTRUCTURED_GRID
POINTS 820 double
1.000000e+00	0.000000e+00	3.307184e-03
9.931674e-01	0.000000e+00	2.345359e-03
9.755282e-01	0.000000e+00	-1.061261e-04
9.448927e-01	0.000000e+00	-4.229226e-03
9.045085e-01	0.000000e+00	-9.467456e-03
8.530688e-01	0.000000e+00	-1.575888e-02
7.938926e-01	0.000000e+00	-2.259768e-02
7.266841e-01	0.000000e+00	-2.973402e-02
6.545085e-01	0.000000e+00	-3.678555e-02
5.781101e-01	0.000000e+00	-4.329703e-02
5.000000e-01	0.000000e+00	-4.900307e-02
4.218900e-01	0.000000e+00	-5.321015e-02
3.454915e-01	0.000000e+00	-5.583222e-02
2.733159e-01	0.000000e+00	-5.606213e-02
2.061074e-01	0.000000e+00	-5.414725e-02
1.469312e-01	0.000000e+00	-4.945670e-02
9.549150e-02	0.000000e+00	-4.262143e-02
5.510729e-02	0.000000e+00	-3.339037e-02
2.447174e-02	0.000000e+00	-2.255530e-02
6.832625e-03	0.000000e+00	-1.012630e-02
0.000000e+00	0.000000e+00	3.307184e-03
6.832625e-03	0.000000e+00	1.674067e-02
2.447174e-02	0.000000e+00	2.916966e-02
5.510728e-02	0.000000e+00	4.000473e-02
9.549150e-02	0.000000e+00	4.923579e-02
1.469312e-01	0.000000e+00	5.607107e-02
2.061074e-01	0.000000e+00	6.076162e-02
2.733159e-01	0.000000e+00	6.267649e-02
3.454915e-01	0.000000e+00	6.244658e-02
4.218900e-01	0.000000e+00	5.982451e-02
5.000000e-01	0.000000e+00	5.561743e-02
5.781101e-01	0.000000e+00	4.991140e-02
6.545085e-01	0.000000e+00	4.339991e-02
7.266841e-01	0.000000e+00	3.634838e-02
7.938926e-01	0.000000e+00	2.921204e-02
8.530688e-01	0.000000e+00	2.237324e-02
9.045085e-01	0.000000e+00	1.608182e-02
9.448927e-01	0.000000e+00	1.084359e-02
9.755282e-01	0.000000e+00	6.720494e-03
9.931674e-01	0.000000e+00	4.269009e-03
1.000000e+00	0.000000e+00	3.307184e-03
1.000000e+00	1.052632e+00	3.307184e-03
9.931674e-01	1.052632e+00	2.345359e-03
9.755282e-01	1.052632e+00	-1.061261e-04
9.448927e-01	1.052632e+00	-4.229226e-03
9.045085e-01	1.052632e+00	-9.467456e-03
8.530689e-01	1.052632e+00	-1.575888e-02
7.938926e-01	1.052632e+00	-2.259768e-02
7.266841e-01	1.052632e+00	-2.973402e-02
6.545085e-01	1.052632e+00	-3.678555e-02
5.781101e-01	1.052632e+00	-4.329703e-02
5.000000e-01	1.052632e+00	-4.900307e-02
4.218900e-01	1.052632e+00	-5.321015e-02
3.454915e-01	1.052632e+00	-5.583222e-02
2.733158e-01	1.052632e+00	-5.606213e-02
2.061074e-01	1.052632e+00	-5.414725e-02
1.469311e-01	1.052632e+00	-4.945670e-02
9.549150e-02	1.052632e+00	-4.262143e-02
5.510729e-02	1.052632e+00	-3.339037e-02
2.447174e-02	1.052632e+00	-2.255530e-02
6.832625e-03	1.052632e+00	-1.012630e-02
0.000000e+00	1.052632e+00	3.307184e-03
6.832625e-03	1.052632e+00	1.674067e-02
2.447174e-02	1.052632e+00	2.916966e-02
5.510728e-02	1.052632e+00	4.000473e-02
9.549150e-02	1.052632e+00	4.923579e-02
1.469311e-01	1.052632e+00	5.607107e-02
2.061074e-01	1.052632e+00	6.076162e-02
2.733158e-01	1.052632e+00	6.267649e-02
3.454915e-01	1.052632e+00	6.244658e-02
4.218900e-01	1.052632e+00	5.982451e-02
5.000000e-01	1.052632e+00	5.561743e-02
5.781101e-01	1.052632e+00	4.991140e-02
6.545085e-01	1.052632e+00	4.339991e-02
7.266841e-01	1.052632e+00	3.634838e-02
7.938926e-01	1.052632e+00	2.921204e-02
8.530689e-01	1.052632e+00	2.237324e-02
9.045085e-01	1.052632e+00	1.608182e-02
9.448927e-01	1.052632e+00	1.084359e-02
9.755282e-01	1.052632e+00	6.720494e-03
9.931674e-01	1.052632e+00	4.269009e-03
1.000000e+00	1.052632e+00	3.307184e-03
1.000000e+00	2.105263e+00	3.307184e-03
9.931674e-01	2.105263e+00	2.345359e-03
9.755282e-01	2.105263e+00	-1.061261e-04
9.448927e-01	2.105263e+00	-4.229226e-03
9.045085e-01	2.105263e+00	-9.467456e-03
8.530689e-01	2.105263e+00	-1.575888e-02
7.938926e-01	2.105263e+00	-2.259768e-02
7.266841e-01	2.105263e+00	-2.973402e-02
6.545085e-01	2.105263e+00	-3.678555e-02
5.781101e-01	2.105263e+00	-4.329703e-02
5.000000e-01	2.105263e+00	-4.900307e-02
4.218900e-01	2.105263e+00	-5.321015e-02
3.454915e-01	2.105263e+00	-5.583222e-02
2.733158e-01	2.105263e+00	-5.606213e-02
2.061074e-01	2.105263e+00	-5.414725e-02
1.469312e-01	2.105263e+00	-4.945670e-02
9.549150e-02	2.105263e+00	-4.262143e-02
5.510729e-02	2.105263e+00	-3.339037e-02
2.447174e-02	2.105263e+00	-2.255530e-02
6.832625e-03	2.105263e+00	-1.012630e-02
0.000000e+00	2.105263e+00	3.307184e-03
6.832625e-03	2.105263e+00	1.674067e-02
2.447174e-02	2.105263e+00	2.916966e-02
5.510728e-02	2.105263e+00	4.000473e-02
9.549150e-02	2.105263e+00	4.923579e-02
1.469312e-01	2.105263e+00	5.607107e-02
2.061074e-01	2.105263e+00	6.076162e-02
2.733158e-01	2.105263e+00	6.267649e-02
3.454915e-01	2.105263e+00	6.244658e-02
4.218900e-01	2.105263e+00	5.982451e-02
5.000000e-01	2.105263e+00	5.561743e-02
5.781101e-01	2.105263e+00	4.991140e-02
6.545085e-01	2.105263e+00	4.339991e-02
7.266841e-01	2.105263e+00	3.634838e-02
7.938926e-01	2.105263e+00	2.921204e-02
8.530689e-01	2.105263e+00	2.237324e-02
9.045085e-01	2.105263e+00	1.608182e-02
9.448927e-01	2.105263e+00	1.084359e-02
9.755282e-01	2.105263e+00	6.720494e-03
9.931674e-01	2.105263e+00	4.269009e-03
1.000000e+00	2.105263e+00	3.307184e-03
1.000000e+00	3.157895e+00	3.307184e-03
9.931674e-01	3.157895e+00	2.345359e-03
9.755282e-01	3.157895e+00	-1.061261e-04
9.448927e-01	3.157895e+00	-4.229226e-03
9.045085e-01	3.157895e+00	-9.467456e-03
8.530689e-01	3.157895e+00	-1.575888e-02
7.938926e-01	3.157895e+00	-2.259768e-02
7.266842e-01	3.157895e+00	-2.973402e-02
6.545085e-01	3.157895e+00	-3.678555e-02
5.781101e-01	3.157895e+00	-4.329703e-02
5.000000e-01	3.157895e+00	-4.900307e-02
4.218900e-01	3.157895e+00	-5.321015e-02
3.454915e-01	3.157895e+00	-5.583222e-02
2.733158e-01	3.157895e+00	-5.606213e-02
2.061074e-01	3.157895e+00	-5.414725e-02
1.469312e-01	3.157895e+00	-4.945670e-02
9.549150e-02	3.157895e+00	-4.262143e-02
5.510729e-02	3.157895e+00	-3.339037e-02
2.447174e-02	3.157895e+00	-2.255530e-02
6.832625e-03	3.157895e+00	-1.012630e-02
0.000000e+00	3.157895e+00	3.307184e-03
6.832625e-03	3.157895e+00	1.674067e-02
2.447174e-02	3.157895e+00	2.916966e-02
5.510728e-02	3.157895e+00	4.000473e-02
9.549150e-02	3.157895e+00	4.923579e-02
1.469312e-01	3.157895e+00	5.607107e-02
2.061074e-01	3.157895e+00	6.076162e-02
2.733158e-01	3.157895e+00	6.267649e-02
3.454915e-01	3.157895e+00	6.244658e-02
4.218900e-01	3.157895e+00	5.982451e-02
5.000000e-01	3.157895e+00	5.561743e-02
5.781101e-01	3.157895e+00	4.991140e-02
6.545085e-01	3.157895e+00	4.339991e-02
7.266842e-01	3.157895e+00	3.634838e-02
7.938926e-01	3.157895e+00	2.921204e-02
8.530689e-01	3.157895e+00	2.237324e-02
9.045085e-01	3.157895e+00	1.608182e-02
9.448927e-01	3.157895e+00	1.084359e-02
9.755282e-01	3.157895e+00	6.720494e-03
9.931674e-01	3.157895e+00	4.269009e-03
1.000000e+00	3.157895e+00	3.307184e-03
1.000000e+00	4.210526e+00	3.307184e-03
9.931674e-01	4.210526e+00	2.345359e-03
9.755282e-01	4.210526e+00	-1.061261e-04
9.448927e-01	4.210526e+00	-4.229226e-03
9.045085e-01	4.210526e+00	-9.467456e-03
8.530689e-01	4.210526e+00	-1.575888e-02
7.938926e-01	4.210526e+00	-2.259768e-02
7.266841e-01	4.210526e+00	-2.973402e-02
6.545085e-01	4.210526e+00	-3.678555e-02
5.781101e-01	4.210526e+00	-4.329703e-02
5.000000e-01	4.210526e+00	-4.900307e-02
4.218900e-01	4.210526e+00	-5.321015e-02
3.454915e-01	4.210526e+00	-5.583222e-02
2.733158e-01	4.210526e+00	-5.606213e-02
2.061074e-01	4.210526e+00	-5.414725e-02
1.469311e-01	4.210526e+00	-4.945670e-02
9.549150e-02	4.210526e+00	-4.262143e-02
5.510729e-02	4.210526e+00	-3.339037e-02
2.447174e-02	4.210526e+00	-2.255530e-02
6.832625e-03	4.210526e+00	-1.012630e-02
0.000000e+00	4.210526e+00	3.307184e-03
6.832625e-03	4.210526e+00	1.674067e-02
2.447174e-02	4.210526e+00	2.916966e-02
5.510728e-02	4.210526e+00	4.000473e-02
9.549150e-02	4.210526e+00	4.923579e-02
1.469311e-01	4.210526e+00	5.607107e-02
2.061074e-01	4.210526e+00	6.076162e-02
2.733158e-01	4.210526e+00	6.267649e-02
3.454915e-01	4.210526e+00	6.244658e-02
4.218900e-01	4.210526e+00	5.982451e-02
5.000000e-01	4.210526e+00	5.561743e-02
5.781101e-01	4.210526e+00	4.991140e-02
6.545085e-01	4.210526e+00	4.339991e-02
7.266841e-01	4.210526e+00	3.634838e-02
7.938926e-01	4.210526e+00	2.921204e-02
8.530689e-01	4.210526e+00	2.237324e-02
9.045085e-01	4.210526e+00	1.608182e-02
9.448927e-01	4.210526e+00	1.084359e-02
9.755282e-01	4.210526e+00	6.720494e-03
9.931674e-01	4.210526e+00	4.269009e-03
1.000000e+00	4.210526e+00	3.307184e-03
1.000000e+00	5.263158e+00	3.307184e-03
9.931674e-01	5.263158e+00	2.345359e-03
9.755282e-01	5.263158e+00	-1.061261e-04
9.448927e-01	5.263158e+00	-4.229226e-03
9.045085e-01	5.263158e+00	-9.467456e-03
8.530689e-01	5.263158e+00	-1.575888e-02
7.938926e-01	5.263158e+00	-2.259768e-02
7.266842e-01	5.263158e+00	-2.973402e-02
6.545085e-01	5.263158e+00	-3.678555e-02
5.781101e-01	5.263158e+00	-4.329703e-02
5.000000e-01	5.263158e+00	-4.900307e-02
4.218900e-01	5.263158e+00	-5.321015e-02
3.454915e-01	5.263158e+00	-5.583222e-02
2.733158e-01	5.263158e+00	-5.606213e-02
2.061074e-01	5.263158e+00	-5.414725e-02
1.469311e-01	5.263158e+00	-4.945670e-02
9.549150e-02	5.263158e+00	-4.262143e-02
5.510729e-02	5.263158e+00	-3.339037e-02
2.447174e-02	5.263158e+00	-2.255530e-02
6.832625e-03	5.263158e+00	-1.012630e-02
0.000000e+00	5.263158e+00	3.307184e-03
6.832625e-03	5.263158e+00	1.674067e-02
2.447174e-02	5.263158e+00	2.916966e-02
5.510728e-02	5.263158e+00	4.000473e-02
9.549150e-02	5.263158e+00	4.923579e-02
1.469311e-01	5.263158e+00	5.607107e-02
2.061074e-01	5.263158e+00	6.076162e-02
2.733158e-01	5.263158e+00	6.267649e-02
3.454915e-01	5.263158e+00	6.244658e-02
4.218900e-01	5.263158e+00	5.982451e-02
5.000000e-01	5.263158e+00	5.561743e-02
5.781101e-01	5.263158e+00	4.991140e-02
6.545085e-01	5.263158e+00	4.339991e-02
7.266842e-01	5.263158e+00	3.634838e-02
7.938926e-01	5.263158e+00	2.921204e-02
8.530689e-01	5.263158e+00	2.237324e-02
9.045085e-01	5.263158e+00	1.608182e-02
9.448927e-01	5.263158e+00	1.084359e-02
9.755282e-01	5.263158e+00	6.720494e-03
9.931674e-01	5.263158e+00	4.269009e-03
1.000000e+00	5.263158e+00	3.307184e-03
1.000000e+00	6.315789e+00	3.307184e-03
9.931673e-01	6.315789e+00	2.345359e-03
9.755282e-01	6.315789e+00	-1.061261e-04
9.448927e-01	6.315789e+00	-4.229226e-03
9.045085e-01	6.315789e+00	-9.467456e-03
[...]
CELL_DATA 760
VECTORS V double
3.245556e-01	1.242626e-03	4.568736e-02
3.328260e-01	1.224505e-03	4.625608e-02
3.408200e-01	1.200956e-03	4.586950e-02
3.486312e-01	1.175476e-03	4.522092e-02
3.555164e-01	1.142777e-03	4.348208e-02
3.634208e-01	1.094219e-03	4.199932e-02
3.699874e-01	1.020098e-03	3.928607e-02
3.773788e-01	9.120977e-04	3.686975e-02
3.841891e-01	7.659359e-04	3.274467e-02
3.919089e-01	5.828727e-04	2.862943e-02
3.994136e-01	3.705485e-04	2.151280e-02
4.073719e-01	1.422954e-04	1.398140e-02
4.148105e-01	-8.623398e-05	1.321347e-03
4.214043e-01	-2.984940e-04	-1.200651e-02
4.285192e-01	-4.835989e-04	-3.396613e-02
4.280967e-01	-6.339990e-04	-5.688527e-02
4.179646e-01	-7.510339e-04	-9.553872e-02
3.957887e-01	-8.366031e-04	-1.399811e-01
3.103882e-01	-8.988865e-04	-2.187079e-01
1.014869e-01	-9.398113e-04	-1.995313e-01
8.522148e-02	-9.650660e-04	1.675522e-01
2.924841e-01	-9.677475e-04	2.060921e-01
3.822604e-01	-9.493344e-04	1.351965e-01
4.079890e-01	-9.058016e-04	9.325850e-02
4.206120e-01	-8.299912e-04	5.589071e-02
4.227966e-01	-7.183962e-04	3.351262e-02
4.170510e-01	-5.689109e-04	1.188241e-02
4.114777e-01	-3.873791e-04	-1.310731e-03
4.048647e-01	-1.834367e-04	-1.389534e-02
3.975169e-01	2.762228e-05	-2.141064e-02
3.904761e-01	2.307239e-04	-2.852476e-02
3.830217e-01	4.124259e-04	-3.264516e-02
3.762603e-01	5.640389e-04	-3.676047e-02
3.685566e-01	6.822053e-04	-3.913415e-02
3.611078e-01	7.679964e-04	-4.173202e-02
3.513083e-01	8.254003e-04	-4.296740e-02
3.408484e-01	8.589536e-04	-4.421141e-02
3.268679e-01	8.728317e-04	-4.399174e-02
3.099365e-01	8.716064e-04	-4.307491e-02
2.915454e-01	8.650448e-04	-4.104055e-02
3.260846e-01	7.330805e-04	4.590258e-02
3.339405e-01	7.215234e-04	4.641098e-02
3.416464e-01	7.055552e-04	4.598072e-02
3.493708e-01	6.874442e-04	4.531684e-02
3.563569e-01	6.646398e-04	4.358488e-02
3.645064e-01	6.327335e-04	4.212478e-02
3.714235e-01	5.867719e-04	3.943856e-02
3.792265e-01	5.225433e-04	3.705027e-02
3.864636e-01	4.379831e-04	3.293852e-02
3.945748e-01	3.338890e-04	2.882417e-02
4.023892e-01	2.143610e-04	2.167307e-02
4.105400e-01	8.645491e-05	1.409013e-02
4.180336e-01	-4.159039e-05	1.331614e-03
4.245522e-01	-1.609863e-04	-1.209620e-02
4.314889e-01	-2.659189e-04	-3.420153e-02
4.308371e-01	-3.521512e-04	-5.724942e-02
4.204686e-01	-4.202122e-04	-9.611109e-02
3.980998e-01	-4.707419e-04	-1.407985e-01
3.124130e-01	-5.080202e-04	-2.201346e-01
1.025855e-01	-5.327173e-04	-2.016913e-01
8.483940e-02	-5.479653e-04	1.668010e-01
2.928614e-01	-5.495699e-04	2.063580e-01
3.832663e-01	-5.386791e-04	1.355523e-01
4.094834e-01	-5.133269e-04	9.360009e-02
4.225434e-01	-4.698252e-04	5.614736e-02
4.251138e-01	-4.065713e-04	3.369628e-02
4.196769e-01	-3.225985e-04	1.195723e-02
4.142982e-01	-2.211749e-04	-1.319715e-03
4.077440e-01	-1.074366e-04	-1.399417e-02
4.003144e-01	1.048777e-05	-2.156132e-02
3.930704e-01	1.246146e-04	-2.871427e-02
3.853234e-01	2.277405e-04	-3.284134e-02
3.782200e-01	3.150892e-04	-3.695193e-02
3.701628e-01	3.846187e-04	-3.930469e-02
3.623742e-01	4.365560e-04	-4.187836e-02
3.522548e-01	4.726845e-04	-4.308317e-02
3.414733e-01	4.950982e-04	-4.429247e-02
3.271277e-01	5.057879e-04	-4.402670e-02
3.097815e-01	5.070552e-04	-4.305337e-02
2.909918e-01	5.042539e-04	-4.096262e-02
3.265058e-01	1.448468e-04	4.596188e-02
3.343123e-01	1.415551e-04	4.646264e-02
3.419739e-01	1.360888e-04	4.602480e-02
3.496702e-01	1.291572e-04	4.535568e-02
3.566453e-01	1.208385e-04	4.362015e-02
3.647964e-01	1.109788e-04	4.215829e-02
3.717235e-01	9.943031e-05	3.947041e-02
3.795412e-01	8.613032e-05	3.708101e-02
3.867953e-01	7.119864e-05	3.296679e-02
3.949244e-01	5.487620e-05	2.884971e-02
4.027559e-01	3.754345e-05	2.169282e-02
4.109223e-01	1.970863e-05	1.410325e-02
4.184289e-01	1.892274e-06	1.332873e-03
4.249579e-01	-1.526079e-05	-1.210775e-02
4.319021e-01	-3.129144e-05	-3.423428e-02
4.312569e-01	-4.561260e-05	-5.730520e-02
4.208935e-01	-5.803977e-05	-9.620820e-02
3.985310e-01	-6.815538e-05	-1.409510e-01
3.128180e-01	-7.618691e-05	-2.204200e-01
1.028131e-01	-8.173038e-05	-2.021387e-01
8.476064e-02	-8.514595e-05	1.666462e-01
2.929299e-01	-8.546270e-05	2.064063e-01
3.834363e-01	-8.322382e-05	1.356124e-01
4.097120e-01	-7.850906e-05	9.365235e-02
4.228113e-01	-7.119537e-05	5.618296e-02
4.254092e-01	-6.149569e-05	3.371970e-02
4.199921e-01	-4.952759e-05	1.196621e-02
4.146263e-01	-3.573264e-05	-1.320760e-03
4.080793e-01	-2.050293e-05	-1.400568e-02
4.006518e-01	-4.431468e-06	-2.157949e-02
3.934054e-01	1.193395e-05	-2.873875e-02
3.856520e-01	2.798942e-05	-3.286934e-02
3.785387e-01	4.318015e-05	-3.698307e-02
3.704685e-01	5.700729e-05	-3.933715e-02
3.626635e-01	6.901161e-05	-4.191180e-02
3.525236e-01	7.884727e-05	-4.311604e-02
3.417143e-01	8.621957e-05	-4.432372e-02
3.273280e-01	9.098441e-05	-4.405366e-02
3.099261e-01	9.321887e-05	-4.307346e-02
2.910727e-01	9.366791e-05	-4.097401e-02
3.266400e-01	4.683333e-05	4.598077e-02
3.344264e-01	4.574790e-05	4.647850e-02
3.420706e-01	4.398286e-05	4.603780e-02
3.497569e-01	4.178772e-05	4.536692e-02
3.567292e-01	3.916126e-05	4.363041e-02
3.648821e-01	3.603672e-05	4.216819e-02
3.718132e-01	3.236360e-05	3.947994e-02
3.796358e-01	2.810984e-05	3.709025e-02
3.868948e-01	2.330027e-05	3.297528e-02
3.950285e-01	1.801355e-05	2.885732e-02
4.028643e-01	1.238751e-05	2.169866e-02
4.110346e-01	6.598127e-06	1.410710e-02
4.185447e-01	8.119820e-07	1.333242e-03
4.250771e-01	-4.773571e-06	-1.211115e-02
4.320246e-01	-1.002442e-05	-3.424399e-02
4.313827e-01	-1.475726e-05	-5.732192e-02
4.210225e-01	-1.890768e-05	-9.623769e-02
3.986633e-01	-2.231949e-05	-1.409978e-01
3.129431e-01	-2.504522e-05	-2.205081e-01
1.028830e-01	-2.692428e-05	-2.022761e-01
8.473777e-02	-2.805836e-05	1.666012e-01
2.929534e-01	-2.812214e-05	2.064229e-01
3.834905e-01	-2.730896e-05	1.356315e-01
4.097828e-01	-2.566963e-05	9.366852e-02
4.228926e-01	-2.318551e-05	5.619375e-02
4.254974e-01	-1.994786e-05	3.372669e-02
4.200851e-01	-1.600312e-05	1.196886e-02
4.147228e-01	-1.149084e-05	-1.321068e-03
4.081784e-01	-6.522323e-06	-1.400908e-02
4.007527e-01	-1.269466e-06	-2.158493e-02
3.935074e-01	4.107377e-06	-2.874620e-02
3.857544e-01	9.418525e-06	-3.287808e-02
3.786405e-01	1.447786e-05	-3.699302e-02
3.705679e-01	1.910579e-05	-3.934771e-02
3.627579e-01	2.312898e-05	-4.192271e-02
3.526091e-01	2.640157e-05	-4.312650e-02
3.417854e-01	2.878520e-05	-4.433294e-02
3.273780e-01	3.022205e-05	-4.406039e-02
3.099492e-01	3.078116e-05	-4.307667e-02
2.910676e-01	3.079742e-05	-4.097328e-02
3.266890e-01	2.081449e-05	4.598767e-02
3.344699e-01	2.036922e-05	4.648456e-02
3.421092e-01	1.960635e-05	4.604300e-02
3.497922e-01	1.861603e-05	4.537151e-02
3.567630e-01	1.742073e-05	4.363455e-02
3.649157e-01	1.602164e-05	4.217208e-02
3.718478e-01	1.441282e-05	3.948361e-02
3.796726e-01	1.258155e-05	3.709385e-02
3.869346e-01	1.052473e-05	3.297867e-02
3.950715e-01	8.257822e-06	2.886046e-02
4.029101e-01	5.820367e-06	2.170113e-02
4.110829e-01	3.274656e-06	1.410876e-02
4.185951e-01	6.911241e-07	1.333403e-03
4.251293e-01	-1.835918e-06	-1.211264e-02
4.320783e-01	-4.235989e-06	-3.424824e-02
4.314380e-01	-6.415614e-06	-5.732926e-02
4.210792e-01	-8.336556e-06	-9.625065e-02
3.987215e-01	-9.919090e-06	-1.410184e-01
3.129979e-01	-1.118136e-05	-2.205467e-01
1.029133e-01	-1.204436e-05	-2.023357e-01
8.472845e-02	-1.254896e-05	1.665829e-01
2.929648e-01	-1.254953e-05	2.064309e-01
3.835151e-01	-1.213480e-05	1.356403e-01
4.098146e-01	-1.133353e-05	9.367578e-02
4.229287e-01	-1.014072e-05	5.619855e-02
4.255363e-01	-8.605142e-06	3.372977e-02
4.201260e-01	-6.754015e-06	1.197002e-02
4.147650e-01	-4.659550e-06	-1.321202e-03
4.082212e-01	-2.383832e-06	-1.401054e-02
4.007954e-01	-2.015105e-08	-2.158723e-02
3.935495e-01	2.346189e-06	-2.874927e-02
3.857950e-01	4.625688e-06	-3.288154e-02
3.786791e-01	6.738421e-06	-3.699678e-02
3.706041e-01	8.624896e-06	-3.935156e-02
3.627918e-01	1.024435e-05	-4.192662e-02
3.526402e-01	1.157134e-05	-4.313031e-02
3.418129e-01	1.257832e-05	-4.433651e-02
3.274004e-01	1.324644e-05	-4.406340e-02
3.099647e-01	1.358048e-05	-4.307883e-02
2.910755e-01	1.366494e-05	-4.097439e-02
3.267152e-01	1.116380e-05	4.599135e-02
3.344937e-01	1.091721e-05	4.648786e-02
3.421307e-01	1.048660e-05	4.604589e-02
3.498122e-01	9.916703e-06	4.537410e-02
3.567823e-01	9.221957e-06	4.363691e-02
3.649348e-01	8.405688e-06	4.217429e-02
3.718671e-01	7.470962e-06	3.948566e-02
3.796922e-01	6.427683e-06	3.709576e-02
3.869545e-01	5.299314e-06	3.298036e-02
3.950920e-01	4.108223e-06	2.886195e-02
4.029316e-01	2.867950e-06	2.170229e-02
4.111057e-01	1.592366e-06	1.410954e-02
4.186194e-01	2.991328e-07	1.333480e-03
4.251550e-01	-9.772142e-07	-1.211337e-02
4.321054e-01	-2.205434e-06	-3.425039e-02
4.314663e-01	-3.334972e-06	-5.733303e-02
4.211085e-01	-4.339611e-06	-9.625736e-02
3.987517e-01	-5.170307e-06	-1.410291e-01
3.130262e-01	-5.829820e-06	-2.205667e-01
1.029286e-01	-6.271684e-06	-2.023658e-01
8.472448e-02	-6.509677e-06	1.665751e-01
2.929722e-01	-6.473419e-06	2.064361e-01
3.835294e-01	-6.207084e-06	1.356453e-01
4.098323e-01	-5.730977e-06	9.367984e-02
4.229485e-01	-5.045914e-06	5.620118e-02
4.255573e-01	-4.185518e-06	3.373144e-02
4.201476e-01	-3.170732e-06	1.197064e-02
4.147867e-01	-2.045864e-06	-1.321271e-03
4.082428e-01	-8.456824e-07	-1.401129e-02
4.008166e-01	3.833173e-07	-2.158837e-02
3.935701e-01	1.604016e-06	-2.875078e-02
3.858150e-01	2.782313e-06	-3.288324e-02
3.786985e-01	3.888359e-06	-3.699868e-02
3.706229e-01	4.893987e-06	-3.935355e-02
3.628097e-01	5.773201e-06	-4.192870e-02
3.526571e-01	6.506795e-06	-4.313237e-02
3.418284e-01	7.076907e-06	-4.433852e-02
3.274136e-01	7.468189e-06	-4.406519e-02
3.099749e-01	7.674751e-06	-4.308023e-02
2.910819e-01	7.734710e-06	-4.097529e-02
3.267306e-01	6.683620e-06	4.599352e-02
3.345078e-01	6.537475e-06	4.648981e-02
3.421435e-01	6.278032e-06	4.604763e-02
3.498243e-01	5.929403e-06	4.537567e-02
3.567940e-01	5.498678e-06	4.363834e-02
3.649464e-01	4.989433e-06	4.217563e-02
3.718788e-01	4.408403e-06	3.948690e-02
3.797041e-01	3.760679e-06	3.709693e-02
3.869666e-01	3.058325e-06	3.298140e-02
3.951043e-01	2.319290e-06	2.886285e-02
4.029441e-01	1.561228e-06	2.170296e-02
4.111185e-01	7.996834e-07	1.410998e-02
4.186326e-01	4.646035e-08	1.333522e-03
4.251689e-01	-6.823207e-07	-1.211376e-02
4.321199e-01	-1.374500e-06	-3.425154e-02
4.314815e-01	-2.006062e-06	-5.733504e-02
4.211242e-01	-2.564767e-06	-9.626095e-02
3.987677e-01	-3.023623e-06	-1.410347e-01
3.130410e-01	-3.382686e-06	-2.205771e-01
1.029361e-01	-3.614615e-06	-2.023805e-01
8.472355e-02	-3.721741e-06	1.665732e-01
2.929780e-01	-3.671509e-06	2.064402e-01
3.835388e-01	-3.486257e-06	1.356486e-01
4.098433e-01	-3.181094e-06	9.368236e-02
4.229603e-01	-2.757905e-06	5.620276e-02
4.255695e-01	-2.239220e-06	3.373240e-02
4.201599e-01	-1.639119e-06	1.197099e-02
4.147990e-01	-9.832998e-07	-1.321310e-03
4.082549e-01	-2.878559e-07	-1.401170e-02
4.008285e-01	4.271155e-07	-2.158901e-02
3.935818e-01	1.145797e-06	-2.875163e-02
3.858265e-01	1.846603e-06	-3.288422e-02
3.787097e-01	2.506504e-06	-3.699977e-02
3.706337e-01	3.107187e-06	-3.935469e-02
3.628201e-01	3.636571e-06	-4.192990e-02
3.526670e-01	4.085153e-06	-4.313358e-02
3.418375e-01	4.438568e-06	-4.433971e-02
3.274215e-01	4.684836e-06	-4.406626e-02
3.099809e-01	4.818955e-06	-4.308107e-02
2.910856e-01	4.860866e-06	-4.097582e-02
3.267398e-01	3.991715e-06	4.599482e-02
3.345164e-01	3.922903e-06	4.649101e-02
3.421516e-01	3.813568e-06	4.604871e-02
3.498320e-01	3.684548e-06	4.537667e-02
3.568015e-01	3.544063e-06	4.363926e-02
3.649540e-01	3.391596e-06	4.217650e-02
3.718864e-01	3.217805e-06	3.948771e-02
3.797117e-01	3.005853e-06	3.709767e-02
3.869744e-01	2.733259e-06	3.298206e-02
3.951122e-01	2.381038e-06	2.886343e-02
4.029521e-01	1.948513e-06	2.170339e-02
4.111267e-01	1.459784e-06	1.411026e-02
4.186410e-01	9.545441e-07	1.333549e-03
4.251775e-01	4.740017e-07	-1.211401e-02
4.321287e-01	4.288024e-08	-3.425224e-02
4.314906e-01	-3.253487e-07	-5.733625e-02
4.211335e-01	-6.338343e-07	-9.626307e-02
3.987771e-01	-8.784453e-07	-1.410381e-01
3.130494e-01	-1.064944e-06	-2.205830e-01
1.029401e-01	-1.180818e-06	-2.023884e-01
8.472355e-02	-1.225806e-06	1.665733e-01
2.929821e-01	-1.186205e-06	2.064431e-01
3.835450e-01	-1.072724e-06	1.356508e-01
4.098504e-01	-8.931301e-07	9.368396e-02
4.229678e-01	-6.432390e-07	5.620374e-02
4.255771e-01	-3.267287e-07	3.373300e-02
4.201675e-01	5.735311e-08	1.197121e-02
4.148065e-01	4.943884e-07	-1.321334e-03
4.082624e-01	9.596619e-07	-1.401196e-02
4.008360e-01	1.413429e-06	-2.158941e-02
3.935892e-01	1.819076e-06	-2.875217e-02
3.858338e-01	2.151461e-06	-3.288484e-02
3.787168e-01	2.404346e-06	-3.700046e-02
3.706406e-01	2.590255e-06	-3.935543e-02
3.628269e-01	2.729406e-06	-4.193068e-02
3.526736e-01	2.837366e-06	-4.313439e-02
3.418437e-01	2.918313e-06	-4.434051e-02
3.274271e-01	2.968977e-06	-4.406700e-02
3.099854e-01	2.985785e-06	-4.308170e-02
2.910889e-01	2.979856e-06	-4.097629e-02
3.267422e-01	-3.332269e-04	4.599516e-02
3.345176e-01	-3.338501e-04	4.649118e-02
3.421516e-01	-3.357758e-04	4.604872e-02
3.498311e-01	-3.324142e-04	4.537655e-02
3.568000e-01	-3.220080e-04	4.363907e-02
3.649521e-01	-3.340279e-04	4.217629e-02
3.718849e-01	-2.810624e-04	3.948755e-02
3.797111e-01	-3.041737e-04	3.709761e-02
3.869753e-01	-2.178287e-04	3.298213e-02
3.951149e-01	-2.504333e-04	2.886363e-02
4.029566e-01	-1.318623e-04	2.170363e-02
4.111323e-01	-1.717527e-04	1.411046e-02
4.186471e-01	-2.845782e-05	1.333568e-03
4.251833e-01	-7.483676e-05	-1.211418e-02
4.321340e-01	8.707859e-05	-3.425266e-02
4.314953e-01	1.893960e-04	-5.733688e-02
4.211378e-01	2.368917e-04	-9.626406e-02
3.987812e-01	2.191413e-04	-1.410395e-01
3.130529e-01	2.104670e-04	-2.205855e-01
1.029416e-01	2.070111e-04	-2.023914e-01
8.472385e-02	2.069979e-04	1.665738e-01
2.929843e-01	2.104312e-04	2.064446e-01
3.835481e-01	2.190832e-04	1.356519e-01
4.098540e-01	2.368123e-04	9.368479e-02
4.229719e-01	1.892956e-04	5.620430e-02
4.255819e-01	8.695665e-05	3.373338e-02
4.201729e-01	-7.498137e-05	1.197136e-02
4.148122e-01	-2.862682e-05	-1.321352e-03
4.082677e-01	-1.719483e-04	-1.401214e-02
4.008401e-01	-1.320864e-04	-2.158964e-02
3.935918e-01	-2.506852e-04	-2.875236e-02
3.858346e-01	-2.181020e-04	-3.288491e-02
3.787160e-01	-3.044625e-04	-3.700039e-02
3.706388e-01	-2.813688e-04	-3.935524e-02
3.628244e-01	-3.343612e-04	-4.193040e-02
3.526709e-01	-3.223776e-04	-4.313406e-02
3.418409e-01	-3.328279e-04	-4.434015e-02
3.274240e-01	-3.362382e-04	-4.406659e-02
3.099818e-01	-3.343605e-04	-4.308120e-02
2.910846e-01	-3.337710e-04	-4.097568e-02
3.268450e-01	1.856808e-07	4.600963e-02
3.346690e-01	1.917210e-07	4.651223e-02
3.420699e-01	1.908192e-07	4.603771e-02
3.494650e-01	1.793763e-07	4.532906e-02
3.568764e-01	1.602771e-07	4.364842e-02
3.641642e-01	1.397005e-07	4.208523e-02
3.714774e-01	1.252531e-07	3.944428e-02
3.787469e-01	1.183424e-07	3.700341e-02
3.862647e-01	1.141065e-07	3.292157e-02
3.939433e-01	1.087637e-07	2.877804e-02
4.018762e-01	1.025175e-07	2.164544e-02
4.097432e-01	9.731944e-08	1.406278e-02
4.171368e-01	9.520057e-08	1.328757e-03
4.235119e-01	9.573037e-08	-1.206656e-02
4.274144e-01	9.969963e-08	-3.387857e-02
4.283556e-01	1.060492e-07	-5.691968e-02
4.202271e-01	1.196266e-07	-9.605589e-02
3.996272e-01	1.281159e-07	-1.413387e-01
3.135462e-01	1.362243e-07	-2.209331e-01
1.030699e-01	1.455829e-07	-2.026437e-01
8.485186e-02	1.534691e-07	1.668255e-01
2.934772e-01	1.578915e-07	2.067920e-01
3.843938e-01	1.604636e-07	1.359510e-01
4.089430e-01	1.564205e-07	9.347655e-02
4.198320e-01	1.542806e-07	5.578706e-02
4.208620e-01	1.490553e-07	3.335927e-02
4.185013e-01	1.407219e-07	1.192373e-02
4.133016e-01	1.294816e-07	-1.316540e-03
4.068781e-01	1.142984e-07	-1.396445e-02
3.997593e-01	9.446307e-08	-2.153142e-02
3.924196e-01	6.970905e-08	-2.866674e-02
3.851236e-01	4.352352e-08	-3.282431e-02
3.777515e-01	2.430913e-08	-3.690616e-02
3.702309e-01	1.964477e-08	-3.931193e-02
3.620360e-01	2.894580e-08	-4.183928e-02
3.527469e-01	4.681235e-08	-4.314335e-02
3.414744e-01	7.038661e-08	-4.429261e-02
3.273421e-01	9.863193e-08	-4.405557e-02
3.101336e-01	1.283139e-07	-4.310230e-02
2.911884e-01	1.506157e-07	-4.099029e-02
3.267412e-01	3.332057e-04	4.599501e-02
3.345174e-01	3.338195e-04	4.649116e-02
3.421521e-01	3.357302e-04	4.604878e-02
3.498319e-01	3.323568e-04	4.537665e-02
3.568008e-01	3.219409e-04	4.363917e-02
3.649528e-01	3.339629e-04	4.217636e-02
3.718852e-01	2.810124e-04	3.948758e-02
3.797113e-01	3.041478e-04	3.709763e-02
3.869754e-01	2.178307e-04	3.298214e-02
3.951150e-01	2.504623e-04	2.886364e-02
4.029567e-01	1.319141e-04	2.170364e-02
4.111324e-01	1.718274e-04	1.411046e-02
4.186471e-01	2.855666e-05	1.333568e-03
4.251832e-01	7.496276e-05	-1.211417e-02
4.321338e-01	-8.692303e-05	-3.425264e-02
4.314949e-01	-1.892077e-04	-5.733683e-02
4.211373e-01	-2.366695e-04	-9.626393e-02
3.987807e-01	-2.188865e-04	-1.410393e-01
3.130523e-01	-2.101808e-04	-2.205851e-01
1.029410e-01	-2.066972e-04	-2.023903e-01
8.472423e-02	-2.066575e-04	1.665746e-01
2.929846e-01	-2.100733e-04	2.064448e-01
3.835480e-01	-2.187135e-04	1.356519e-01
4.098538e-01	-2.364375e-04	9.368475e-02
4.229718e-01	-1.889222e-04	5.620428e-02
4.255816e-01	-8.659166e-05	3.373337e-02
4.201726e-01	7.533230e-05	1.197135e-02
4.148118e-01	2.895543e-05	-1.321351e-03
4.082672e-01	1.722469e-04	-1.401212e-02
4.008395e-01	1.323492e-04	-2.158960e-02
3.935911e-01	2.509009e-04	-2.875231e-02
3.858340e-01	2.182680e-04	-3.288486e-02
3.787157e-01	3.045835e-04	-3.700036e-02
3.706389e-01	2.814556e-04	-3.935524e-02
3.628249e-01	3.344266e-04	-4.193045e-02
3.526718e-01	3.224315e-04	-4.313416e-02
3.418422e-01	3.328741e-04	-4.434031e-02
3.274259e-01	3.362733e-04	-4.406685e-02
3.099846e-01	3.343875e-04	-4.308159e-02
2.910884e-01	3.337929e-04	-4.097621e-02
3.267414e-01	-4.215710e-06	4.599504e-02
3.345178e-01	-4.167105e-06	4.649120e-02
3.421525e-01	-4.077831e-06	4.604883e-02
3.498325e-01	-3.955045e-06	4.537674e-02
3.568017e-01	-3.802652e-06	4.363928e-02
3.649536e-01	-3.624337e-06	4.217646e-02
3.718858e-01	-3.420294e-06	3.948764e-02
3.797110e-01	-3.176333e-06	3.709760e-02
3.869736e-01	-2.867790e-06	3.298199e-02
3.951115e-01	-2.474878e-06	2.886338e-02
4.029515e-01	-1.998051e-06	2.170336e-02
4.111261e-01	-1.461173e-06	1.411024e-02
4.186403e-01	-9.060082e-07	1.333547e-03
4.251766e-01	-3.733390e-07	-1.211398e-02
4.321276e-01	1.124780e-07	-3.425215e-02
4.314892e-01	5.346988e-07	-5.733607e-02
4.211319e-01	8.893200e-07	-9.626270e-02
3.987751e-01	1.181078e-06	-1.410374e-01
3.130472e-01	1.411462e-06	-2.205815e-01
1.029384e-01	1.563268e-06	-2.023850e-01
8.472491e-02	1.644418e-06	1.665759e-01
2.929832e-01	1.630515e-06	2.064438e-01
3.835455e-01	1.536367e-06	1.356510e-01
4.098504e-01	1.372601e-06	9.368398e-02
4.229675e-01	1.126049e-06	5.620372e-02
4.255767e-01	8.042116e-07	3.373297e-02
4.201669e-01	4.049336e-07	1.197119e-02
4.148057e-01	-5.645779e-08	-1.321332e-03
4.082615e-01	-5.573698e-07	-1.401193e-02
4.008348e-01	-1.051969e-06	-2.158935e-02
3.935879e-01	-1.500832e-06	-2.875208e-02
3.858325e-01	-1.878029e-06	-3.288473e-02
3.787156e-01	-2.181707e-06	-3.700035e-02
3.706398e-01	-2.426987e-06	-3.935534e-02
3.628263e-01	-2.628962e-06	-4.193061e-02
3.526732e-01	-2.795020e-06	-4.313434e-02
3.418433e-01	-2.927135e-06	-4.434045e-02
3.274264e-01	-3.025722e-06	-4.406691e-02
3.099847e-01	-3.087789e-06	-4.308160e-02
2.910881e-01	-3.113576e-06	-4.097617e-02
3.267330e-01	-6.675918e-06	4.599386e-02
3.345097e-01	-6.539389e-06	4.649008e-02
3.421448e-01	-6.290673e-06	4.604780e-02
3.498249e-01	-5.950025e-06	4.537575e-02
3.567940e-01	-5.517556e-06	4.363834e-02
3.649460e-01	-5.004987e-06	4.217559e-02
3.718782e-01	-4.418870e-06	3.948684e-02
3.797033e-01	-3.762129e-06	3.709685e-02
3.869657e-01	-3.041929e-06	3.298132e-02
3.951033e-01	-2.269410e-06	2.886278e-02
4.029430e-01	-1.458895e-06	2.170290e-02
4.111173e-01	-6.322734e-07	1.410994e-02
4.186312e-01	1.940886e-07	1.333518e-03
4.251671e-01	9.954437e-07	-1.211371e-02
4.321178e-01	1.755091e-06	-3.425137e-02
4.314790e-01	2.444004e-06	-5.733472e-02
4.211214e-01	3.051448e-06	-9.626031e-02
3.987644e-01	3.551002e-06	-1.410336e-01
3.130373e-01	3.946320e-06	-2.205745e-01
1.029332e-01	4.210616e-06	-2.023749e-01