# vtk DataFile Version 2.0
OUTPUT by 3D-VPM
ASCII
DATASET UNSTRUCTURED_GRID
POINTS 820 double
9.510565e-01	0.000000e+00	-3.090170e-01
9.442611e-01	0.000000e+00	-3.078203e-01
9.267277e-01	0.000000e+00	-3.047010e-01
8.963175e-01	0.000000e+00	-2.991555e-01
8.562911e-01	0.000000e+00	-2.916579e-01
8.054250e-01	0.000000e+00	-2.817457e-01
7.470317e-01	0.000000e+00	-2.699633e-01
6.809074e-01	0.000000e+00	-2.559818e-01
6.100852e-01	0.000000e+00	-2.403847e-01
5.354138e-01	0.000000e+00	-2.229691e-01
4.593635e-01	0.000000e+00	-2.042585e-01
3.837764e-01	0.000000e+00	-1.841224e-01
3.103069e-01	0.000000e+00	-1.630077e-01
2.415927e-01	0.000000e+00	-1.409228e-01
1.782654e-01	0.000000e+00	-1.183331e-01
1.234349e-01	0.000000e+00	-9.558566e-02
7.662509e-02	0.000000e+00	-7.318920e-02
4.106998e-02	0.000000e+00	-5.193053e-02
1.528206e-02	0.000000e+00	-3.215886e-02
2.347037e-03	0.000000e+00	-1.488740e-02
0.000000e+00	0.000000e+00	0.000000e+00
1.064939e-02	0.000000e+00	1.066461e-02
3.126595e-02	0.000000e+00	1.703450e-02
6.375031e-02	0.000000e+00	1.787236e-02
1.050105e-01	0.000000e+00	1.417221e-02
1.560448e-01	0.000000e+00	4.777214e-03
2.137742e-01	0.000000e+00	-9.048270e-03
2.782849e-01	0.000000e+00	-2.799567e-02
3.468570e-01	0.000000e+00	-5.051783e-02
4.187060e-01	0.000000e+00	-7.662000e-02
4.916930e-01	0.000000e+00	-1.047585e-01
5.642168e-01	0.000000e+00	-1.343226e-01
6.348639e-01	0.000000e+00	-1.641238e-01
7.013280e-01	0.000000e+00	-1.931337e-01
7.630418e-01	0.000000e+00	-2.206893e-01
8.172084e-01	0.000000e+00	-2.454799e-01
8.641863e-01	0.000000e+00	-2.673591e-01
9.009752e-01	0.000000e+00	-2.848204e-01
9.288372e-01	0.000000e+00	-2.982085e-01
9.448555e-01	0.000000e+00	-3.059908e-01
9.510565e-01	0.000000e+00	-3.090170e-01
9.510565e-01	1.052632e+00	-3.090170e-01
9.442611e-01	1.052632e+00	-3.078203e-01
9.267277e-01	1.052632e+00	-3.047010e-01
8.963175e-01	1.052632e+00	-2.991555e-01
8.562911e-01	1.052632e+00	-2.916579e-01
8.054250e-01	1.052632e+00	-2.817457e-01
7.470317e-01	1.052632e+00	-2.699633e-01
6.809074e-01	1.052632e+00	-2.559818e-01
6.100852e-01	1.052632e+00	-2.403847e-01
5.354138e-01	1.052632e+00	-2.229691e-01
4.593635e-01	1.052632e+00	-2.042585e-01
3.837764e-01	1.052632e+00	-1.841224e-01
3.103069e-01	1.052632e+00	-1.630077e-01
2.415927e-01	1.052632e+00	-1.409228e-01
1.782654e-01	1.052632e+00	-1.183331e-01
1.234349e-01	1.052632e+00	-9.558566e-02
7.662509e-02	1.052632e+00	-7.318920e-02
4.106998e-02	1.052632e+00	-5.193053e-02
1.528206e-02	1.052632e+00	-3.215886e-02
2.347037e-03	1.052632e+00	-1.488740e-02
0.000000e+00	1.052632e+00	0.000000e+00
1.064939e-02	1.052632e+00	1.066461e-02
3.126595e-02	1.052632e+00	1.703450e-02
6.375031e-02	1.052632e+00	1.787236e-02
1.050105e-01	1.052632e+00	1.417221e-02
1.560448e-01	1.052632e+00	4.777214e-03
2.137742e-01	1.052632e+00	-9.048270e-03
2.782849e-01	1.052632e+00	-2.799567e-02
3.468570e-01	1.052632e+00	-5.051783e-02
4.187060e-01	1.052632e+00	-7.662000e-02
4.916930e-01	1.052632e+00	-1.047585e-01
5.642168e-01	1.052632e+00	-1.343226e-01
6.348639e-01	1.052632e+00	-1.641238e-01
7.013280e-01	1.052632e+00	-1.931337e-01
7.630418e-01	1.052632e+00	-2.206893e-01
8.172084e-01	1.052632e+00	-2.454799e-01
8.641863e-01	1.052632e+00	-2.673591e-01
9.009752e-01	1.052632e+00	-2.848204e-01
9.288372e-01	1.052632e+00	-2.982085e-01
9.448555e-01	1.052632e+00	-3.059908e-01
9.510565e-01	1.052632e+00	-3.090170e-01
9.510565e-01	2.105263e+00	-3.090170e-01
9.442611e-01	2.105263e+00	-3.078203e-01
9.267277e-01	2.105263e+00	-3.047010e-01
8.963175e-01	2.105263e+00	-2.991555e-01
8.562911e-01	2.105263e+00	-2.916579e-01
8.054250e-01	2.105263e+00	-2.817457e-01
7.470317e-01	2.105263e+00	-2.699633e-01
6.809074e-01	2.105263e+00	-2.559818e-01
6.100852e-01	2.105263e+00	-2.403847e-01
5.354138e-01	2.105263e+00	-2.229691e-01
4.593635e-01	2.105263e+00	-2.042585e-01
3.837764e-01	2.105263e+00	-1.841224e-01
3.103069e-01	2.105263e+00	-1.630077e-01
2.415927e-01	2.105263e+00	-1.409228e-01
1.782654e-01	2.105263e+00	-1.183331e-01
1.234349e-01	2.105263e+00	-9.558566e-02
7.662509e-02	2.105263e+00	-7.318920e-02
4.106998e-02	2.105263e+00	-5.193053e-02
1.528206e-02	2.105263e+00	-3.215886e-02
2.347037e-03	2.105263e+00	-1.488740e-02
0.000000e+00	2.105263e+00	0.000000e+00
1.064939e-02	2.105263e+00	1.066461e-02
3.126595e-02	2.105263e+00	1.703450e-02
6.375031e-02	2.105263e+00	1.787236e-02
1.050105e-01	2.105263e+00	1.417221e-02
1.560448e-01	2.105263e+00	4.777214e-03
2.137742e-01	2.105263e+00	-9.048270e-03
2.782849e-01	2.105263e+00	-2.799567e-02
3.468570e-01	2.105263e+00	-5.051783e-02
4.187060e-01	2.105263e+00	-7.662000e-02
4.916930e-01	2.105263e+00	-1.047585e-01
5.642168e-01	2.105263e+00	-1.343226e-01
6.348639e-01	2.105263e+00	-1.641238e-01
7.013280e-01	2.105263e+00	-1.931337e-01
7.630418e-01	2.105263e+00	-2.206893e-01
8.172084e-01	2.105263e+00	-2.454799e-01
8.641863e-01	2.105263e+00	-2.673591e-01
9.009752e-01	2.105263e+00	-2.848204e-01
9.288372e-01	2.105263e+00	-2.982085e-01
9.448555e-01	2.105263e+00	-3.059908e-01
9.510565e-01	2.105263e+00	-3.090170e-01
9.510565e-01	3.157895e+00	-3.090170e-01
9.442611e-01	3.157895e+00	-3.078203e-01
9.267277e-01	3.157895e+00	-3.047010e-01
8.963175e-01	3.157895e+00	-2.991555e-01
8.562911e-01	3.157895e+00	-2.916579e-01
8.054250e-01	3.157895e+00	-2.817457e-01
7.470317e-01	3.157895e+00	-2.699633e-01
6.809074e-01	3.157895e+00	-2.559818e-01
6.100852e-01	3.157895e+00	-2.403847e-01
5.354138e-01	3.157895e+00	-2.229691e-01
4.593635e-01	3.157895e+00	-2.042585e-01
3.837764e-01	3.157895e+00	-1.841224e-01
3.103069e-01	3.157895e+00	-1.630077e-01
2.415927e-01	3.157895e+00	-1.409228e-01
1.782654e-01	3.157895e+00	-1.183331e-01
1.234349e-01	3.157895e+00	-9.558566e-02
7.662509e-02	3.157895e+00	-7.318920e-02
4.106998e-02	3.157895e+00	-5.193053e-02
1.528206e-02	3.157895e+00	-3.215886e-02
2.347037e-03	3.157895e+00	-1.488740e-02
0.000000e+00	3.157895e+00	0.000000e+00
1.064939e-02	3.157895e+00	1.066461e-02
3.126595e-02	3.157895e+00	1.703450e-02
6.375031e-02	3.157895e+00	1.787236e-02
1.050105e-01	3.157895e+00	1.417221e-02
1.560448e-01	3.157895e+00	4.777214e-03
2.137742e-01	3.157895e+00	-9.048270e-03
2.782849e-01	3.157895e+00	-2.799567e-02
3.468570e-01	3.157895e+00	-5.051783e-02
4.187060e-01	3.157895e+00	-7.662000e-02
4.916930e-01	3.157895e+00	-1.047585e-01
5.642168e-01	3.157895e+00	-1.343226e-01
6.348639e-01	3.157895e+00	-1.641238e-01
7.013280e-01	3.157895e+00	-1.931337e-01
7.630418e-01	3.157895e+00	-2.206893e-01
8.172084e-01	3.157895e+00	-2.454799e-01
8.641863e-01	3.157895e+00	-2.673591e-01
9.009752e-01	3.157895e+00	-2.848204e-01
9.288372e-01	3.157895e+00	-2.982085e-01
9.448555e-01	3.157895e+00	-3.059908e-01
9.510565e-01	3.157895e+00	-3.090170e-01
9.510565e-01	4.210526e+00	-3.090170e-01
9.442611e-01	4.210526e+00	-3.078203e-01
9.267277e-01	4.210526e+00	-3.047010e-01
8.963175e-01	4.210526e+00	-2.991555e-01
8.562911e-01	4.210526e+00	-2.916579e-01
8.054250e-01	4.210526e+00	-2.817457e-01
7.470317e-01	4.210526e+00	-2.699633e-01
6.809074e-01	4.210526e+00	-2.559818e-01
6.100852e-01	4.210526e+00	-2.403847e-01
5.354138e-01	4.210526e+00	-2.229691e-01
4.593635e-01	4.210526e+00	-2.042585e-01
3.837764e-01	4.210526e+00	-1.841224e-01
3.103069e-01	4.210526e+00	-1.630077e-01
2.415927e-01	4.210526e+00	-1.409228e-01
1.782654e-01	4.210526e+00	-1.183331e-01
1.234349e-01	4.210526e+00	-9.558566e-02
7.662509e-02	4.210526e+00	-7.318920e-02
4.106998e-02	4.210526e+00	-5.193053e-02
1.528206e-02	4.210526e+00	-3.215886e-02
2.347037e-03	4.210526e+00	-1.488740e-02
0.000000e+00	4.210526e+00	0.000000e+00
1.064939e-02	4.210526e+00	1.066461e-02
3.126595e-02	4.210526e+00	1.703450e-02
6.375031e-02	4.210526e+00	1.787236e-02
1.050105e-01	4.210526e+00	1.417221e-02
1.560448e-01	4.210526e+00	4.777214e-03
2.137742e-01	4.210526e+00	-9.048270e-03
2.782849e-01	4.210526e+00	-2.799567e-02
3.468570e-01	4.210526e+00	-5.051783e-02
4.187060e-01	4.210526e+00	-7.662000e-02
4.916930e-01	4.210526e+00	-1.047585e-01
5.642168e-01	4.210526e+00	-1.343226e-01
6.348639e-01	4.210526e+00	-1.641238e-01
7.013280e-01	4.210526e+00	-1.931337e-01
7.630418e-01	4.210526e+00	-2.206893e-01
8.172084e-01	4.210526e+00	-2.454799e-01
8.641863e-01	4.210526e+00	-2.673591e-01
9.009752e-01	4.210526e+00	-2.848204e-01
9.288372e-01	4.210526e+00	-2.982085e-01
9.448555e-01	4.210526e+00	-3.059908e-01
9.510565e-01	4.210526e+00	-3.090170e-01
9.510565e-01	5.263158e+00	-3.090170e-01
9.442611e-01	5.263158e+00	-3.078203e-01
9.267277e-01	5.263158e+00	-3.047010e-01
8.963175e-01	5.263158e+00	-2.991555e-01
8.562911e-01	5.263158e+00	-2.916579e-01
8.054250e-01	5.263158e+00	-2.817457e-01
7.470317e-01	5.263158e+00	-2.699633e-01
6.809074e-01	5.263158e+00	-2.559818e-01
6.100852e-01	5.263158e+00	-2.403847e-01
5.354138e-01	5.263158e+00	-2.229691e-01
4.593635e-01	5.263158e+00	-2.042585e-01
3.837764e-01	5.263158e+00	-1.841224e-01
3.103069e-01	5.263158e+00	-1.630077e-01
2.415927e-01	5.263158e+00	-1.409228e-01
1.782654e-01	5.263158e+00	-1.183331e-01
1.234349e-01	5.263158e+00	-9.558566e-02
7.662509e-02	5.263158e+00	-7.318920e-02
4.106998e-02	5.263158e+00	-5.193053e-02
1.528206e-02	5.263158e+00	-3.215886e-02
2.347037e-03	5.263158e+00	-1.488740e-02
0.000000e+00	5.263158e+00	0.000000e+00
1.064939e-02	5.263158e+00	1.066461e-02
3.126595e-02	5.263158e+00	1.703450e-02
6.375031e-02	5.263158e+00	1.787236e-02
1.050105e-01	5.263158e+00	1.417221e-02
1.560448e-01	5.263158e+00	4.777214e-03
2.137742e-01	5.263158e+00	-9.048270e-03
2.782849e-01	5.263158e+00	-2.799567e-02
3.468570e-01	5.263158e+00	-5.051783e-02
4.187060e-01	5.263158e+00	-7.662000e-02
4.916930e-01	5.263158e+00	-1.047585e-01
5.642168e-01	5.263158e+00	-1.343226e-01
6.348639e-01	5.263158e+00	-1.641238e-01
7.013280e-01	5.263158e+00	-1.931337e-01
7.630418e-01	5.263158e+00	-2.206893e-01
8.172084e-01	5.263158e+00	-2.454799e-01
8.641863e-01	5.263158e+00	-2.673591e-01
9.009752e-01	5.263158e+00	-2.848204e-01
9.288372e-01	5.263158e+00	-2.982085e-01
9.448555e-01	5.263158e+00	-3.059908e-01
9.510565e-01	5.263158e+00	-3.090170e-01
9.510565e-01	6.315789e+00	-3.090170e-01
9.442611e-01	6.315789e+00	-3.078203e-01
[...]
CELL_DATA 760
VECTORS V double
8.414230e-01	-6.903435e-02	-1.481715e-01
8.655438e-01	-6.886077e-02	-1.539856e-01
8.835585e-01	-6.841101e-02	-1.611253e-01
8.953241e-01	-6.761661e-02	-1.677079e-01
8.977886e-01	-6.645568e-02	-1.749510e-01
8.991006e-01	-6.491058e-02	-1.814173e-01
8.920623e-01	-6.297100e-02	-1.886200e-01
8.847514e-01	-6.061286e-02	-1.948480e-01
8.704166e-01	-5.780768e-02	-2.030075e-01
8.547760e-01	-5.452288e-02	-2.102995e-01
8.294703e-01	-5.073296e-02	-2.209681e-01
7.985477e-01	-4.642371e-02	-2.294977e-01
7.511975e-01	-4.162811e-02	-2.414361e-01
6.891718e-01	-3.639733e-02	-2.458370e-01
6.025194e-01	-3.076931e-02	-2.499662e-01
4.718400e-01	-2.486688e-02	-2.257550e-01
2.701262e-01	-1.869803e-02	-1.615105e-01
-1.745168e-02	-1.242882e-02	1.338025e-02
-4.218444e-01	-5.860702e-03	5.632668e-01
-3.427120e-01	7.202131e-04	2.173843e+00
2.327134e+00	8.433766e-03	2.330460e+00
2.541790e+00	1.519890e-02	7.853357e-01
2.210620e+00	2.214547e-02	5.701790e-02
1.925575e+00	2.899320e-02	-1.726824e-01
1.720221e+00	3.598307e-02	-3.166790e-01
1.570433e+00	4.295002e-02	-3.760993e-01
1.435576e+00	4.988838e-02	-4.216418e-01
1.336755e+00	5.661965e-02	-4.390506e-01
1.250654e+00	6.302568e-02	-4.543525e-01
1.181710e+00	6.890861e-02	-4.555818e-01
1.121879e+00	7.415296e-02	-4.573302e-01
1.071620e+00	7.862159e-02	-4.520437e-01
1.027479e+00	8.225229e-02	-4.484688e-01
9.872037e-01	8.503733e-02	-4.407931e-01
9.499818e-01	8.702808e-02	-4.347799e-01
9.115292e-01	8.832246e-02	-4.245309e-01
8.743617e-01	8.904877e-02	-4.150011e-01
8.341871e-01	8.935609e-02	-4.008421e-01
7.910584e-01	8.940006e-02	-3.843267e-01
7.483071e-01	8.935439e-02	-3.651810e-01
8.268573e-01	-4.834396e-02	-1.456065e-01
8.473451e-01	-4.821966e-02	-1.507479e-01
8.618077e-01	-4.790113e-02	-1.571588e-01
8.704938e-01	-4.733732e-02	-1.630569e-01
8.702451e-01	-4.650558e-02	-1.695836e-01
8.688609e-01	-4.538709e-02	-1.753156e-01
8.588618e-01	-4.397119e-02	-1.816000e-01
8.479922e-01	-4.224285e-02	-1.867525e-01
8.293217e-01	-4.018727e-02	-1.934229e-01
8.083332e-01	-3.778928e-02	-1.988732e-01
7.765449e-01	-3.501909e-02	-2.068690e-01
7.378844e-01	-3.192718e-02	-2.120634e-01
6.815790e-01	-2.849089e-02	-2.190606e-01
6.085257e-01	-2.476533e-02	-2.170694e-01
5.087238e-01	-2.077643e-02	-2.110534e-01
3.607202e-01	-1.660727e-02	-1.725890e-01
1.373087e-01	-1.225961e-02	-8.209788e-02
-1.815802e-01	-7.846898e-03	1.392181e-01
-6.032847e-01	-3.229254e-03	8.055346e-01
-4.198819e-01	1.390405e-03	2.663336e+00
2.682663e+00	6.790734e-03	2.686496e+00
2.844232e+00	1.150690e-02	8.787808e-01
2.433358e+00	1.632114e-02	6.276292e-02
2.097413e+00	2.103052e-02	-1.880926e-01
1.860546e+00	2.579377e-02	-3.425116e-01
1.689695e+00	3.049123e-02	-4.046610e-01
1.539102e+00	3.511711e-02	-4.520483e-01
1.427840e+00	3.955326e-02	-4.689670e-01
1.330744e+00	4.372784e-02	-4.834485e-01
1.251925e+00	4.753322e-02	-4.826516e-01
1.182686e+00	5.085905e-02	-4.821182e-01
1.123353e+00	5.367656e-02	-4.738662e-01
1.070405e+00	5.593603e-02	-4.672048e-01
1.021751e+00	5.764188e-02	-4.562186e-01
9.765977e-01	5.883534e-02	-4.469613e-01
9.307659e-01	5.958726e-02	-4.334900e-01
8.867530e-01	5.998603e-02	-4.208824e-01
8.402947e-01	6.013245e-02	-4.037769e-01
7.917016e-01	6.012882e-02	-3.846392e-01
7.448101e-01	6.008552e-02	-3.634744e-01
8.205613e-01	-2.041074e-02	-1.444978e-01
8.397196e-01	-2.035890e-02	-1.493913e-01
8.527022e-01	-2.022854e-02	-1.554984e-01
8.598605e-01	-1.999249e-02	-1.610651e-01
8.580693e-01	-1.963387e-02	-1.672109e-01
8.551023e-01	-1.913598e-02	-1.725394e-01
8.434783e-01	-1.848909e-02	-1.783472e-01
8.308740e-01	-1.768785e-02	-1.829826e-01
8.103137e-01	-1.670515e-02	-1.889897e-01
7.869216e-01	-1.558487e-02	-1.936054e-01
7.528522e-01	-1.431273e-02	-2.005573e-01
7.115550e-01	-1.290355e-02	-2.044965e-01
6.517309e-01	-1.134734e-02	-2.094674e-01
5.745709e-01	-9.680292e-03	-2.049573e-01
4.697797e-01	-7.912487e-03	-1.948967e-01
3.150248e-01	-6.076387e-03	-1.507257e-01
8.302024e-02	-4.168724e-03	-4.963842e-02
-2.483846e-01	-2.237421e-03	1.904372e-01
-6.768103e-01	-2.216206e-04	9.037095e-01
-4.509250e-01	1.786754e-03	2.860245e+00
2.823774e+00	4.115974e-03	2.827809e+00
2.961965e+00	6.124048e-03	9.151569e-01
2.517987e+00	8.137620e-03	6.494574e-02
2.160716e+00	1.006155e-02	-1.937695e-01
1.910372e+00	1.195208e-02	-3.516841e-01
1.730302e+00	1.375566e-02	-4.143860e-01
1.572799e+00	1.546768e-02	-4.619454e-01
1.456135e+00	1.704753e-02	-4.782604e-01
1.354661e+00	1.847770e-02	-4.921372e-01
1.271703e+00	1.974376e-02	-4.902764e-01
1.198800e+00	2.080902e-02	-4.886869e-01
1.136484e+00	2.166934e-02	-4.794055e-01
1.080553e+00	2.230635e-02	-4.716344e-01
1.029171e+00	2.277794e-02	-4.595317e-01
9.815353e-01	2.308000e-02	-4.492211e-01
9.334889e-01	2.324464e-02	-4.347582e-01
8.875244e-01	2.330711e-02	-4.212485e-01
8.394016e-01	2.330486e-02	-4.033478e-01
7.894763e-01	2.327439e-02	-3.835581e-01
7.416755e-01	2.324760e-02	-3.619447e-01
8.181575e-01	-1.021931e-02	-1.440745e-01
8.367426e-01	-1.019827e-02	-1.488617e-01
8.489698e-01	-1.014198e-02	-1.548177e-01
8.553556e-01	-1.003616e-02	-1.602212e-01
8.527763e-01	-9.870976e-03	-1.661795e-01
8.489702e-01	-9.623079e-03	-1.713021e-01
8.364779e-01	-9.310393e-03	-1.768671e-01
8.225794e-01	-8.912925e-03	-1.811559e-01
8.009473e-01	-8.439593e-03	-1.868051e-01
7.769240e-01	-7.875705e-03	-1.911457e-01
7.414991e-01	-7.236314e-03	-1.975329e-01
6.983660e-01	-6.498743e-03	-2.007061e-01
6.368044e-01	-5.693232e-03	-2.046700e-01
5.574879e-01	-4.817049e-03	-1.988635e-01
4.500728e-01	-3.882245e-03	-1.867210e-01
2.917773e-01	-2.906252e-03	-1.396028e-01
5.530304e-02	-1.892402e-03	-3.306610e-02
-2.825402e-01	-8.587702e-04	2.166244e-01
-7.144059e-01	2.213719e-04	9.539090e-01
-4.667595e-01	1.281511e-03	2.960684e+00
2.895346e+00	2.540145e-03	2.899484e+00
3.021214e+00	3.603819e-03	9.334631e-01
2.560197e+00	4.662907e-03	6.603445e-02
2.191941e+00	5.665965e-03	-1.965697e-01
1.934685e+00	6.645553e-03	-3.561600e-01
1.749906e+00	7.565635e-03	-4.190809e-01
1.588903e+00	8.430038e-03	-4.666754e-01
1.469545e+00	9.227091e-03	-4.826649e-01
1.365875e+00	9.935815e-03	-4.962112e-01
1.281342e+00	1.055492e-02	-4.939926e-01
1.206800e+00	1.109344e-02	-4.919479e-01
1.142497e+00	1.152483e-02	-4.819419e-01
1.085247e+00	1.186295e-02	-4.736832e-01
1.032972e+00	1.210114e-02	-4.612290e-01
9.842007e-01	1.226124e-02	-4.504409e-01
9.351556e-01	1.234223e-02	-4.355345e-01
8.883138e-01	1.238620e-02	-4.216232e-01
8.394628e-01	1.239641e-02	-4.033772e-01
7.889775e-01	1.238958e-02	-3.833157e-01
7.407060e-01	1.238091e-02	-3.614716e-01
8.170300e-01	-5.651602e-03	-1.438760e-01
8.351878e-01	-5.640483e-03	-1.485851e-01
8.470051e-01	-5.608982e-03	-1.544594e-01
8.529506e-01	-5.549614e-03	-1.597707e-01
8.496154e-01	-5.453436e-03	-1.655635e-01
8.453714e-01	-5.313157e-03	-1.705760e-01
8.324946e-01	-5.141821e-03	-1.760248e-01
8.184748e-01	-4.922148e-03	-1.802519e-01
7.963132e-01	-4.657250e-03	-1.857243e-01
7.711242e-01	-4.321479e-03	-1.897187e-01
7.348570e-01	-3.930592e-03	-1.957635e-01
6.909888e-01	-3.494297e-03	-1.985859e-01
6.283761e-01	-3.022801e-03	-2.019611e-01
5.476657e-01	-2.602472e-03	-1.953598e-01
4.386881e-01	-2.059183e-03	-1.819978e-01
2.783807e-01	-1.451623e-03	-1.331931e-01
3.930102e-02	-8.422355e-04	-2.349837e-02
-3.024461e-01	-2.226829e-04	2.318863e-01
-7.360015e-01	4.250799e-04	9.827443e-01
-4.759328e-01	1.069702e-03	3.018870e+00
2.937450e+00	1.812892e-03	2.941648e+00
3.055315e+00	2.447616e-03	9.439992e-01
2.584369e+00	3.075985e-03	6.665789e-02
2.209831e+00	3.666726e-03	-1.981740e-01
1.948471e+00	4.236305e-03	-3.586979e-01
1.760854e+00	4.759546e-03	-4.217029e-01
1.597934e+00	5.245246e-03	-4.693278e-01
1.476993e+00	5.789064e-03	-4.851109e-01
1.371959e+00	6.193368e-03	-4.984218e-01
1.286311e+00	6.531766e-03	-4.959084e-01
1.210946e+00	6.812665e-03	-4.936382e-01
1.146317e+00	7.042103e-03	-4.835535e-01
1.088275e+00	7.239591e-03	-4.750047e-01
1.034942e+00	7.382017e-03	-4.621083e-01
9.854715e-01	7.480144e-03	-4.510226e-01
9.358714e-01	7.528612e-03	-4.358678e-01
8.888575e-01	7.551945e-03	-4.218812e-01
8.396029e-01	7.558368e-03	-4.034445e-01
7.887823e-01	7.554525e-03	-3.832209e-01
7.403483e-01	7.550266e-03	-3.612970e-01
8.162915e-01	-3.262948e-03	-1.437459e-01
8.342290e-01	-3.269927e-03	-1.484145e-01
8.457756e-01	-3.250675e-03	-1.542352e-01
8.513809e-01	-3.214215e-03	-1.594767e-01
8.479431e-01	-3.152557e-03	-1.652377e-01
8.435667e-01	-3.100009e-03	-1.702118e-01
8.304291e-01	-2.982936e-03	-1.755881e-01
8.156783e-01	-2.839117e-03	-1.796361e-01
7.928347e-01	-2.654983e-03	-1.849130e-01
7.673833e-01	-2.422716e-03	-1.887984e-01
7.306878e-01	-2.183405e-03	-1.946528e-01
6.862657e-01	-1.957750e-03	-1.972285e-01
6.243797e-01	-1.643700e-03	-2.006766e-01
5.432378e-01	-1.425585e-03	-1.937803e-01
4.313882e-01	-1.061139e-03	-1.789693e-01
2.693318e-01	-6.834851e-04	-1.288636e-01
2.905764e-02	-2.877970e-04	-1.737378e-02
-3.149515e-01	1.070565e-04	2.414742e-01
-7.500974e-01	5.187228e-04	1.001566e+00
-4.817658e-01	9.425416e-04	3.055870e+00
2.962858e+00	1.397121e-03	2.967092e+00
3.076727e+00	1.799320e-03	9.506149e-01
2.599417e+00	2.195593e-03	6.704604e-02
2.220664e+00	2.565796e-03	-1.991455e-01
1.956581e+00	2.915870e-03	-3.601908e-01
1.767173e+00	3.242468e-03	-4.232163e-01
1.604551e+00	3.656099e-03	-4.712714e-01
1.482641e+00	3.905802e-03	-4.869661e-01
1.375546e+00	4.156149e-03	-4.997249e-01
1.289156e+00	4.374937e-03	-4.970051e-01
1.213190e+00	4.539961e-03	-4.945530e-01
1.147948e+00	4.645613e-03	-4.842412e-01
1.089800e+00	4.740147e-03	-4.756704e-01
1.036456e+00	4.815065e-03	-4.627843e-01
9.865957e-01	4.861071e-03	-4.515371e-01
9.365311e-01	4.922579e-03	-4.361751e-01
8.890413e-01	4.931662e-03	-4.219685e-01
8.396008e-01	4.933500e-03	-4.034435e-01
7.886063e-01	4.930162e-03	-3.831354e-01
7.400538e-01	4.941056e-03	-3.611533e-01
8.182012e-01	-2.031041e-03	-1.440822e-01
8.341243e-01	-2.027012e-03	-1.483959e-01
8.450459e-01	-2.016839e-03	-1.541022e-01
8.504372e-01	-1.998257e-03	-1.592999e-01
8.473375e-01	-1.968161e-03	-1.651197e-01
8.423759e-01	-2.012152e-03	-1.699716e-01
8.284627e-01	-1.889972e-03	-1.751723e-01
8.137999e-01	-1.785214e-03	-1.792224e-01
7.906896e-01	-1.686281e-03	-1.844127e-01
7.649345e-01	-1.545270e-03	-1.881959e-01
7.287768e-01	-1.389532e-03	-1.941437e-01
6.838128e-01	-1.220029e-03	-1.965236e-01
6.209329e-01	-1.021988e-03	-1.995688e-01
5.391025e-01	-7.439141e-04	-1.923052e-01
4.266100e-01	-5.081207e-04	-1.769870e-01
2.641446e-01	-3.002272e-04	-1.263817e-01
2.239978e-02	-5.621474e-05	-1.339300e-02
-3.230773e-01	1.666290e-04	2.477043e-01
-7.589947e-01	4.281857e-04	1.013446e+00
-4.854916e-01	6.873649e-04	3.079503e+00
2.979559e+00	9.846334e-04	2.983817e+00
3.090391e+00	1.235842e-03	9.548365e-01
2.609014e+00	1.508098e-03	6.729358e-02
2.227641e+00	1.737487e-03	-1.997712e-01
1.962038e+00	1.957926e-03	-3.611955e-01
1.773650e+00	2.171629e-03	-4.247673e-01
1.607868e+00	2.398089e-03	-4.722457e-01
1.483932e+00	2.470471e-03	-4.873903e-01
1.378071e+00	2.614298e-03	-5.006422e-01
1.291153e+00	2.749942e-03	-4.977749e-01
1.214337e+00	2.862185e-03	-4.950207e-01
1.148872e+00	2.952125e-03	-4.846313e-01
1.090541e+00	3.050265e-03	-4.759940e-01
1.036697e+00	3.115404e-03	-4.628922e-01
9.871732e-01	3.235900e-03	-4.518014e-01
9.372713e-01	3.227326e-03	-4.365198e-01
8.891275e-01	3.221338e-03	-4.220094e-01
8.395873e-01	3.218368e-03	-4.034370e-01
7.889176e-01	3.215116e-03	-3.832866e-01
7.420167e-01	3.212828e-03	-3.621112e-01
8.156153e-01	-1.152144e-03	-1.436269e-01
8.334022e-01	-1.135258e-03	-1.482674e-01
8.447674e-01	-1.126818e-03	-1.540514e-01
8.501371e-01	-1.135857e-03	-1.592437e-01
8.483599e-01	-1.115682e-03	-1.653189e-01
8.420306e-01	-1.064179e-03	-1.699019e-01
8.269523e-01	-1.022785e-03	-1.748529e-01
8.127885e-01	-9.939825e-04	-1.789997e-01
7.895905e-01	-1.000655e-03	-1.841564e-01
7.634877e-01	-9.200734e-04	-1.878399e-01
7.264365e-01	-8.165177e-04	-1.935203e-01
6.813704e-01	-6.609181e-04	-1.958216e-01
6.177942e-01	-5.803559e-04	-1.985601e-01
5.355611e-01	-3.451798e-04	-1.910419e-01
4.241294e-01	-2.544039e-04	-1.759579e-01
2.610545e-01	-1.255555e-04	-1.249032e-01
1.902520e-02	1.248159e-05	-1.137531e-02
-3.272248e-01	1.553147e-04	2.508842e-01
-7.644847e-01	3.055843e-04	1.020776e+00
-4.877854e-01	4.553208e-04	3.094053e+00
2.989705e+00	6.276583e-04	2.993978e+00
3.099946e+00	7.740702e-04	9.577889e-01
2.615414e+00	9.179974e-04	6.745863e-02
2.231797e+00	1.052392e-03	-2.001439e-01
1.965300e+00	1.180691e-03	-3.617960e-01
1.774739e+00	1.301049e-03	-4.250281e-01
1.608968e+00	1.328229e-03	-4.725687e-01
1.485673e+00	1.439170e-03	-4.879620e-01
1.379190e+00	1.546298e-03	-5.010486e-01
1.292284e+00	1.606773e-03	-4.982109e-01
1.215722e+00	1.674983e-03	-4.955851e-01
1.150344e+00	1.820562e-03	-4.852519e-01
1.091990e+00	1.841237e-03	-4.766262e-01
1.039081e+00	1.883046e-03	-4.639567e-01
9.885205e-01	1.894897e-03	-4.524180e-01
9.362565e-01	1.880069e-03	-4.360472e-01
8.888283e-01	1.883051e-03	-4.218674e-01
8.394131e-01	1.904755e-03	-4.033533e-01
7.883335e-01	1.901559e-03	-3.830028e-01
7.397034e-01	1.885957e-03	-3.609823e-01
8.153672e-01	-1.384769e-03	-1.435832e-01
8.329736e-01	-1.384829e-03	-1.481911e-01
8.451763e-01	-1.385488e-03	-1.541259e-01
8.500686e-01	-1.367576e-03	-1.592309e-01
8.458391e-01	-1.325826e-03	-1.648277e-01
8.407871e-01	-1.247964e-03	-1.696510e-01
8.273927e-01	-1.150810e-03	-1.749461e-01
8.135015e-01	-1.213179e-03	-1.791567e-01
7.896712e-01	-9.927458e-04	-1.841752e-01
7.625163e-01	-1.040823e-03	-1.876009e-01
7.253926e-01	-6.827377e-04	-1.932422e-01
6.806424e-01	-7.691150e-04	-1.956124e-01
6.166109e-01	-3.321002e-04	-1.981797e-01
5.341485e-01	-3.941996e-04	-1.905381e-01
4.230714e-01	6.670982e-05	-1.755190e-01
2.592365e-01	4.080126e-04	-1.240334e-01
1.640763e-02	6.052078e-04	-9.810242e-03
-3.305696e-01	6.548015e-04	2.534486e-01
-7.672788e-01	7.030427e-04	1.024507e+00
-4.889747e-01	7.645215e-04	3.101596e+00
2.995169e+00	8.463598e-04	2.999450e+00
3.103142e+00	9.261804e-04	9.587762e-01
2.617963e+00	9.935537e-04	6.752440e-02
2.234140e+00	1.106594e-03	-2.003540e-01
1.967025e+00	1.042656e-03	-3.621135e-01
1.776078e+00	8.613664e-04	-4.253487e-01
1.610023e+00	4.825474e-04	-4.728786e-01
1.486957e+00	6.454267e-04	-4.883837e-01
1.380246e+00	3.299025e-04	-5.014321e-01
1.292778e+00	4.611264e-04	-4.984015e-01
1.217008e+00	1.676881e-04	-4.961095e-01
1.151022e+00	3.195007e-04	-4.855382e-01
1.091365e+00	6.126934e-05	-4.763535e-01
1.037488e+00	1.176537e-04	-4.632454e-01
9.871538e-01	-9.972811e-05	-4.517925e-01
9.370209e-01	-4.183353e-05	-4.364032e-01
8.896360e-01	-5.631248e-05	-4.222507e-01
8.402947e-01	-6.237573e-05	-4.037769e-01
7.882307e-01	-5.734860e-05	-3.829529e-01
7.396273e-01	-5.628009e-05	-3.609452e-01
8.156253e-01	-2.048961e-04	-1.436286e-01
8.334489e-01	-2.330167e-04	-1.482757e-01
8.440769e-01	-1.785482e-04	-1.539254e-01
8.485818e-01	-1.257158e-04	-1.589524e-01
8.458895e-01	-1.030789e-04	-1.648375e-01
8.389937e-01	-8.285474e-05	-1.692891e-01
8.265362e-01	-6.592601e-05	-1.747650e-01
8.104179e-01	-4.927939e-05	-1.784776e-01
7.873368e-01	6.735897e-06	-1.836308e-01
7.593926e-01	6.451198e-06	-1.868324e-01
7.228491e-01	7.885224e-06	-1.925646e-01
6.768326e-01	-1.693461e-05	-1.945175e-01
6.123586e-01	-3.657744e-05	-1.968131e-01
5.300030e-01	-2.630893e-05	-1.890593e-01
4.109323e-01	1.147190e-05	-1.704828e-01
2.508864e-01	-1.549616e-05	-1.200383e-01
1.338289e-02	-7.044531e-06	-8.001727e-03
-3.297415e-01	1.792493e-07	2.528137e-01
-7.674385e-01	5.972686e-06	1.024721e+00
-4.893155e-01	1.064252e-05	3.103758e+00
2.997719e+00	1.538380e-05	3.002003e+00
3.106310e+00	1.921661e-05	9.597552e-01
2.621484e+00	2.291628e-05	6.761520e-02
2.232505e+00	2.602636e-05	-2.002073e-01
1.960160e+00	6.439460e-05	-3.608497e-01
1.764911e+00	6.731944e-05	-4.226745e-01
1.606092e+00	4.138402e-05	-4.717239e-01
1.483343e+00	1.027301e-04	-4.871966e-01
1.376902e+00	1.003768e-04	-5.002175e-01
1.290203e+00	1.004204e-04	-4.974090e-01
1.213922e+00	1.054571e-04	-4.948513e-01
1.149086e+00	7.676358e-05	-4.847216e-01
1.089168e+00	9.762872e-05	-4.753946e-01
1.036961e+00	1.167582e-04	-4.630100e-01
9.856812e-01	1.407859e-04	-4.511185e-01
9.371863e-01	1.664693e-04	-4.364802e-01
8.883355e-01	1.964237e-04	-4.216335e-01
8.393174e-01	2.076762e-04	-4.033073e-01
7.886778e-01	2.862196e-04	-3.831701e-01
7.398670e-01	2.756718e-04	-3.610621e-01
8.200866e-01	1.464375e-03	-1.444142e-01
8.302524e-01	1.464735e-03	-1.477070e-01
8.416229e-01	1.466427e-03	-1.534779e-01
8.482920e-01	1.451077e-03	-1.588981e-01
8.449823e-01	1.412941e-03	-1.646607e-01
8.401508e-01	1.426807e-03	-1.695226e-01
8.268766e-01	1.288895e-03	-1.748369e-01
8.124521e-01	1.351541e-03	-1.789256e-01
7.889347e-01	1.110348e-03	-1.840034e-01
7.625011e-01	1.135268e-03	-1.875972e-01
7.256963e-01	7.862124e-04	-1.933231e-01
6.812369e-01	7.991460e-04	-1.957833e-01
6.167545e-01	3.679313e-04	-1.982259e-01
5.334533e-01	4.582226e-04	-1.902901e-01
4.228272e-01	-3.702961e-05	-1.754176e-01
2.596357e-01	-3.781023e-04	-1.242244e-01
1.606949e-02	-5.758996e-04	-9.608066e-03
-3.309096e-01	-6.016092e-04	2.537093e-01
-7.675740e-01	-6.532804e-04	1.024901e+00
-4.890776e-01	-7.474963e-04	3.102249e+00
2.995587e+00	-8.348201e-04	2.999868e+00
3.103472e+00	-8.906263e-04	9.588782e-01
2.618181e+00	-9.884743e-04	6.753000e-02
2.235271e+00	-1.104343e-03	-2.004554e-01
1.967792e+00	-1.044274e-03	-3.622548e-01
1.775651e+00	-8.343861e-04	-4.252465e-01
1.610624e+00	-4.911563e-04	-4.730551e-01
1.487747e+00	-6.609620e-04	-4.886433e-01
1.380216e+00	-3.566080e-04	-5.014213e-01
1.292842e+00	-4.213843e-04	-4.984264e-01
1.216714e+00	-1.430967e-04	-4.959897e-01
1.150911e+00	-2.447577e-04	-4.854910e-01
1.091899e+00	-2.938903e-05	-4.765865e-01
1.038104e+00	-1.269215e-04	-4.635204e-01
9.879465e-01	-1.557263e-05	-4.521553e-01
9.380461e-01	-4.773033e-05	-4.368807e-01
8.906297e-01	-2.104194e-05	-4.227224e-01
8.426374e-01	-1.188756e-05	-4.049026e-01
7.927563e-01	-1.614805e-05	-3.851516e-01
7.380120e-01	-1.713710e-05	-3.601569e-01
8.155648e-01	1.520712e-03	-1.436180e-01
8.333220e-01	1.545989e-03	-1.482531e-01
8.446383e-01	1.482863e-03	-1.540278e-01
8.499805e-01	1.446054e-03	-1.592144e-01
8.462806e-01	1.310068e-03	-1.649137e-01
8.413034e-01	1.264815e-03	-1.697552e-01
8.275442e-01	1.205989e-03	-1.749781e-01
8.130888e-01	1.131197e-03	-1.790658e-01
7.901829e-01	1.085438e-03	-1.842945e-01
7.636710e-01	9.879066e-04	-1.878850e-01
7.272722e-01	8.824482e-04	-1.937429e-01
6.822939e-01	7.969147e-04	-1.960871e-01
6.173315e-01	7.025620e-04	-1.984113e-01
5.356076e-01	5.407318e-04	-1.910585e-01
4.247215e-01	3.942446e-04	-1.762035e-01
2.610600e-01	2.760479e-04	-1.249059e-01
1.858835e-02	1.167690e-04	-1.111411e-02
-3.278624e-01	-4.408045e-05	2.513730e-01
-7.636519e-01	-2.105354e-04	1.019665e+00
-4.873145e-01	-3.750464e-04	3.091066e+00
2.990883e+00	-5.639001e-04	2.995157e+00
3.099172e+00	-7.244946e-04	9.575496e-01
2.614480e+00	-8.827391e-04	6.743456e-02
2.231628e+00	-1.030519e-03	-2.001287e-01
1.965855e+00	-1.206918e-03	-3.618981e-01
1.774548e+00	-1.337392e-03	-4.249823e-01
1.608345e+00	-1.459702e-03	-4.723856e-01
1.485420e+00	-1.605108e-03	-4.878789e-01
1.379931e+00	-1.706005e-03	-5.013179e-01
1.292925e+00	-1.788433e-03	-4.984582e-01
1.216156e+00	-1.861700e-03	-4.957620e-01
1.150459e+00	-1.961194e-03	-4.853006e-01
1.090869e+00	-2.009972e-03	-4.761372e-01
1.037014e+00	-2.046140e-03	-4.630337e-01
9.870982e-01	-2.087629e-03	-4.517671e-01
9.369839e-01	-2.131514e-03	-4.363860e-01
8.892036e-01	-2.076777e-03	-4.220455e-01
8.395440e-01	-2.120314e-03	-4.034162e-01
7.883834e-01	-2.197229e-03	-3.830271e-01
7.397155e-01	-2.185617e-03	-3.609882e-01
8.158444e-01	2.165672e-03	-1.436672e-01
8.336572e-01	2.161201e-03	-1.483128e-01
8.447756e-01	2.154239e-03	-1.540529e-01
8.528915e-01	2.054396e-03	-1.597597e-01
8.484556e-01	2.021117e-03	-1.653375e-01
8.419592e-01	1.982926e-03	-1.698875e-01
8.289432e-01	1.901487e-03	-1.752739e-01
8.141510e-01	1.804161e-03	-1.792997e-01
7.908789e-01	1.676841e-03	-1.844569e-01
7.651657e-01	1.558589e-03	-1.882528e-01
7.281949e-01	1.390204e-03	-1.939887e-01
6.836342e-01	1.286120e-03	-1.964723e-01
6.202871e-01	1.062727e-03	-1.993613e-01
5.380521e-01	8.514666e-04	-1.919305e-01