# vtk DataFile Version 2.0
OUTPUT by 3D-VPM
ASCII
DATASET UNSTRUCTURED_GRID
POINTS 820 double
1.000000e+00	0.000000e+00	3.108535e-03
9.931674e-01	0.000000e+00	2.146710e-03
9.755282e-01	0.000000e+00	-3.047749e-04
9.448927e-01	0.000000e+00	-4.427875e-03
9.045085e-01	0.000000e+00	-9.666105e-03
8.530688e-01	0.000000e+00	-1.595752e-02
7.938926e-01	0.000000e+00	-2.279632e-02
7.266841e-01	0.000000e+00	-2.993266e-02
6.545085e-01	0.000000e+00	-3.698419e-02
5.781101e-01	0.000000e+00	-4.349568e-02
5.000000e-01	0.000000e+00	-4.920171e-02
4.218900e-01	0.000000e+00	-5.340879e-02
3.454915e-01	0.000000e+00	-5.603086e-02
2.733159e-01	0.000000e+00	-5.626077e-02
2.061074e-01	0.000000e+00	-5.434589e-02
1.469312e-01	0.000000e+00	-4.965535e-02
9.549150e-02	0.000000e+00	-4.282007e-02
5.510729e-02	0.000000e+00	-3.358901e-02
2.447174e-02	0.000000e+00	-2.275394e-02
6.832625e-03	0.000000e+00	-1.032495e-02
0.000000e+00	0.000000e+00	3.108535e-03
6.832625e-03	0.000000e+00	1.654202e-02
2.447174e-02	0.000000e+00	2.897102e-02
5.510728e-02	0.000000e+00	3.980609e-02
9.549150e-02	0.000000e+00	4.903715e-02
1.469312e-01	0.000000e+00	5.587242e-02
2.061074e-01	0.000000e+00	6.056298e-02
2.733159e-01	0.000000e+00	6.247785e-02
3.454915e-01	0.000000e+00	6.224794e-02
4.218900e-01	0.000000e+00	5.962587e-02
5.000000e-01	0.000000e+00	5.541879e-02
5.781101e-01	0.000000e+00	4.971275e-02
6.545085e-01	0.000000e+00	4.320127e-02
7.266841e-01	0.000000e+00	3.614974e-02
7.938926e-01	0.000000e+00	2.901340e-02
8.530688e-01	0.000000e+00	2.217460e-02
9.045085e-01	0.000000e+00	1.588318e-02
9.448927e-01	0.000000e+00	1.064495e-02
9.755282e-01	0.000000e+00	6.521845e-03
9.931674e-01	0.000000e+00	4.070360e-03
1.000000e+00	0.000000e+00	3.108535e-03
1.000000e+00	1.052632e+00	3.108535e-03
9.931674e-01	1.052632e+00	2.146710e-03
9.755282e-01	1.052632e+00	-3.047749e-04
9.448927e-01	1.052632e+00	-4.427875e-03
9.045085e-01	1.052632e+00	-9.666105e-03
8.530689e-01	1.052632e+00	-1.595752e-02
7.938926e-01	1.052632e+00	-2.279632e-02
7.266841e-01	1.052632e+00	-2.993266e-02
6.545085e-01	1.052632e+00	-3.698419e-02
5.781101e-01	1.052632e+00	-4.349568e-02
5.000000e-01	1.052632e+00	-4.920171e-02
4.218900e-01	1.052632e+00	-5.340879e-02
3.454915e-01	1.052632e+00	-5.603086e-02
2.733158e-01	1.052632e+00	-5.626077e-02
2.061074e-01	1.052632e+00	-5.434589e-02
1.469311e-01	1.052632e+00	-4.965535e-02
9.549150e-02	1.052632e+00	-4.282007e-02
5.510729e-02	1.052632e+00	-3.358901e-02
2.447174e-02	1.052632e+00	-2.275394e-02
6.832625e-03	1.052632e+00	-1.032495e-02
0.000000e+00	1.052632e+00	3.108535e-03
6.832625e-03	1.052632e+00	1.654202e-02
2.447174e-02	1.052632e+00	2.897102e-02
5.510728e-02	1.052632e+00	3.980609e-02
9.549150e-02	1.052632e+00	4.903715e-02
1.469311e-01	1.052632e+00	5.587242e-02
2.061074e-01	1.052632e+00	6.056298e-02
2.733158e-01	1.052632e+00	6.247785e-02
3.454915e-01	1.052632e+00	6.224794e-02
4.218900e-01	1.052632e+00	5.962587e-02
5.000000e-01	1.052632e+00	5.541879e-02
5.781101e-01	1.052632e+00	4.971275e-02
6.545085e-01	1.052632e+00	4.320127e-02
7.266841e-01	1.052632e+00	3.614974e-02
7.938926e-01	1.052632e+00	2.901340e-02
8.530689e-01	1.052632e+00	2.217460e-02
9.045085e-01	1.052632e+00	1.588318e-02
9.448927e-01	1.052632e+00	1.064495e-02
9.755282e-01	1.052632e+00	6.521845e-03
9.931674e-01	1.052632e+00	4.070360e-03
1.000000e+00	1.052632e+00	3.108535e-03
1.000000e+00	2.105263e+00	3.108535e-03
9.931674e-01	2.105263e+00	2.146710e-03
9.755282e-01	2.105263e+00	-3.047749e-04
9.448927e-01	2.105263e+00	-4.427875e-03
9.045085e-01	2.105263e+00	-9.666105e-03
8.530689e-01	2.105263e+00	-1.595752e-02
7.938926e-01	2.105263e+00	-2.279632e-02
7.266841e-01	2.105263e+00	-2.993266e-02
6.545085e-01	2.105263e+00	-3.698419e-02
5.781101e-01	2.105263e+00	-4.349568e-02
5.000000e-01	2.105263e+00	-4.920171e-02
4.218900e-01	2.105263e+00	-5.340879e-02
3.454915e-01	2.105263e+00	-5.603086e-02
2.733158e-01	2.105263e+00	-5.626077e-02
2.061074e-01	2.105263e+00	-5.434589e-02
1.469312e-01	2.105263e+00	-4.965535e-02
9.549150e-02	2.105263e+00	-4.282007e-02
5.510729e-02	2.105263e+00	-3.358901e-02
2.447174e-02	2.105263e+00	-2.275394e-02
6.832625e-03	2.105263e+00	-1.032495e-02
0.000000e+00	2.105263e+00	3.108535e-03
6.832625e-03	2.105263e+00	1.654202e-02
2.447174e-02	2.105263e+00	2.897102e-02
5.510728e-02	2.105263e+00	3.980609e-02
9.549150e-02	2.105263e+00	4.903715e-02
1.469312e-01	2.105263e+00	5.587242e-02
2.061074e-01	2.105263e+00	6.056298e-02
2.733158e-01	2.105263e+00	6.247785e-02
3.454915e-01	2.105263e+00	6.224794e-02
4.218900e-01	2.105263e+00	5.962587e-02
5.000000e-01	2.105263e+00	5.541879e-02
5.781101e-01	2.105263e+00	4.971275e-02
6.545085e-01	2.105263e+00	4.320127e-02
7.266841e-01	2.105263e+00	3.614974e-02
7.938926e-01	2.105263e+00	2.901340e-02
8.530689e-01	2.105263e+00	2.217460e-02
9.045085e-01	2.105263e+00	1.588318e-02
9.448927e-01	2.105263e+00	1.064495e-02
9.755282e-01	2.105263e+00	6.521845e-03
9.931674e-01	2.105263e+00	4.070360e-03
1.000000e+00	2.105263e+00	3.108535e-03
1.000000e+00	3.157895e+00	3.108535e-03
9.931674e-01	3.157895e+00	2.146710e-03
9.755282e-01	3.157895e+00	-3.047749e-04
9.448927e-01	3.157895e+00	-4.427875e-03
9.045085e-01	3.157895e+00	-9.666105e-03
8.530689e-01	3.157895e+00	-1.595752e-02
7.938926e-01	3.157895e+00	-2.279632e-02
7.266842e-01	3.157895e+00	-2.993266e-02
6.545085e-01	3.157895e+00	-3.698419e-02
5.781101e-01	3.157895e+00	-4.349568e-02
5.000000e-01	3.157895e+00	-4.920171e-02
4.218900e-01	3.157895e+00	-5.340879e-02
3.454915e-01	3.157895e+00	-5.603086e-02
2.733158e-01	3.157895e+00	-5.626077e-02
2.061074e-01	3.157895e+00	-5.434589e-02
1.469312e-01	3.157895e+00	-4.965535e-02
9.549150e-02	3.157895e+00	-4.282007e-02
5.510729e-02	3.157895e+00	-3.358901e-02
2.447174e-02	3.157895e+00	-2.275394e-02
6.832625e-03	3.157895e+00	-1.032495e-02
0.000000e+00	3.157895e+00	3.108535e-03
6.832625e-03	3.157895e+00	1.654202e-02
2.447174e-02	3.157895e+00	2.897102e-02
5.510728e-02	3.157895e+00	3.980609e-02
9.549150e-02	3.157895e+00	4.903715e-02
1.469312e-01	3.157895e+00	5.587242e-02
2.061074e-01	3.157895e+00	6.056298e-02
2.733158e-01	3.157895e+00	6.247785e-02
3.454915e-01	3.157895e+00	6.224794e-02
4.218900e-01	3.157895e+00	5.962587e-02
5.000000e-01	3.157895e+00	5.541879e-02
5.781101e-01	3.157895e+00	4.971275e-02
6.545085e-01	3.157895e+00	4.320127e-02
7.266842e-01	3.157895e+00	3.614974e-02
7.938926e-01	3.157895e+00	2.901340e-02
8.530689e-01	3.157895e+00	2.217460e-02
9.045085e-01	3.157895e+00	1.588318e-02
9.448927e-01	3.157895e+00	1.064495e-02
9.755282e-01	3.157895e+00	6.521845e-03
9.931674e-01	3.157895e+00	4.070360e-03
1.000000e+00	3.157895e+00	3.108535e-03
1.000000e+00	4.210526e+00	3.108535e-03
9.931674e-01	4.210526e+00	2.146710e-03
9.755282e-01	4.210526e+00	-3.047749e-04
9.448927e-01	4.210526e+00	-4.427875e-03
9.045085e-01	4.210526e+00	-9.666105e-03
8.530689e-01	4.210526e+00	-1.595752e-02
7.938926e-01	4.210526e+00	-2.279632e-02
7.266841e-01	4.210526e+00	-2.993266e-02
6.545085e-01	4.210526e+00	-3.698419e-02
5.781101e-01	4.210526e+00	-4.349568e-02
5.000000e-01	4.210526e+00	-4.920171e-02
4.218900e-01	4.210526e+00	-5.340879e-02
3.454915e-01	4.210526e+00	-5.603086e-02
2.733158e-01	4.210526e+00	-5.626077e-02
2.061074e-01	4.210526e+00	-5.434589e-02
1.469311e-01	4.210526e+00	-4.965535e-02
9.549150e-02	4.210526e+00	-4.282007e-02
5.510729e-02	4.210526e+00	-3.358901e-02
2.447174e-02	4.210526e+00	-2.275394e-02
6.832625e-03	4.210526e+00	-1.032495e-02
0.000000e+00	4.210526e+00	3.108535e-03
6.832625e-03	4.210526e+00	1.654202e-02
2.447174e-02	4.210526e+00	2.897102e-02
5.510728e-02	4.210526e+00	3.980609e-02
9.549150e-02	4.210526e+00	4.903715e-02
1.469311e-01	4.210526e+00	5.587242e-02
2.061074e-01	4.210526e+00	6.056298e-02
2.733158e-01	4.210526e+00	6.247785e-02
3.454915e-01	4.210526e+00	6.224794e-02
4.218900e-01	4.210526e+00	5.962587e-02
5.000000e-01	4.210526e+00	5.541879e-02
5.781101e-01	4.210526e+00	4.971275e-02
6.545085e-01	4.210526e+00	4.320127e-02
7.266841e-01	4.210526e+00	3.614974e-02
7.938926e-01	4.210526e+00	2.901340e-02
8.530689e-01	4.210526e+00	2.217460e-02
9.045085e-01	4.210526e+00	1.588318e-02
9.448927e-01	4.210526e+00	1.064495e-02
9.755282e-01	4.210526e+00	6.521845e-03
9.931674e-01	4.210526e+00	4.070360e-03
1.000000e+00	4.210526e+00	3.108535e-03
1.000000e+00	5.263158e+00	3.108535e-03
9.931674e-01	5.263158e+00	2.146710e-03
9.755282e-01	5.263158e+00	-3.047749e-04
9.448927e-01	5.263158e+00	-4.427875e-03
9.045085e-01	5.263158e+00	-9.666105e-03
8.530689e-01	5.263158e+00	-1.595752e-02
7.938926e-01	5.263158e+00	-2.279632e-02
7.266842e-01	5.263158e+00	-2.993266e-02
6.545085e-01	5.263158e+00	-3.698419e-02
5.781101e-01	5.263158e+00	-4.349568e-02
5.000000e-01	5.263158e+00	-4.920171e-02
4.218900e-01	5.263158e+00	-5.340879e-02
3.454915e-01	5.263158e+00	-5.603086e-02
2.733158e-01	5.263158e+00	-5.626077e-02
2.061074e-01	5.263158e+00	-5.434589e-02
1.469311e-01	5.263158e+00	-4.965535e-02
9.549150e-02	5.263158e+00	-4.282007e-02
5.510729e-02	5.263158e+00	-3.358901e-02
2.447174e-02	5.263158e+00	-2.275394e-02
6.832625e-03	5.263158e+00	-1.032495e-02
0.000000e+00	5.263158e+00	3.108535e-03
6.832625e-03	5.263158e+00	1.654202e-02
2.447174e-02	5.263158e+00	2.897102e-02
5.510728e-02	5.263158e+00	3.980609e-02
9.549150e-02	5.263158e+00	4.903715e-02
1.469311e-01	5.263158e+00	5.587242e-02
2.061074e-01	5.263158e+00	6.056298e-02
2.733158e-01	5.263158e+00	6.247785e-02
3.454915e-01	5.263158e+00	6.224794e-02
4.218900e-01	5.263158e+00	5.962587e-02
5.000000e-01	5.263158e+00	5.541879e-02
5.781101e-01	5.263158e+00	4.971275e-02
6.545085e-01	5.263158e+00	4.320127e-02
7.266842e-01	5.263158e+00	3.614974e-02
7.938926e-01	5.263158e+00	2.901340e-02
8.530689e-01	5.263158e+00	2.217460e-02
9.045085e-01	5.263158e+00	1.588318e-02
9.448927e-01	5.263158e+00	1.064495e-02
9.755282e-01	5.263158e+00	6.521845e-03
9.931674e-01	5.263158e+00	4.070360e-03
1.000000e+00	5.263158e+00	3.108535e-03
1.000000e+00	6.315789e+00	3.108535e-03
9.931673e-01	6.315789e+00	2.146710e-03
9.755282e-01	6.315789e+00	-3.047749e-04
9.448927e-01	6.315789e+00	-4.427875e-03
9.045085e-01	6.315789e+00	-9.666105e-03
[...]
CELL_DATA 760
VECTORS V double
3.078609e-01	1.296093e-03	4.333725e-02
3.177657e-01	1.290501e-03	4.416301e-02
3.279600e-01	1.292193e-03	4.413873e-02
3.380530e-01	1.297445e-03	4.384882e-02
3.470401e-01	1.297431e-03	4.244538e-02
3.567571e-01	1.281143e-03	4.122921e-02
3.649111e-01	1.237021e-03	3.874706e-02
3.736899e-01	1.154845e-03	3.650934e-02
3.817913e-01	1.028434e-03	3.254030e-02
3.907267e-01	8.577186e-04	2.854307e-02
3.994840e-01	6.493040e-04	2.151659e-02
4.087321e-01	4.159159e-04	1.402808e-02
4.176506e-01	1.734299e-04	1.330394e-03
4.259076e-01	-6.055790e-05	-1.213481e-02
4.351126e-01	-2.738083e-04	-3.448876e-02
4.372604e-01	-4.569084e-04	-5.810294e-02
4.306655e-01	-6.100789e-04	-9.844191e-02
4.134084e-01	-7.334075e-04	-1.462128e-01
3.340627e-01	-8.356858e-04	-2.353895e-01
1.231105e-01	-9.166901e-04	-2.420450e-01
6.359699e-02	-9.885002e-04	1.250367e-01
2.688068e-01	-1.031277e-03	1.894085e-01
3.646370e-01	-1.052888e-03	1.289635e-01
3.952839e-01	-1.047153e-03	9.035435e-02
4.114436e-01	-1.007520e-03	5.467243e-02
4.161981e-01	-9.286586e-04	3.298959e-02
4.125420e-01	-8.073224e-04	1.175394e-02
4.086313e-01	-6.474543e-04	-1.301664e-03
4.034975e-01	-4.572739e-04	-1.384842e-02
3.974388e-01	-2.509182e-04	-2.140644e-02
3.916498e-01	-4.306610e-05	-2.861050e-02
3.854106e-01	1.525022e-04	-3.284877e-02
3.799468e-01	3.263099e-04	-3.712064e-02
3.736462e-01	4.732160e-04	-3.967457e-02
3.678130e-01	5.927239e-04	-4.250691e-02
3.598836e-01	6.867995e-04	-4.401622e-02
3.516334e-01	7.576515e-04	-4.561033e-02
3.400909e-01	8.060191e-04	-4.577137e-02
3.254807e-01	8.307705e-04	-4.523524e-02
3.086917e-01	8.339826e-04	-4.345421e-02
3.083327e-01	7.649620e-04	4.340367e-02
3.178047e-01	7.606290e-04	4.416842e-02
3.278325e-01	7.592151e-04	4.412157e-02
3.379958e-01	7.590534e-04	4.384140e-02
3.472210e-01	7.554879e-04	4.246750e-02
3.573004e-01	7.426319e-04	4.129201e-02
3.659125e-01	7.143343e-04	3.885339e-02
3.752092e-01	6.652131e-04	3.665778e-02
3.838455e-01	5.921059e-04	3.271537e-02
3.932833e-01	4.950668e-04	2.872983e-02
4.024676e-01	3.776589e-04	2.167729e-02
4.120314e-01	2.466550e-04	1.414131e-02
4.211325e-01	1.104470e-04	1.341485e-03
4.294469e-01	-2.158236e-05	-1.223565e-02
4.386148e-01	-1.428714e-04	-3.476635e-02
4.406954e-01	-2.481419e-04	-5.855939e-02
4.340644e-01	-3.373033e-04	-9.921882e-02
4.168994e-01	-4.099513e-04	-1.474475e-01
3.375941e-01	-4.707207e-04	-2.378779e-01
1.255718e-01	-5.189989e-04	-2.468841e-01
6.185195e-02	-5.616457e-04	1.216059e-01
2.676765e-01	-5.868129e-04	1.886121e-01
3.644619e-01	-5.993727e-04	1.289016e-01
3.958825e-01	-5.960698e-04	9.049118e-02
4.126797e-01	-5.735559e-04	5.483668e-02
4.179825e-01	-5.291661e-04	3.313102e-02
4.147771e-01	-4.612857e-04	1.181762e-02
4.111949e-01	-3.721109e-04	-1.309830e-03
4.062500e-01	-2.659913e-04	-1.394289e-02
4.002370e-01	-1.504224e-04	-2.155715e-02
3.943692e-01	-3.319271e-05	-2.880916e-02
3.879598e-01	7.826086e-05	-3.306604e-02
3.822735e-01	1.786424e-04	-3.734795e-02
3.757386e-01	2.648444e-04	-3.989674e-02
3.696921e-01	3.361285e-04	-4.272407e-02
3.615811e-01	3.930902e-04	-4.422384e-02
3.531611e-01	4.365140e-04	-4.580848e-02
3.413894e-01	4.665025e-04	-4.594612e-02
3.263788e-01	4.822538e-04	-4.536005e-02
3.089627e-01	4.849716e-04	-4.349236e-02
3.085920e-01	1.510590e-04	4.344018e-02
3.180116e-01	1.490868e-04	4.419718e-02
3.280048e-01	1.461928e-04	4.414475e-02
3.381571e-01	1.425881e-04	4.386232e-02
3.473913e-01	1.379521e-04	4.248832e-02
3.574933e-01	1.318197e-04	4.131430e-02
3.661369e-01	1.237441e-04	3.887722e-02
3.754696e-01	1.133842e-04	3.668322e-02
3.841435e-01	1.006359e-04	3.274078e-02
3.936189e-01	8.560154e-05	2.875434e-02
4.028392e-01	6.860768e-05	2.169731e-02
4.124373e-01	5.017590e-05	1.415525e-02
4.215707e-01	3.088487e-05	1.342881e-03
4.299162e-01	1.148006e-05	-1.224902e-02
4.391150e-01	-7.477431e-06	-3.480600e-02
4.412305e-01	-2.525103e-05	-5.863049e-02
4.346409e-01	-4.157323e-05	-9.935060e-02
4.175346e-01	-5.584521e-05	-1.476722e-01
3.382636e-01	-6.835410e-05	-2.383496e-01
1.260403e-01	-7.842649e-05	-2.478053e-01
6.153318e-02	-8.709470e-05	1.209791e-01
2.674838e-01	-9.187084e-05	1.884763e-01
3.644324e-01	-9.396914e-05	1.288912e-01
3.959650e-01	-9.320019e-05	9.051003e-02
4.128390e-01	-8.948697e-05	5.485784e-02
4.181991e-01	-8.286130e-05	3.314819e-02
4.150385e-01	-7.335721e-05	1.182507e-02
4.114918e-01	-6.128772e-05	-1.310776e-03
4.065753e-01	-4.697998e-05	-1.395405e-02
4.005842e-01	-3.100196e-05	-2.157585e-02
3.947328e-01	-1.394520e-05	-2.883572e-02
3.883342e-01	3.479351e-06	-3.309795e-02
3.826533e-01	2.056184e-05	-3.738507e-02
3.761190e-01	3.663813e-05	-3.993713e-02
3.700684e-01	5.112269e-05	-4.276756e-02
3.619489e-01	6.357105e-05	-4.426882e-02
3.535135e-01	7.361042e-05	-4.585420e-02
3.417120e-01	8.090848e-05	-4.598955e-02
3.266470e-01	8.515138e-05	-4.539733e-02
3.091503e-01	8.652160e-05	-4.351876e-02
3.086654e-01	4.872155e-05	4.345051e-02
3.180698e-01	4.809712e-05	4.420527e-02
3.280545e-01	4.715041e-05	4.415144e-02
3.382054e-01	4.589993e-05	4.386858e-02
3.474427e-01	4.424442e-05	4.249461e-02
3.575507e-01	4.207912e-05	4.132093e-02
3.662024e-01	3.932416e-05	3.888417e-02
3.755447e-01	3.591295e-05	3.669056e-02
3.842291e-01	3.182676e-05	3.274807e-02
3.937152e-01	2.709192e-05	2.876138e-02
4.029461e-01	2.179122e-05	2.170306e-02
4.125544e-01	1.605652e-05	1.415927e-02
4.216977e-01	1.003847e-05	1.343286e-03
4.300530e-01	3.946396e-06	-1.225292e-02
4.392620e-01	-2.059236e-06	-3.481766e-02
4.413892e-01	-7.746995e-06	-5.865157e-02
4.348130e-01	-1.301777e-05	-9.938994e-02
4.177247e-01	-1.765141e-05	-1.477394e-01
3.384629e-01	-2.170710e-05	-2.384900e-01
1.261770e-01	-2.493415e-05	-2.480740e-01
6.144518e-02	-2.762288e-05	1.208061e-01
2.674384e-01	-2.899069e-05	1.884443e-01
3.644354e-01	-2.942564e-05	1.288922e-01
3.959997e-01	-2.890162e-05	9.051795e-02
4.128945e-01	-2.742015e-05	5.486522e-02
4.182694e-01	-2.503673e-05	3.315377e-02
4.151197e-01	-2.179842e-05	1.182739e-02
4.115813e-01	-1.783815e-05	-1.311061e-03
4.066706e-01	-1.328082e-05	-1.395733e-02
4.006834e-01	-8.316864e-06	-2.158120e-02
3.948340e-01	-3.128333e-06	-2.884311e-02
3.884357e-01	2.081998e-06	-3.310660e-02
3.827538e-01	7.125944e-06	-3.739488e-02
3.762174e-01	1.184440e-05	-3.994759e-02
3.701646e-01	1.610561e-05	-4.277868e-02
3.620426e-01	1.981430e-05	-4.428028e-02
3.536037e-01	2.286942e-05	-4.586590e-02
3.417950e-01	2.514972e-05	-4.600071e-02
3.267150e-01	2.651665e-05	-4.540678e-02
3.091939e-01	2.697074e-05	-4.352490e-02
3.086974e-01	2.200588e-05	4.345501e-02
3.180976e-01	2.172401e-05	4.420914e-02
3.280802e-01	2.125329e-05	4.415490e-02
3.382311e-01	2.059552e-05	4.387192e-02
3.474699e-01	1.971243e-05	4.249793e-02
3.575799e-01	1.856813e-05	4.132431e-02
3.662338e-01	1.715403e-05	3.888750e-02
3.755784e-01	1.547541e-05	3.669385e-02
3.842653e-01	1.355477e-05	3.275116e-02
3.937542e-01	1.141931e-05	2.876423e-02
4.029882e-01	9.102149e-06	2.170533e-02
4.126003e-01	6.641996e-06	1.416084e-02
4.217475e-01	4.082325e-06	1.343444e-03
4.301073e-01	1.495378e-06	-1.225447e-02
4.393210e-01	-1.060672e-06	-3.482233e-02
4.414534e-01	-3.491779e-06	-5.866011e-02
4.348832e-01	-5.754207e-06	-9.940598e-02
4.178024e-01	-7.747158e-06	-1.477669e-01
3.385441e-01	-9.487515e-06	-2.385473e-01
1.262319e-01	-1.085966e-05	-2.481820e-01
6.141127e-02	-1.197640e-05	1.207394e-01
2.674231e-01	-1.251038e-05	1.884335e-01
3.644398e-01	-1.262684e-05	1.288938e-01
3.960164e-01	-1.232510e-05	9.052177e-02
4.129189e-01	-1.161394e-05	5.486846e-02
4.182989e-01	-1.053061e-05	3.315610e-02
4.151527e-01	-9.104806e-06	1.182833e-02
4.116165e-01	-7.400704e-06	-1.311173e-03
4.067075e-01	-5.470524e-06	-1.395859e-02
4.007214e-01	-3.384678e-06	-2.158324e-02
3.948730e-01	-1.200991e-06	-2.884596e-02
3.884756e-01	1.021641e-06	-3.311000e-02
3.827947e-01	3.227229e-06	-3.739888e-02
3.762597e-01	5.363393e-06	-3.995207e-02
3.702082e-01	7.370956e-06	-4.278372e-02
3.620876e-01	9.187327e-06	-4.428578e-02
3.536495e-01	1.073600e-05	-4.587184e-02
3.418399e-01	1.193386e-05	-4.600675e-02
3.267558e-01	1.269435e-05	-4.541245e-02
3.092269e-01	1.299603e-05	-4.352955e-02
3.087130e-01	1.173190e-05	4.345721e-02
3.181116e-01	1.158580e-05	4.421108e-02
3.280934e-01	1.133201e-05	4.415668e-02
3.382446e-01	1.097234e-05	4.387367e-02
3.474844e-01	1.048494e-05	4.249971e-02
3.575957e-01	9.847599e-06	4.132613e-02
3.662509e-01	9.050740e-06	3.888932e-02
3.755969e-01	8.097544e-06	3.669566e-02
3.842851e-01	7.005931e-06	3.275284e-02
3.937752e-01	5.797871e-06	2.876576e-02
4.030106e-01	4.500721e-06	2.170654e-02
4.126241e-01	3.145217e-06	1.416165e-02
4.217728e-01	1.760090e-06	1.343525e-03
4.301343e-01	3.840557e-07	-1.225524e-02
4.393499e-01	-9.557472e-07	-3.482462e-02
4.414846e-01	-2.215358e-06	-5.866426e-02
4.349171e-01	-3.376914e-06	-9.941373e-02
4.178397e-01	-4.391775e-06	-1.477801e-01
3.385829e-01	-5.269762e-06	-2.385746e-01
1.262578e-01	-5.952749e-06	-2.482328e-01
6.139583e-02	-6.494325e-06	1.207091e-01
2.674171e-01	-6.735898e-06	1.884293e-01
3.644431e-01	-6.759198e-06	1.288949e-01
3.960254e-01	-6.566847e-06	9.052384e-02
4.129316e-01	-6.163185e-06	5.487014e-02
4.183139e-01	-5.568092e-06	3.315729e-02
4.151694e-01	-4.794659e-06	1.182880e-02
4.116344e-01	-3.873765e-06	-1.311230e-03
4.067264e-01	-2.828697e-06	-1.395924e-02
4.007411e-01	-1.692847e-06	-2.158430e-02
3.948934e-01	-4.948330e-07	-2.884745e-02
3.884967e-01	7.328787e-07	-3.311181e-02
3.828166e-01	1.957127e-06	-3.740102e-02
3.762823e-01	3.144391e-06	-3.995448e-02
3.702316e-01	4.258419e-06	-4.278642e-02
3.621115e-01	5.261389e-06	-4.428870e-02
3.536736e-01	6.109673e-06	-4.587496e-02
3.418633e-01	6.762401e-06	-4.600991e-02
3.267772e-01	7.179392e-06	-4.541542e-02
3.092448e-01	7.351743e-06	-4.353207e-02
3.087220e-01	7.008788e-06	4.345848e-02
3.181200e-01	6.921340e-06	4.421224e-02
3.281014e-01	6.763111e-06	4.415776e-02
3.382528e-01	6.534858e-06	4.387473e-02
3.474930e-01	6.229414e-06	4.250076e-02
3.576051e-01	5.836630e-06	4.132722e-02
3.662612e-01	5.348501e-06	3.889042e-02
3.756081e-01	4.764355e-06	3.669675e-02
3.842970e-01	4.093602e-06	3.275386e-02
3.937879e-01	3.379317e-06	2.876669e-02
4.030241e-01	2.587533e-06	2.170726e-02
4.126383e-01	1.763959e-06	1.416214e-02
4.217879e-01	9.270294e-07	1.343573e-03
4.301502e-01	9.967209e-08	-1.225569e-02
4.393668e-01	-7.007570e-07	-3.482596e-02
4.415027e-01	-1.447313e-06	-5.866666e-02
4.349364e-01	-2.128994e-06	-9.941816e-02
4.178608e-01	-2.717455e-06	-1.477875e-01
3.386044e-01	-3.218707e-06	-2.385897e-01
1.262717e-01	-3.599985e-06	-2.482603e-01
6.138798e-02	-3.889490e-06	1.206937e-01
2.674149e-01	-4.002985e-06	1.884277e-01
3.644460e-01	-3.985584e-06	1.288960e-01
3.960314e-01	-3.841029e-06	9.052522e-02
4.129395e-01	-3.571424e-06	5.487120e-02
4.183232e-01	-3.189567e-06	3.315803e-02
4.151796e-01	-2.703447e-06	1.182909e-02
4.116453e-01	-2.131325e-06	-1.311265e-03
4.067378e-01	-1.487352e-06	-1.395963e-02
4.007530e-01	-7.899135e-07	-2.158494e-02
3.949057e-01	-5.555443e-08	-2.884834e-02
3.885094e-01	6.712055e-07	-3.311288e-02
3.828297e-01	1.416883e-06	-3.740229e-02
3.762957e-01	2.133982e-06	-3.995590e-02
3.702453e-01	2.800145e-06	-4.278800e-02
3.621255e-01	3.396245e-06	-4.429041e-02
3.536877e-01	3.901004e-06	-4.587679e-02
3.418772e-01	4.290785e-06	-4.601177e-02
3.267901e-01	4.542898e-06	-4.541722e-02
3.092560e-01	4.650666e-06	-4.353364e-02
3.087278e-01	4.291837e-06	4.345929e-02
3.181254e-01	4.259940e-06	4.421300e-02
3.281068e-01	4.208826e-06	4.415848e-02
3.382582e-01	4.144113e-06	4.387544e-02
3.474987e-01	4.068511e-06	4.250146e-02
3.576112e-01	3.976443e-06	4.132792e-02
3.662678e-01	3.855507e-06	3.889111e-02
3.756151e-01	3.679086e-06	3.669744e-02
3.843042e-01	3.418339e-06	3.275447e-02
3.937956e-01	3.057308e-06	2.876725e-02
4.030324e-01	2.600970e-06	2.170772e-02
4.126471e-01	2.076011e-06	1.416244e-02
4.217971e-01	1.522926e-06	1.343602e-03
4.301600e-01	9.839390e-07	-1.225597e-02
4.393771e-01	4.840315e-07	-3.482678e-02
4.415137e-01	3.918847e-08	-5.866812e-02
4.349482e-01	-3.527730e-07	-9.942084e-02
4.178734e-01	-6.841958e-07	-1.477920e-01
3.386170e-01	-9.632423e-07	-2.385987e-01
1.262797e-01	-1.173044e-06	-2.482759e-01
6.138397e-02	-1.328602e-06	1.206858e-01
2.674145e-01	-1.384871e-06	1.884274e-01
3.644487e-01	-1.366636e-06	1.288969e-01
3.960358e-01	-1.275442e-06	9.052622e-02
4.129450e-01	-1.107756e-06	5.487192e-02
4.183293e-01	-8.629242e-07	3.315851e-02
4.151861e-01	-5.371207e-07	1.182928e-02
4.116522e-01	-1.412921e-07	-1.311287e-03
4.067450e-01	3.018948e-07	-1.395988e-02
4.007605e-01	7.526164e-07	-2.158534e-02
3.949131e-01	1.171849e-06	-2.884889e-02
3.885170e-01	1.533278e-06	-3.311354e-02
3.828378e-01	1.831450e-06	-3.740309e-02
3.763040e-01	2.077187e-06	-3.995678e-02
3.702537e-01	2.288068e-06	-4.278897e-02
3.621340e-01	2.476470e-06	-4.429146e-02
3.536963e-01	2.645350e-06	-4.587791e-02
3.418856e-01	2.784760e-06	-4.601292e-02
3.267981e-01	2.877790e-06	-4.541833e-02
3.092630e-01	2.916795e-06	-4.353463e-02
3.087274e-01	-3.331114e-04	4.345924e-02
3.181246e-01	-3.337182e-04	4.421288e-02
3.281054e-01	-3.356172e-04	4.415829e-02
3.382563e-01	-3.322239e-04	4.387519e-02
3.474964e-01	-3.217854e-04	4.250118e-02
3.576089e-01	-3.337743e-04	4.132766e-02
3.662659e-01	-2.807817e-04	3.889092e-02
3.756144e-01	-3.038751e-04	3.669737e-02
3.843056e-01	-2.175252e-04	3.275460e-02
3.937990e-01	-2.501622e-04	2.876750e-02
4.030373e-01	-1.316035e-04	2.170798e-02
4.126532e-01	-1.715097e-04	1.416266e-02
4.218038e-01	-2.823549e-05	1.343624e-03
4.301666e-01	-7.464050e-05	-1.225616e-02
4.393835e-01	8.724259e-05	-3.482728e-02
4.415197e-01	1.895225e-04	-5.866892e-02
4.349542e-01	2.369764e-04	-9.942221e-02
4.178797e-01	2.191818e-04	-1.477942e-01
3.386233e-01	2.104602e-04	-2.386031e-01
1.262837e-01	2.069569e-04	-2.482838e-01
6.138179e-02	2.068891e-04	1.206815e-01
2.674140e-01	2.102762e-04	1.884271e-01
3.644497e-01	2.188835e-04	1.288973e-01
3.960379e-01	2.365722e-04	9.052670e-02
4.129480e-01	1.890193e-04	5.487233e-02
4.183333e-01	8.664967e-05	3.315883e-02
4.151910e-01	-7.531242e-05	1.182942e-02
4.116576e-01	-2.897415e-05	-1.311304e-03
4.067502e-01	-1.723016e-04	-1.396006e-02
4.007647e-01	-1.324343e-04	-2.158557e-02
3.949162e-01	-2.510170e-04	-2.884911e-02
3.885185e-01	-2.183890e-04	-3.311366e-02
3.828376e-01	-3.047306e-04	-3.740306e-02
3.763029e-01	-2.816166e-04	-3.995666e-02
3.702523e-01	-3.345821e-04	-4.278881e-02
3.621328e-01	-3.225651e-04	-4.429131e-02
3.536955e-01	-3.329800e-04	-4.587780e-02
3.418852e-01	-3.363554e-04	-4.601286e-02
3.267978e-01	-3.344477e-04	-4.541829e-02
3.092626e-01	-3.338406e-04	-4.353457e-02
3.088302e-01	-1.434290e-08	4.347370e-02
3.182757e-01	-1.455761e-08	4.423388e-02
3.280231e-01	-1.712551e-08	4.414722e-02
3.378896e-01	-2.178884e-08	4.382762e-02
3.475723e-01	-2.686419e-08	4.251047e-02
3.568204e-01	-3.009098e-08	4.123653e-02
3.658581e-01	-3.107186e-08	3.884761e-02
3.746500e-01	-2.836020e-08	3.660314e-02
3.835949e-01	-2.160668e-08	3.269402e-02
3.926273e-01	-1.310804e-08	2.868190e-02
4.019569e-01	-4.338841e-09	2.164978e-02
4.112640e-01	3.500830e-09	1.411498e-02
4.202936e-01	1.127561e-08	1.338813e-03
4.284954e-01	2.454413e-08	-1.220854e-02
4.346641e-01	3.402908e-08	-3.445320e-02
4.383804e-01	4.370662e-08	-5.825176e-02
4.340439e-01	5.338842e-08	-9.921414e-02
4.187263e-01	6.258881e-08	-1.480936e-01
3.391174e-01	7.128033e-08	-2.389512e-01
1.264127e-01	7.872979e-08	-2.485375e-01
6.150911e-02	8.547127e-08	1.209318e-01
2.679062e-01	8.933508e-08	1.887739e-01
3.652949e-01	9.113350e-08	1.291962e-01
3.951266e-01	9.071850e-08	9.031838e-02
4.098078e-01	8.813884e-08	5.445506e-02
4.136132e-01	8.360609e-08	3.278470e-02
4.135192e-01	7.743657e-08	1.178179e-02
4.101470e-01	6.920658e-08	-1.306492e-03
4.053607e-01	6.012618e-08	-1.391237e-02
3.996840e-01	5.101341e-08	-2.152737e-02
3.937444e-01	4.265943e-08	-2.876351e-02
3.878077e-01	3.150305e-08	-3.305308e-02
3.818731e-01	2.038457e-08	-3.730884e-02
3.758950e-01	1.193028e-08	-3.991335e-02
3.694639e-01	7.251265e-09	-4.269769e-02
3.622087e-01	7.019621e-09	-4.430059e-02
3.533288e-01	9.234202e-09	-4.583023e-02
3.418029e-01	1.197282e-08	-4.600178e-02
3.269490e-01	1.548546e-08	-4.543929e-02
3.093654e-01	1.860526e-08	-4.354905e-02
3.087275e-01	3.331079e-04	4.345924e-02
3.181247e-01	3.337113e-04	4.421290e-02
3.281056e-01	3.356047e-04	4.415832e-02
3.382565e-01	3.322045e-04	4.387522e-02
3.474966e-01	3.217593e-04	4.250120e-02
3.576090e-01	3.337439e-04	4.132766e-02
3.662659e-01	2.807521e-04	3.889091e-02
3.756143e-01	3.038541e-04	3.669736e-02
3.843054e-01	2.175191e-04	3.275458e-02
3.937987e-01	2.501470e-04	2.876748e-02
4.030371e-01	1.316013e-04	2.170797e-02
4.126530e-01	1.715239e-04	1.416265e-02
4.218035e-01	2.826667e-05	1.343623e-03
4.301663e-01	7.469119e-05	-1.225615e-02
4.393831e-01	-8.717008e-05	-3.482725e-02
4.415193e-01	-1.894265e-04	-5.866887e-02
4.349537e-01	-2.368647e-04	-9.942211e-02
4.178791e-01	-2.190473e-04	-1.477940e-01
3.386227e-01	-2.103045e-04	-2.386027e-01
1.262832e-01	-2.067832e-04	-2.482829e-01
6.138211e-02	-2.066995e-04	1.206821e-01
2.674142e-01	-2.100779e-04	1.884272e-01
3.644498e-01	-2.186818e-04	1.288973e-01
3.960379e-01	-2.363732e-04	9.052669e-02
4.129479e-01	-1.888187e-04	5.487231e-02
4.183331e-01	-8.646262e-05	3.315882e-02
4.151908e-01	7.548135e-05	1.182941e-02
4.116573e-01	2.912107e-05	-1.311303e-03
4.067499e-01	1.724236e-04	-1.396005e-02
4.007645e-01	1.325276e-04	-2.158556e-02
3.949159e-01	2.510840e-04	-2.884909e-02
3.885182e-01	2.184451e-04	-3.311363e-02
3.828373e-01	3.047531e-04	-3.740304e-02
3.763027e-01	2.816115e-04	-3.995664e-02
3.702522e-01	3.345586e-04	-4.278880e-02
3.621328e-01	3.225302e-04	-4.429131e-02
3.536956e-01	3.329400e-04	-4.587782e-02
3.418854e-01	3.363156e-04	-4.601289e-02
3.267982e-01	3.344098e-04	-4.541833e-02
3.092631e-01	3.338033e-04	-4.353464e-02
3.087284e-01	-4.264808e-06	4.345937e-02
3.181259e-01	-4.238569e-06	4.421307e-02
3.281072e-01	-4.194024e-06	4.415854e-02
3.382586e-01	-4.136603e-06	4.387548e-02
3.474989e-01	-4.066500e-06	4.250149e-02
3.576113e-01	-3.976587e-06	4.132793e-02
3.662676e-01	-3.852264e-06	3.889109e-02
3.756148e-01	-3.669776e-06	3.669740e-02
3.843041e-01	-3.402738e-06	3.275447e-02
3.937955e-01	-3.032803e-06	2.876724e-02
4.030320e-01	-2.563215e-06	2.170769e-02
4.126466e-01	-2.019070e-06	1.416243e-02
4.217966e-01	-1.441418e-06	1.343601e-03
4.301593e-01	-8.794599e-07	-1.225595e-02
4.393764e-01	-3.479040e-07	-3.482672e-02
4.415129e-01	1.307594e-07	-5.866801e-02
4.349472e-01	5.577074e-07	-9.942063e-02
4.178720e-01	9.231254e-07	-1.477915e-01
3.386155e-01	1.234856e-06	-2.385976e-01
1.262786e-01	1.473229e-06	-2.482737e-01
6.138471e-02	1.655518e-06	1.206872e-01
2.674149e-01	1.728172e-06	1.884277e-01
3.644487e-01	1.719115e-06	1.288969e-01
3.960358e-01	1.628937e-06	9.052622e-02
4.129447e-01	1.453885e-06	5.487188e-02
4.183287e-01	1.193276e-06	3.315847e-02
4.151855e-01	8.433017e-07	1.182926e-02
4.116516e-01	4.175613e-07	-1.311284e-03
4.067442e-01	-6.281901e-08	-1.395985e-02
4.007597e-01	-5.557767e-07	-2.158530e-02
3.949126e-01	-1.021143e-06	-2.884885e-02
3.885164e-01	-1.426703e-06	-3.311348e-02
3.828369e-01	-1.766469e-06	-3.740300e-02
3.763032e-01	-2.050810e-06	-3.995670e-02
3.702532e-01	-2.295801e-06	-4.278891e-02
3.621337e-01	-2.512169e-06	-4.429142e-02
3.536962e-01	-2.699157e-06	-4.587789e-02
3.418857e-01	-2.848248e-06	-4.601292e-02
3.267983e-01	-2.946779e-06	-4.541835e-02
3.092631e-01	-2.990338e-06	-4.353464e-02
3.087230e-01	-6.943244e-06	4.345862e-02
3.181208e-01	-6.864902e-06	4.421235e-02
3.281021e-01	-6.718156e-06	4.415785e-02
3.382533e-01	-6.500599e-06	4.387480e-02
3.474933e-01	-6.201643e-06	4.250080e-02
3.576052e-01	-5.811242e-06	4.132723e-02
3.662611e-01	-5.324453e-06	3.889040e-02
3.756078e-01	-4.743280e-06	3.669672e-02
3.842966e-01	-4.074583e-06	3.275383e-02
3.937874e-01	-3.329700e-06	2.876665e-02
4.030234e-01	-2.519227e-06	2.170723e-02
4.126375e-01	-1.669667e-06	1.416211e-02
4.217869e-01	-7.963566e-07	1.343570e-03
4.301490e-01	7.433641e-08	-1.225566e-02
4.393653e-01	9.234498e-07	-3.482584e-02
4.415009e-01	1.721238e-06	-5.866642e-02
4.349343e-01	2.463769e-06	-9.941767e-02
4.178582e-01	3.103053e-06	-1.477866e-01
3.386014e-01	3.653487e-06	-2.385877e-01