# vtk DataFile Version 2.0
OUTPUT by 3D-VPM
ASCII
DATASET UNSTRUCTURED_GRID
POINTS 820 double
1.000000e+00	0.000000e+00	2.549954e-03
9.931674e-01	0.000000e+00	1.588129e-03
9.755282e-01	0.000000e+00	-8.633560e-04
9.448927e-01	0.000000e+00	-4.986456e-03
9.045085e-01	0.000000e+00	-1.022469e-02
8.530688e-01	0.000000e+00	-1.651611e-02
7.938926e-01	0.000000e+00	-2.335491e-02
7.266841e-01	0.000000e+00	-3.049125e-02
6.545085e-01	0.000000e+00	-3.754278e-02
5.781101e-01	0.000000e+00	-4.405426e-02
5.000000e-01	0.000000e+00	-4.976030e-02
4.218900e-01	0.000000e+00	-5.396738e-02
3.454915e-01	0.000000e+00	-5.658945e-02
2.733159e-01	0.000000e+00	-5.681936e-02
2.061074e-01	0.000000e+00	-5.490448e-02
1.469312e-01	0.000000e+00	-5.021393e-02
9.549150e-02	0.000000e+00	-4.337866e-02
5.510729e-02	0.000000e+00	-3.414760e-02
2.447174e-02	0.000000e+00	-2.331253e-02
6.832625e-03	0.000000e+00	-1.088353e-02
0.000000e+00	0.000000e+00	2.549954e-03
6.832625e-03	0.000000e+00	1.598344e-02
2.447174e-02	0.000000e+00	2.841243e-02
5.510728e-02	0.000000e+00	3.924750e-02
9.549150e-02	0.000000e+00	4.847856e-02
1.469312e-01	0.000000e+00	5.531384e-02
2.061074e-01	0.000000e+00	6.000439e-02
2.733159e-01	0.000000e+00	6.191926e-02
3.454915e-01	0.000000e+00	6.168935e-02
4.218900e-01	0.000000e+00	5.906728e-02
5.000000e-01	0.000000e+00	5.486020e-02
5.781101e-01	0.000000e+00	4.915417e-02
6.545085e-01	0.000000e+00	4.264268e-02
7.266841e-01	0.000000e+00	3.559115e-02
7.938926e-01	0.000000e+00	2.845481e-02
8.530688e-01	0.000000e+00	2.161601e-02
9.045085e-01	0.000000e+00	1.532459e-02
9.448927e-01	0.000000e+00	1.008636e-02
9.755282e-01	0.000000e+00	5.963264e-03
9.931674e-01	0.000000e+00	3.511779e-03
1.000000e+00	0.000000e+00	2.549954e-03
1.000000e+00	1.052632e+00	2.549954e-03
9.931674e-01	1.052632e+00	1.588129e-03
9.755282e-01	1.052632e+00	-8.633560e-04
9.448927e-01	1.052632e+00	-4.986456e-03
9.045085e-01	1.052632e+00	-1.022469e-02
8.530689e-01	1.052632e+00	-1.651611e-02
7.938926e-01	1.052632e+00	-2.335491e-02
7.266841e-01	1.052632e+00	-3.049125e-02
6.545085e-01	1.052632e+00	-3.754278e-02
5.781101e-01	1.052632e+00	-4.405426e-02
5.000000e-01	1.052632e+00	-4.976030e-02
4.218900e-01	1.052632e+00	-5.396738e-02
3.454915e-01	1.052632e+00	-5.658945e-02
2.733158e-01	1.052632e+00	-5.681936e-02
2.061074e-01	1.052632e+00	-5.490448e-02
1.469311e-01	1.052632e+00	-5.021393e-02
9.549150e-02	1.052632e+00	-4.337866e-02
5.510729e-02	1.052632e+00	-3.414760e-02
2.447174e-02	1.052632e+00	-2.331253e-02
6.832625e-03	1.052632e+00	-1.088353e-02
0.000000e+00	1.052632e+00	2.549954e-03
6.832625e-03	1.052632e+00	1.598344e-02
2.447174e-02	1.052632e+00	2.841243e-02
5.510728e-02	1.052632e+00	3.924750e-02
9.549150e-02	1.052632e+00	4.847856e-02
1.469311e-01	1.052632e+00	5.531384e-02
2.061074e-01	1.052632e+00	6.000439e-02
2.733158e-01	1.052632e+00	6.191926e-02
3.454915e-01	1.052632e+00	6.168935e-02
4.218900e-01	1.052632e+00	5.906728e-02
5.000000e-01	1.052632e+00	5.486020e-02
5.781101e-01	1.052632e+00	4.915417e-02
6.545085e-01	1.052632e+00	4.264268e-02
7.266841e-01	1.052632e+00	3.559115e-02
7.938926e-01	1.052632e+00	2.845481e-02
8.530689e-01	1.052632e+00	2.161601e-02
9.045085e-01	1.052632e+00	1.532459e-02
9.448927e-01	1.052632e+00	1.008636e-02
9.755282e-01	1.052632e+00	5.963264e-03
9.931674e-01	1.052632e+00	3.511779e-03
1.000000e+00	1.052632e+00	2.549954e-03
1.000000e+00	2.105263e+00	2.549954e-03
9.931674e-01	2.105263e+00	1.588129e-03
9.755282e-01	2.105263e+00	-8.633560e-04
9.448927e-01	2.105263e+00	-4.986456e-03
9.045085e-01	2.105263e+00	-1.022469e-02
8.530689e-01	2.105263e+00	-1.651611e-02
7.938926e-01	2.105263e+00	-2.335491e-02
7.266841e-01	2.105263e+00	-3.049125e-02
6.545085e-01	2.105263e+00	-3.754278e-02
5.781101e-01	2.105263e+00	-4.405426e-02
5.000000e-01	2.105263e+00	-4.976030e-02
4.218900e-01	2.105263e+00	-5.396738e-02
3.454915e-01	2.105263e+00	-5.658945e-02
2.733158e-01	2.105263e+00	-5.681936e-02
2.061074e-01	2.105263e+00	-5.490448e-02
1.469312e-01	2.105263e+00	-5.021393e-02
9.549150e-02	2.105263e+00	-4.337866e-02
5.510729e-02	2.105263e+00	-3.414760e-02
2.447174e-02	2.105263e+00	-2.331253e-02
6.832625e-03	2.105263e+00	-1.088353e-02
0.000000e+00	2.105263e+00	2.549954e-03
6.832625e-03	2.105263e+00	1.598344e-02
2.447174e-02	2.105263e+00	2.841243e-02
5.510728e-02	2.105263e+00	3.924750e-02
9.549150e-02	2.105263e+00	4.847856e-02
1.469312e-01	2.105263e+00	5.531384e-02
2.061074e-01	2.105263e+00	6.000439e-02
2.733158e-01	2.105263e+00	6.191926e-02
3.454915e-01	2.105263e+00	6.168935e-02
4.218900e-01	2.105263e+00	5.906728e-02
5.000000e-01	2.105263e+00	5.486020e-02
5.781101e-01	2.105263e+00	4.915417e-02
6.545085e-01	2.105263e+00	4.264268e-02
7.266841e-01	2.105263e+00	3.559115e-02
7.938926e-01	2.105263e+00	2.845481e-02
8.530689e-01	2.105263e+00	2.161601e-02
9.045085e-01	2.105263e+00	1.532459e-02
9.448927e-01	2.105263e+00	1.008636e-02
9.755282e-01	2.105263e+00	5.963264e-03
9.931674e-01	2.105263e+00	3.511779e-03
1.000000e+00	2.105263e+00	2.549954e-03
1.000000e+00	3.157895e+00	2.549954e-03
9.931674e-01	3.157895e+00	1.588129e-03
9.755282e-01	3.157895e+00	-8.633560e-04
9.448927e-01	3.157895e+00	-4.986456e-03
9.045085e-01	3.157895e+00	-1.022469e-02
8.530689e-01	3.157895e+00	-1.651611e-02
7.938926e-01	3.157895e+00	-2.335491e-02
7.266842e-01	3.157895e+00	-3.049125e-02
6.545085e-01	3.157895e+00	-3.754278e-02
5.781101e-01	3.157895e+00	-4.405426e-02
5.000000e-01	3.157895e+00	-4.976030e-02
4.218900e-01	3.157895e+00	-5.396738e-02
3.454915e-01	3.157895e+00	-5.658945e-02
2.733158e-01	3.157895e+00	-5.681936e-02
2.061074e-01	3.157895e+00	-5.490448e-02
1.469312e-01	3.157895e+00	-5.021393e-02
9.549150e-02	3.157895e+00	-4.337866e-02
5.510729e-02	3.157895e+00	-3.414760e-02
2.447174e-02	3.157895e+00	-2.331253e-02
6.832625e-03	3.157895e+00	-1.088353e-02
0.000000e+00	3.157895e+00	2.549954e-03
6.832625e-03	3.157895e+00	1.598344e-02
2.447174e-02	3.157895e+00	2.841243e-02
5.510728e-02	3.157895e+00	3.924750e-02
9.549150e-02	3.157895e+00	4.847856e-02
1.469312e-01	3.157895e+00	5.531384e-02
2.061074e-01	3.157895e+00	6.000439e-02
2.733158e-01	3.157895e+00	6.191926e-02
3.454915e-01	3.157895e+00	6.168935e-02
4.218900e-01	3.157895e+00	5.906728e-02
5.000000e-01	3.157895e+00	5.486020e-02
5.781101e-01	3.157895e+00	4.915417e-02
6.545085e-01	3.157895e+00	4.264268e-02
7.266842e-01	3.157895e+00	3.559115e-02
7.938926e-01	3.157895e+00	2.845481e-02
8.530689e-01	3.157895e+00	2.161601e-02
9.045085e-01	3.157895e+00	1.532459e-02
9.448927e-01	3.157895e+00	1.008636e-02
9.755282e-01	3.157895e+00	5.963264e-03
9.931674e-01	3.157895e+00	3.511779e-03
1.000000e+00	3.157895e+00	2.549954e-03
1.000000e+00	4.210526e+00	2.549954e-03
9.931674e-01	4.210526e+00	1.588129e-03
9.755282e-01	4.210526e+00	-8.633560e-04
9.448927e-01	4.210526e+00	-4.986456e-03
9.045085e-01	4.210526e+00	-1.022469e-02
8.530689e-01	4.210526e+00	-1.651611e-02
7.938926e-01	4.210526e+00	-2.335491e-02
7.266841e-01	4.210526e+00	-3.049125e-02
6.545085e-01	4.210526e+00	-3.754278e-02
5.781101e-01	4.210526e+00	-4.405426e-02
5.000000e-01	4.210526e+00	-4.976030e-02
4.218900e-01	4.210526e+00	-5.396738e-02
3.454915e-01	4.210526e+00	-5.658945e-02
2.733158e-01	4.210526e+00	-5.681936e-02
2.061074e-01	4.210526e+00	-5.490448e-02
1.469311e-01	4.210526e+00	-5.021393e-02
9.549150e-02	4.210526e+00	-4.337866e-02
5.510729e-02	4.210526e+00	-3.414760e-02
2.447174e-02	4.210526e+00	-2.331253e-02
6.832625e-03	4.210526e+00	-1.088353e-02
0.000000e+00	4.210526e+00	2.549954e-03
6.832625e-03	4.210526e+00	1.598344e-02
2.447174e-02	4.210526e+00	2.841243e-02
5.510728e-02	4.210526e+00	3.924750e-02
9.549150e-02	4.210526e+00	4.847856e-02
1.469311e-01	4.210526e+00	5.531384e-02
2.061074e-01	4.210526e+00	6.000439e-02
2.733158e-01	4.210526e+00	6.191926e-02
3.454915e-01	4.210526e+00	6.168935e-02
4.218900e-01	4.210526e+00	5.906728e-02
5.000000e-01	4.210526e+00	5.486020e-02
5.781101e-01	4.210526e+00	4.915417e-02
6.545085e-01	4.210526e+00	4.264268e-02
7.266841e-01	4.210526e+00	3.559115e-02
7.938926e-01	4.210526e+00	2.845481e-02
8.530689e-01	4.210526e+00	2.161601e-02
9.045085e-01	4.210526e+00	1.532459e-02
9.448927e-01	4.210526e+00	1.008636e-02
9.755282e-01	4.210526e+00	5.963264e-03
9.931674e-01	4.210526e+00	3.511779e-03
1.000000e+00	4.210526e+00	2.549954e-03
1.000000e+00	5.263158e+00	2.549954e-03
9.931674e-01	5.263158e+00	1.588129e-03
9.755282e-01	5.263158e+00	-8.633560e-04
9.448927e-01	5.263158e+00	-4.986456e-03
9.045085e-01	5.263158e+00	-1.022469e-02
8.530689e-01	5.263158e+00	-1.651611e-02
7.938926e-01	5.263158e+00	-2.335491e-02
7.266842e-01	5.263158e+00	-3.049125e-02
6.545085e-01	5.263158e+00	-3.754278e-02
5.781101e-01	5.263158e+00	-4.405426e-02
5.000000e-01	5.263158e+00	-4.976030e-02
4.218900e-01	5.263158e+00	-5.396738e-02
3.454915e-01	5.263158e+00	-5.658945e-02
2.733158e-01	5.263158e+00	-5.681936e-02
2.061074e-01	5.263158e+00	-5.490448e-02
1.469311e-01	5.263158e+00	-5.021393e-02
9.549150e-02	5.263158e+00	-4.337866e-02
5.510729e-02	5.263158e+00	-3.414760e-02
2.447174e-02	5.263158e+00	-2.331253e-02
6.832625e-03	5.263158e+00	-1.088353e-02
0.000000e+00	5.263158e+00	2.549954e-03
6.832625e-03	5.263158e+00	1.598344e-02
2.447174e-02	5.263158e+00	2.841243e-02
5.510728e-02	5.263158e+00	3.924750e-02
9.549150e-02	5.263158e+00	4.847856e-02
1.469311e-01	5.263158e+00	5.531384e-02
2.061074e-01	5.263158e+00	6.000439e-02
2.733158e-01	5.263158e+00	6.191926e-02
3.454915e-01	5.263158e+00	6.168935e-02
4.218900e-01	5.263158e+00	5.906728e-02
5.000000e-01	5.263158e+00	5.486020e-02
5.781101e-01	5.263158e+00	4.915417e-02
6.545085e-01	5.263158e+00	4.264268e-02
7.266842e-01	5.263158e+00	3.559115e-02
7.938926e-01	5.263158e+00	2.845481e-02
8.530689e-01	5.263158e+00	2.161601e-02
9.045085e-01	5.263158e+00	1.532459e-02
9.448927e-01	5.263158e+00	1.008636e-02
9.755282e-01	5.263158e+00	5.963264e-03
9.931674e-01	5.263158e+00	3.511779e-03
1.000000e+00	5.263158e+00	2.549954e-03
1.000000e+00	6.315789e+00	2.549954e-03
9.931673e-01	6.315789e+00	1.588129e-03
9.755282e-01	6.315789e+00	-8.633560e-04
9.448927e-01	6.315789e+00	-4.986456e-03
9.045085e-01	6.315789e+00	-1.022469e-02
[...]
CELL_DATA 760
VECTORS V double
2.893268e-01	1.364184e-03	4.072824e-02
3.013327e-01	1.356318e-03	4.187915e-02
3.149025e-01	1.363225e-03	4.238137e-02
3.283428e-01	1.381192e-03	4.258931e-02
3.399505e-01	1.397064e-03	4.157827e-02
3.515636e-01	1.396723e-03	4.062902e-02
3.611263e-01	1.367201e-03	3.834518e-02
3.709951e-01	1.297424e-03	3.624606e-02
3.800146e-01	1.180521e-03	3.238887e-02
3.897550e-01	1.015341e-03	2.847208e-02
3.993008e-01	8.077496e-04	2.150673e-02
4.093372e-01	5.702988e-04	1.404885e-02
4.191397e-01	3.190235e-04	1.335137e-03
4.283763e-01	7.208331e-05	-1.220515e-02
4.388002e-01	-1.575739e-04	-3.478105e-02
4.424371e-01	-3.595289e-04	-5.879082e-02
4.378835e-01	-5.334163e-04	-1.000918e-01
4.234554e-01	-6.783295e-04	-1.497662e-01
3.475918e-01	-8.034431e-04	-2.449225e-01
1.354795e-01	-9.073328e-04	-2.663636e-01
5.122362e-02	-1.005761e-03	1.007097e-01
2.552637e-01	-1.071521e-03	1.798656e-01
3.545716e-01	-1.116163e-03	1.254036e-01
3.880447e-01	-1.132305e-03	8.869961e-02
4.062425e-01	-1.113798e-03	5.398131e-02
4.124822e-01	-1.054327e-03	3.269505e-02
4.100399e-01	-9.500899e-04	1.168265e-02
4.071017e-01	-8.040551e-04	-1.296791e-03
4.028418e-01	-6.237940e-04	-1.382592e-02
3.975571e-01	-4.229649e-04	-2.141281e-02
3.925361e-01	-2.162388e-04	-2.867525e-02
3.870722e-01	-1.780950e-05	-3.299039e-02
3.824770e-01	1.619023e-04	-3.736784e-02
3.771916e-01	3.172322e-04	-4.005102e-02
3.726644e-01	4.469641e-04	-4.306757e-02
3.665051e-01	5.531843e-04	-4.482607e-02
3.607914e-01	6.392326e-04	-4.679822e-02
3.527760e-01	7.077837e-04	-4.747861e-02
3.423992e-01	7.577183e-04	-4.758656e-02
3.294939e-01	7.802634e-04	-4.638252e-02
2.899905e-01	7.921376e-04	4.082166e-02
3.012333e-01	7.871933e-04	4.186534e-02
3.144512e-01	7.903363e-04	4.232063e-02
3.279227e-01	7.993190e-04	4.253482e-02
3.398080e-01	8.066108e-04	4.156083e-02
3.518411e-01	8.044133e-04	4.066109e-02
3.619176e-01	7.857592e-04	3.842920e-02
3.723566e-01	7.447976e-04	3.637908e-02
3.819655e-01	6.779851e-04	3.255514e-02
3.922689e-01	5.847993e-04	2.865573e-02
4.023061e-01	4.684010e-04	2.166859e-02
4.127249e-01	3.354635e-04	1.416512e-02
4.227794e-01	1.944760e-04	1.346731e-03
4.321461e-01	5.514930e-05	-1.231256e-02
4.426110e-01	-7.554372e-05	-3.508311e-02
4.462716e-01	-1.917428e-04	-5.930034e-02
4.417946e-01	-2.930149e-04	-1.009858e-01
4.276206e-01	-3.783677e-04	-1.512393e-01
3.519835e-01	-4.526517e-04	-2.480171e-01
1.387193e-01	-5.145283e-04	-2.727333e-01
4.869822e-02	-5.730319e-04	9.574457e-02
2.532671e-01	-6.119044e-04	1.784588e-01
3.537146e-01	-6.381951e-04	1.251005e-01
3.881223e-01	-6.479248e-04	8.871735e-02
4.070695e-01	-6.379896e-04	5.409120e-02
4.139471e-01	-6.051559e-04	3.281116e-02
4.120319e-01	-5.475085e-04	1.173941e-02
4.094928e-01	-4.666995e-04	-1.304408e-03
4.054878e-01	-3.667256e-04	-1.391673e-02
4.003105e-01	-2.548104e-04	-2.156111e-02
3.952671e-01	-1.387202e-04	-2.887475e-02
3.896814e-01	-2.607677e-05	-3.321278e-02
3.849068e-01	7.738184e-05	-3.760523e-02
3.794290e-01	1.683277e-04	-4.028860e-02
3.747376e-01	2.457074e-04	-4.330716e-02
3.684775e-01	3.102070e-04	-4.506731e-02
3.627539e-01	3.631840e-04	-4.705277e-02
3.548176e-01	4.056204e-04	-4.775337e-02
3.444884e-01	4.364183e-04	-4.787692e-02
3.313961e-01	4.503134e-04	-4.665028e-02
2.901612e-01	1.431928e-04	4.084568e-02
3.012894e-01	1.419552e-04	4.187313e-02
3.144596e-01	1.414838e-04	4.232176e-02
3.279409e-01	1.412560e-04	4.253718e-02
3.398648e-01	1.401054e-04	4.156779e-02
3.519466e-01	1.371462e-04	4.067329e-02
3.620750e-01	1.318021e-04	3.844592e-02
3.725665e-01	1.236959e-04	3.639959e-02
3.822274e-01	1.127114e-04	3.257747e-02
3.925818e-01	9.892560e-05	2.867858e-02
4.026682e-01	8.263004e-05	2.168810e-02
4.131347e-01	6.431764e-05	1.417918e-02
4.232350e-01	4.456842e-05	1.348182e-03
4.326470e-01	2.416582e-05	-1.232683e-02
4.431584e-01	3.726424e-06	-3.512650e-02
4.468722e-01	-1.592576e-05	-5.938015e-02
4.424596e-01	-3.446711e-05	-1.011378e-01
4.283771e-01	-5.118565e-05	-1.515069e-01
3.528127e-01	-6.639854e-05	-2.486013e-01
1.393356e-01	-7.926810e-05	-2.739450e-01
4.822954e-02	-9.125826e-05	9.482311e-02
2.529077e-01	-9.893010e-05	1.782056e-01
3.535543e-01	-1.039315e-04	1.250438e-01
3.881052e-01	-1.059098e-04	8.871343e-02
4.071505e-01	-1.048418e-04	5.410195e-02
4.141015e-01	-1.006561e-04	3.282341e-02
4.122440e-01	-9.335193e-05	1.174545e-02
4.097513e-01	-8.316026e-05	-1.305231e-03
4.057844e-01	-7.035574e-05	-1.392691e-02
4.006379e-01	-5.544224e-05	-2.157875e-02
3.956197e-01	-3.896028e-05	-2.890050e-02
3.900541e-01	-2.156723e-05	-3.324454e-02
3.852960e-01	-3.926453e-06	-3.764325e-02
3.798327e-01	1.333363e-05	-4.033147e-02
3.751562e-01	2.964130e-05	-4.335553e-02
3.689138e-01	4.453233e-05	-4.512068e-02
3.632130e-01	5.758338e-05	-4.711231e-02
3.553005e-01	6.829582e-05	-4.781837e-02
3.449760e-01	7.595677e-05	-4.794468e-02
3.318386e-01	7.946144e-05	-4.671258e-02
2.901993e-01	4.703770e-05	4.085106e-02
3.013082e-01	4.672358e-05	4.187574e-02
3.144730e-01	4.646678e-05	4.232357e-02
3.279601e-01	4.608227e-05	4.253967e-02
3.398949e-01	4.527860e-05	4.157146e-02
3.519888e-01	4.385562e-05	4.067816e-02
3.621299e-01	4.169864e-05	3.845174e-02
3.726341e-01	3.873440e-05	3.640620e-02
3.823078e-01	3.495539e-05	3.258432e-02
3.926746e-01	3.039784e-05	2.868536e-02
4.027735e-01	2.514904e-05	2.169377e-02
4.132525e-01	1.934304e-05	1.418322e-02
4.233655e-01	1.312903e-05	1.348598e-03
4.327910e-01	6.716905e-06	-1.233093e-02
4.433169e-01	2.684303e-07	-3.513906e-02
4.470478e-01	-5.974520e-06	-5.940348e-02
4.426558e-01	-1.190892e-05	-1.011827e-01
4.286016e-01	-1.728873e-05	-1.515863e-01
3.530587e-01	-2.218633e-05	-2.487746e-01
1.395167e-01	-2.630026e-05	-2.743009e-01
4.809564e-02	-3.005764e-05	9.455986e-02
2.528107e-01	-3.236516e-05	1.781372e-01
3.535166e-01	-3.374419e-05	1.250305e-01
3.881088e-01	-3.410926e-05	8.871426e-02
4.071816e-01	-3.347183e-05	5.410609e-02
4.141527e-01	-3.184501e-05	3.282746e-02
4.123104e-01	-2.925277e-05	1.174735e-02
4.098299e-01	-2.578893e-05	-1.305482e-03
4.058729e-01	-2.154574e-05	-1.392995e-02
4.007348e-01	-1.667852e-05	-2.158396e-02
3.957237e-01	-1.134153e-05	-2.890810e-02
3.901644e-01	-5.719591e-06	-3.325394e-02
3.854120e-01	2.342624e-10	-3.765459e-02
3.799544e-01	5.637956e-06	-4.034438e-02
3.752839e-01	1.102019e-05	-4.337029e-02
3.690487e-01	1.598747e-05	-4.513717e-02
3.633561e-01	2.037350e-05	-4.713088e-02
3.554518e-01	2.398376e-05	-4.783872e-02
3.451311e-01	2.657424e-05	-4.796623e-02
3.319875e-01	2.783143e-05	-4.673353e-02
2.902142e-01	2.099907e-05	4.085314e-02
3.013177e-01	2.086444e-05	4.187707e-02
3.144819e-01	2.070401e-05	4.232476e-02
3.279720e-01	2.043903e-05	4.254121e-02
3.399112e-01	1.995637e-05	4.157346e-02
3.520100e-01	1.917832e-05	4.068061e-02
3.621557e-01	1.807396e-05	3.845448e-02
3.726644e-01	1.663087e-05	3.640916e-02
3.823426e-01	1.485681e-05	3.258728e-02
3.927140e-01	1.277081e-05	2.868824e-02
4.028175e-01	1.041001e-05	2.169614e-02
4.133013e-01	7.830306e-06	1.418490e-02
4.234193e-01	5.092318e-06	1.348770e-03
4.328501e-01	2.281764e-06	-1.233262e-02
4.433818e-01	-5.358203e-07	-3.514421e-02
4.471196e-01	-3.257985e-06	-5.941302e-02
4.427359e-01	-5.839889e-06	-1.012010e-01
4.286929e-01	-8.171612e-06	-1.516186e-01
3.531579e-01	-1.027928e-05	-2.488446e-01
1.395885e-01	-1.202747e-05	-2.744422e-01
4.804433e-02	-1.358594e-05	9.445897e-02
2.527761e-01	-1.449800e-05	1.781129e-01
3.535061e-01	-1.498193e-05	1.250268e-01
3.881146e-01	-1.500994e-05	8.871559e-02
4.071981e-01	-1.458919e-05	5.410829e-02
4.141768e-01	-1.373578e-05	3.282937e-02
4.123403e-01	-1.246645e-05	1.174820e-02
4.098642e-01	-1.082988e-05	-1.305591e-03
4.059109e-01	-8.870334e-06	-1.393125e-02
4.007758e-01	-6.657610e-06	-2.158617e-02
3.957674e-01	-4.258298e-06	-2.891129e-02
3.902104e-01	-1.749797e-06	-3.325786e-02
3.854604e-01	7.940588e-07	-3.765931e-02
3.800052e-01	3.301995e-06	-4.034978e-02
3.753373e-01	5.698667e-06	-4.337647e-02
3.691050e-01	7.906115e-06	-4.514406e-02
3.634156e-01	9.844384e-06	-4.713859e-02
3.555145e-01	1.143591e-05	-4.784717e-02
3.451958e-01	1.257744e-05	-4.797523e-02
3.320508e-01	1.314200e-05	-4.674244e-02
2.902221e-01	1.125886e-05	4.085426e-02
3.013237e-01	1.118188e-05	4.187790e-02
3.144879e-01	1.107031e-05	4.232557e-02
3.279796e-01	1.088471e-05	4.254219e-02
3.399210e-01	1.057266e-05	4.157466e-02
3.520221e-01	1.009846e-05	4.068200e-02
3.621700e-01	9.448388e-06	3.845600e-02
3.726808e-01	8.619978e-06	3.641076e-02
3.823611e-01	7.623935e-06	3.258886e-02
3.927345e-01	6.474549e-06	2.868974e-02
4.028402e-01	5.192153e-06	2.169736e-02
4.133262e-01	3.805285e-06	1.418575e-02
4.234466e-01	2.344489e-06	1.348857e-03
4.328799e-01	8.537394e-07	-1.233347e-02
4.434145e-01	-6.335238e-07	-3.514680e-02
4.471555e-01	-2.063904e-06	-5.941780e-02
4.427759e-01	-3.413681e-06	-1.012101e-01
4.287381e-01	-4.624544e-06	-1.516345e-01
3.532066e-01	-5.708485e-06	-2.488789e-01
1.396232e-01	-6.594265e-06	-2.745102e-01
4.802051e-02	-7.362880e-06	9.441214e-02
2.527614e-01	-7.788294e-06	1.781025e-01
3.535032e-01	-7.979500e-06	1.250258e-01
3.881196e-01	-7.926571e-06	8.871673e-02
4.072082e-01	-7.633594e-06	5.410962e-02
4.141905e-01	-7.113337e-06	3.283045e-02
4.123566e-01	-6.376923e-06	1.174866e-02
4.098826e-01	-5.453262e-06	-1.305649e-03
4.059309e-01	-4.367398e-06	-1.393194e-02
4.007971e-01	-3.157375e-06	-2.158732e-02
3.957899e-01	-1.857286e-06	-2.891294e-02
3.902340e-01	-5.052784e-07	-3.325988e-02
3.854851e-01	8.619455e-07	-3.766173e-02
3.800311e-01	2.205073e-06	-4.035253e-02
3.753644e-01	3.480371e-06	-4.337961e-02
3.691334e-01	4.649046e-06	-4.514754e-02
3.634455e-01	5.672302e-06	-4.714248e-02
3.555461e-01	6.509223e-06	-4.785141e-02
3.452283e-01	7.107141e-06	-4.797975e-02
3.320828e-01	7.404387e-06	-4.674694e-02
2.902271e-01	6.767755e-06	4.085497e-02
3.013280e-01	6.716939e-06	4.187850e-02
3.144923e-01	6.634196e-06	4.232616e-02
3.279848e-01	6.498073e-06	4.254288e-02
3.399275e-01	6.281590e-06	4.157546e-02
3.520298e-01	5.967144e-06	4.068290e-02
3.621789e-01	5.548895e-06	3.845695e-02
3.726909e-01	5.026514e-06	3.641174e-02
3.823722e-01	4.407668e-06	3.258981e-02
3.927468e-01	3.703058e-06	2.869064e-02
4.028536e-01	2.926399e-06	2.169808e-02
4.133408e-01	2.094718e-06	1.418625e-02
4.234624e-01	1.225340e-06	1.348907e-03
4.328971e-01	3.434378e-07	-1.233396e-02
4.434332e-01	-5.318375e-07	-3.514828e-02
4.471761e-01	-1.369242e-06	-5.942053e-02
4.427985e-01	-2.154595e-06	-1.012153e-01
4.287634e-01	-2.853349e-06	-1.516435e-01
3.532336e-01	-3.471457e-06	-2.488979e-01
1.396419e-01	-3.967421e-06	-2.745472e-01
4.800819e-02	-4.383478e-06	9.438792e-02
2.527547e-01	-4.597035e-06	1.780978e-01
3.535031e-01	-4.668303e-06	1.250257e-01
3.881237e-01	-4.594663e-06	8.871767e-02
4.072150e-01	-4.378787e-06	5.411053e-02
4.141992e-01	-4.030826e-06	3.283114e-02
4.123667e-01	-3.558582e-06	1.174895e-02
4.098937e-01	-2.980747e-06	-1.305685e-03
4.059428e-01	-2.312484e-06	-1.393235e-02
4.008098e-01	-1.575932e-06	-2.158800e-02
3.958031e-01	-7.899949e-07	-2.891391e-02
3.902479e-01	2.334073e-08	-3.326106e-02
3.854996e-01	8.408932e-07	-3.766315e-02
3.800461e-01	1.638343e-06	-4.035413e-02
3.753801e-01	2.391709e-06	-4.338141e-02
3.691498e-01	3.079912e-06	-4.514954e-02
3.634627e-01	3.680179e-06	-4.714471e-02
3.555640e-01	4.168795e-06	-4.785383e-02
3.452467e-01	4.516260e-06	-4.798231e-02
3.321009e-01	4.689247e-06	-4.674950e-02
2.902306e-01	4.175138e-06	4.085546e-02
3.013311e-01	4.158734e-06	4.187893e-02
3.144956e-01	4.146979e-06	4.232660e-02
3.279886e-01	4.135200e-06	4.254337e-02
3.399320e-01	4.112114e-06	4.157600e-02
3.520350e-01	4.065597e-06	4.068350e-02
3.621848e-01	3.979561e-06	3.845757e-02
3.726974e-01	3.829994e-06	3.641238e-02
3.823793e-01	3.591104e-06	3.259042e-02
3.927545e-01	3.245289e-06	2.869120e-02
4.028619e-01	2.794550e-06	2.169853e-02
4.133498e-01	2.264008e-06	1.418656e-02
4.234721e-01	1.692453e-06	1.348938e-03
4.329077e-01	1.122412e-06	-1.233426e-02
4.434446e-01	5.796009e-07	-3.514919e-02
4.471885e-01	8.216209e-08	-5.942219e-02
4.428121e-01	-3.703099e-07	-1.012184e-01
4.287786e-01	-7.664417e-07	-1.516489e-01
3.532494e-01	-1.114153e-06	-2.489091e-01
1.396527e-01	-1.391174e-06	-2.745683e-01
4.800157e-02	-1.620347e-06	9.437491e-02
2.527518e-01	-1.734082e-06	1.780957e-01
3.535040e-01	-1.765872e-06	1.250260e-01
3.881270e-01	-1.713661e-06	8.871843e-02
4.072199e-01	-1.574320e-06	5.411117e-02
4.142050e-01	-1.345960e-06	3.283161e-02
4.123733e-01	-1.024859e-06	1.174914e-02
4.099008e-01	-6.224226e-07	-1.305708e-03
4.059504e-01	-1.622582e-07	-1.393261e-02
4.008177e-01	3.148892e-07	-2.158843e-02
3.958114e-01	7.691901e-07	-2.891451e-02
3.902565e-01	1.172266e-06	-3.326179e-02
3.855085e-01	1.516748e-06	-3.766402e-02
3.800554e-01	1.813340e-06	-4.035511e-02
3.753897e-01	2.079162e-06	-4.338252e-02
3.691598e-01	2.325865e-06	-4.515076e-02
3.634732e-01	2.553174e-06	-4.714606e-02
3.555749e-01	2.750108e-06	-4.785530e-02
3.452579e-01	2.896129e-06	-4.798386e-02
3.321119e-01	2.968222e-06	-4.675105e-02
2.902299e-01	-3.331596e-04	4.085536e-02
3.013294e-01	-3.337571e-04	4.187869e-02
3.144931e-01	-3.356356e-04	4.232627e-02
3.279857e-01	-3.322145e-04	4.254299e-02
3.399290e-01	-3.217462e-04	4.157563e-02
3.520321e-01	-3.337092e-04	4.068317e-02
3.621826e-01	-2.806988e-04	3.845734e-02
3.726966e-01	-3.037827e-04	3.641230e-02
3.823803e-01	-2.174302e-04	3.259050e-02
3.927575e-01	-2.500404e-04	2.869142e-02
4.028668e-01	-1.314830e-04	2.169880e-02
4.133561e-01	-1.713944e-04	1.418678e-02
4.234791e-01	-2.813038e-05	1.348960e-03
4.329147e-01	-7.455180e-05	-1.233446e-02
4.434515e-01	8.730937e-05	-3.514973e-02
4.471954e-01	1.895625e-04	-5.942310e-02
4.428193e-01	2.369860e-04	-1.012200e-01
4.287864e-01	2.191587e-04	-1.516516e-01
3.532576e-01	2.104028e-04	-2.489148e-01
1.396583e-01	2.068660e-04	-2.745794e-01
4.799790e-02	2.067621e-04	9.436770e-02
2.527499e-01	2.101215e-04	1.780944e-01
3.535041e-01	2.187053e-04	1.250261e-01
3.881286e-01	2.363765e-04	8.871879e-02
4.072226e-01	1.888117e-04	5.411154e-02
4.142089e-01	8.643621e-05	3.283192e-02
4.123782e-01	-7.552568e-05	1.174928e-02
4.099063e-01	-2.918140e-05	-1.305725e-03
4.059558e-01	-1.724976e-04	-1.393279e-02
4.008223e-01	-1.326129e-04	-2.158868e-02
3.958147e-01	-2.511727e-04	-2.891475e-02
3.902582e-01	-2.185413e-04	-3.326194e-02
3.855089e-01	-3.048526e-04	-3.766405e-02
3.800550e-01	-2.817088e-04	-4.035506e-02
3.753891e-01	-3.346462e-04	-4.338245e-02
3.691595e-01	-3.226014e-04	-4.515072e-02
3.634734e-01	-3.329881e-04	-4.714610e-02
3.555758e-01	-3.363369e-04	-4.785542e-02
3.452592e-01	-3.344078e-04	-4.798404e-02
3.321131e-01	-3.337889e-04	-4.675121e-02
2.903314e-01	-1.969730e-08	4.086965e-02
3.014797e-01	-1.051614e-08	4.189957e-02
3.144102e-01	-3.795981e-09	4.231511e-02
3.276186e-01	-3.122885e-10	4.249537e-02
3.400045e-01	1.267617e-09	4.158487e-02
3.512434e-01	1.749817e-09	4.059202e-02
3.617746e-01	1.652773e-09	3.841402e-02
3.717321e-01	1.111872e-09	3.631806e-02
3.816696e-01	2.300000e-10	3.252993e-02
3.915859e-01	-8.312714e-10	2.860583e-02
4.017865e-01	-1.865004e-09	2.164061e-02
4.119670e-01	-2.663150e-09	1.413910e-02
4.219690e-01	-3.059114e-09	1.344150e-03
4.312437e-01	-3.085961e-09	-1.228685e-02
4.387324e-01	-2.896669e-09	-3.477568e-02
4.440563e-01	-2.616774e-09	-5.900598e-02
4.419094e-01	-2.346049e-09	-1.010120e-01
4.296336e-01	-2.145214e-09	-1.519513e-01
3.537524e-01	-2.031645e-09	-2.492634e-01
1.397879e-01	-2.015980e-09	-2.748342e-01
4.812472e-02	-2.117780e-09	9.461704e-02
2.532416e-01	-2.312254e-09	1.784408e-01
3.543491e-01	-2.617498e-09	1.253249e-01
3.872171e-01	-3.023575e-09	8.851043e-02
4.040824e-01	-3.528708e-09	5.369426e-02
4.094889e-01	-4.064472e-09	3.245779e-02
4.107065e-01	-4.501109e-09	1.170165e-02
4.083958e-01	-4.673803e-09	-1.300913e-03
4.045665e-01	-4.381769e-09	-1.388511e-02
3.997418e-01	-3.720592e-09	-2.153048e-02
3.946430e-01	-3.056206e-09	-2.882916e-02
3.895477e-01	-2.673280e-09	-3.320138e-02
3.845447e-01	-2.645130e-09	-3.756985e-02
3.796473e-01	-2.862417e-09	-4.031178e-02
3.746008e-01	-3.098824e-09	-4.329136e-02
3.692356e-01	-3.163801e-09	-4.516003e-02
3.631070e-01	-3.377813e-09	-4.709856e-02
3.554938e-01	-3.619930e-09	-4.784438e-02
3.454106e-01	-2.237855e-09	-4.800509e-02
3.322164e-01	2.361614e-09	-4.676575e-02
2.902284e-01	3.331759e-04	4.085514e-02
3.013286e-01	3.337677e-04	4.187858e-02
3.144928e-01	3.356431e-04	4.232623e-02
3.279856e-01	3.322216e-04	4.254298e-02
3.399289e-01	3.217536e-04	4.157563e-02
3.520321e-01	3.337164e-04	4.068317e-02
3.621827e-01	2.807052e-04	3.845734e-02
3.726966e-01	3.037874e-04	3.641230e-02
3.823803e-01	2.174324e-04	3.259050e-02
3.927576e-01	2.500397e-04	2.869142e-02
4.028669e-01	1.314795e-04	2.169880e-02
4.133561e-01	1.713885e-04	1.418678e-02
4.234791e-01	2.812301e-05	1.348960e-03
4.329147e-01	7.454360e-05	-1.233446e-02
4.434515e-01	-8.731792e-05	-3.514973e-02
4.471954e-01	-1.895711e-04	-5.942310e-02
4.428192e-01	-2.369945e-04	-1.012200e-01
4.287864e-01	-2.191672e-04	-1.516516e-01
3.532576e-01	-2.104112e-04	-2.489148e-01
1.396583e-01	-2.068745e-04	-2.745794e-01
4.799789e-02	-2.067706e-04	9.436768e-02
2.527499e-01	-2.101302e-04	1.780943e-01
3.535041e-01	-2.187143e-04	1.250261e-01
3.881286e-01	-2.363857e-04	8.871878e-02
4.072226e-01	-1.888213e-04	5.411154e-02
4.142089e-01	-8.644600e-05	3.283192e-02
4.123782e-01	7.551585e-05	1.174928e-02
4.099063e-01	2.917194e-05	-1.305725e-03
4.059558e-01	1.724892e-04	-1.393279e-02
4.008224e-01	1.326062e-04	-2.158868e-02
3.958147e-01	2.511681e-04	-2.891475e-02
3.902582e-01	2.185384e-04	-3.326194e-02
3.855089e-01	3.048509e-04	-3.766405e-02
3.800549e-01	2.817078e-04	-4.035506e-02
3.753891e-01	3.346460e-04	-4.338245e-02
3.691595e-01	3.226021e-04	-4.515072e-02
3.634734e-01	3.329898e-04	-4.714609e-02
3.555759e-01	3.363394e-04	-4.785542e-02
3.452594e-01	3.344112e-04	-4.798407e-02
3.321139e-01	3.337911e-04	-4.675132e-02
2.902316e-01	-4.129813e-06	4.085560e-02
3.013315e-01	-4.131893e-06	4.187899e-02
3.144957e-01	-4.132478e-06	4.232662e-02
3.279886e-01	-4.125581e-06	4.254337e-02
3.399320e-01	-4.104338e-06	4.157600e-02
3.520350e-01	-4.058980e-06	4.068350e-02
3.621848e-01	-3.974493e-06	3.845757e-02
3.726975e-01	-3.827221e-06	3.641238e-02
3.823794e-01	-3.591121e-06	3.259042e-02
3.927546e-01	-3.247960e-06	2.869121e-02
4.028620e-01	-2.799100e-06	2.169854e-02
4.133499e-01	-2.269504e-06	1.418657e-02
4.234722e-01	-1.698287e-06	1.348938e-03
4.329077e-01	-1.128308e-06	-1.233426e-02
4.434446e-01	-5.854687e-07	-3.514919e-02
4.471885e-01	-8.801744e-08	-5.942219e-02
4.428121e-01	3.644176e-07	-1.012184e-01
4.287786e-01	7.604582e-07	-1.516489e-01
3.532494e-01	1.108023e-06	-2.489091e-01
1.396527e-01	1.384859e-06	-2.745683e-01
4.800156e-02	1.613796e-06	9.437489e-02
2.527518e-01	1.727339e-06	1.780957e-01
3.535040e-01	1.758972e-06	1.250260e-01
3.881270e-01	1.706665e-06	8.871842e-02
4.072199e-01	1.567282e-06	5.411117e-02
4.142050e-01	1.338890e-06	3.283161e-02
4.123733e-01	1.017702e-06	1.174914e-02
4.099008e-01	6.151200e-07	-1.305708e-03
4.059504e-01	1.548989e-07	-1.393261e-02
4.008178e-01	-3.216425e-07	-2.158843e-02
3.958115e-01	-7.741464e-07	-2.891451e-02
3.902565e-01	-1.174585e-06	-3.326180e-02
3.855086e-01	-1.516567e-06	-3.766402e-02
3.800554e-01	-1.811243e-06	-4.035511e-02
3.753897e-01	-2.075456e-06	-4.338253e-02
3.691598e-01	-2.320354e-06	-4.515077e-02
3.634732e-01	-2.545412e-06	-4.714607e-02
3.555750e-01	-2.740309e-06	-4.785531e-02
3.452579e-01	-2.886318e-06	-4.798387e-02
3.321118e-01	-2.964645e-06	-4.675102e-02
2.902287e-01	-6.737779e-06	4.085519e-02
3.013287e-01	-6.698932e-06	4.187859e-02
3.144925e-01	-6.624386e-06	4.232619e-02
3.279849e-01	-6.491911e-06	4.254288e-02
3.399275e-01	-6.277401e-06	4.157546e-02
3.520298e-01	-5.964805e-06	4.068290e-02
3.621790e-01	-5.549106e-06	3.845696e-02
3.726910e-01	-5.029731e-06	3.641175e-02
3.823723e-01	-4.413276e-06	3.258982e-02
3.927469e-01	-3.709303e-06	2.869064e-02
4.028536e-01	-2.931489e-06	2.169809e-02
4.133408e-01	-2.097738e-06	1.418626e-02
4.234624e-01	-1.226267e-06	1.348907e-03
4.328971e-01	-3.427210e-07	-1.233396e-02
4.434332e-01	5.336231e-07	-3.514828e-02
4.471760e-01	1.371555e-06	-5.942053e-02
4.427985e-01	2.156994e-06	-1.012153e-01
4.287634e-01	2.855496e-06	-1.516435e-01
3.532336e-01	3.473098e-06	-2.488979e-01