# vtk DataFile Version 2.0
OUTPUT by 3D-VPM
ASCII
DATASET UNSTRUCTURED_GRID
POINTS 820 double
9.510565e-01	0.000000e+00	-3.090170e-01
9.442611e-01	0.000000e+00	-3.078203e-01
9.267277e-01	0.000000e+00	-3.047010e-01
8.963175e-01	0.000000e+00	-2.991555e-01
8.562911e-01	0.000000e+00	-2.916579e-01
8.054250e-01	0.000000e+00	-2.817457e-01
7.470317e-01	0.000000e+00	-2.699633e-01
6.809074e-01	0.000000e+00	-2.559818e-01
6.100852e-01	0.000000e+00	-2.403847e-01
5.354138e-01	0.000000e+00	-2.229691e-01
4.593635e-01	0.000000e+00	-2.042585e-01
3.837764e-01	0.000000e+00	-1.841224e-01
3.103069e-01	0.000000e+00	-1.630077e-01
2.415927e-01	0.000000e+00	-1.409228e-01
1.782654e-01	0.000000e+00	-1.183331e-01
1.234349e-01	0.000000e+00	-9.558566e-02
7.662509e-02	0.000000e+00	-7.318920e-02
4.106998e-02	0.000000e+00	-5.193053e-02
1.528206e-02	0.000000e+00	-3.215886e-02
2.347037e-03	0.000000e+00	-1.488740e-02
0.000000e+00	0.000000e+00	0.000000e+00
1.064939e-02	0.000000e+00	1.066461e-02
3.126595e-02	0.000000e+00	1.703450e-02
6.375031e-02	0.000000e+00	1.787236e-02
1.050105e-01	0.000000e+00	1.417221e-02
1.560448e-01	0.000000e+00	4.777214e-03
2.137742e-01	0.000000e+00	-9.048270e-03
2.782849e-01	0.000000e+00	-2.799567e-02
3.468570e-01	0.000000e+00	-5.051783e-02
4.187060e-01	0.000000e+00	-7.662000e-02
4.916930e-01	0.000000e+00	-1.047585e-01
5.642168e-01	0.000000e+00	-1.343226e-01
6.348639e-01	0.000000e+00	-1.641238e-01
7.013280e-01	0.000000e+00	-1.931337e-01
7.630418e-01	0.000000e+00	-2.206893e-01
8.172084e-01	0.000000e+00	-2.454799e-01
8.641863e-01	0.000000e+00	-2.673591e-01
9.009752e-01	0.000000e+00	-2.848204e-01
9.288372e-01	0.000000e+00	-2.982085e-01
9.448555e-01	0.000000e+00	-3.059908e-01
9.510565e-01	0.000000e+00	-3.090170e-01
9.510565e-01	1.052632e+00	-3.090170e-01
9.442611e-01	1.052632e+00	-3.078203e-01
9.267277e-01	1.052632e+00	-3.047010e-01
8.963175e-01	1.052632e+00	-2.991555e-01
8.562911e-01	1.052632e+00	-2.916579e-01
8.054250e-01	1.052632e+00	-2.817457e-01
7.470317e-01	1.052632e+00	-2.699633e-01
6.809074e-01	1.052632e+00	-2.559818e-01
6.100852e-01	1.052632e+00	-2.403847e-01
5.354138e-01	1.052632e+00	-2.229691e-01
4.593635e-01	1.052632e+00	-2.042585e-01
3.837764e-01	1.052632e+00	-1.841224e-01
3.103069e-01	1.052632e+00	-1.630077e-01
2.415927e-01	1.052632e+00	-1.409228e-01
1.782654e-01	1.052632e+00	-1.183331e-01
1.234349e-01	1.052632e+00	-9.558566e-02
7.662509e-02	1.052632e+00	-7.318920e-02
4.106998e-02	1.052632e+00	-5.193053e-02
1.528206e-02	1.052632e+00	-3.215886e-02
2.347037e-03	1.052632e+00	-1.488740e-02
0.000000e+00	1.052632e+00	0.000000e+00
1.064939e-02	1.052632e+00	1.066461e-02
3.126595e-02	1.052632e+00	1.703450e-02
6.375031e-02	1.052632e+00	1.787236e-02
1.050105e-01	1.052632e+00	1.417221e-02
1.560448e-01	1.052632e+00	4.777214e-03
2.137742e-01	1.052632e+00	-9.048270e-03
2.782849e-01	1.052632e+00	-2.799567e-02
3.468570e-01	1.052632e+00	-5.051783e-02
4.187060e-01	1.052632e+00	-7.662000e-02
4.916930e-01	1.052632e+00	-1.047585e-01
5.642168e-01	1.052632e+00	-1.343226e-01
6.348639e-01	1.052632e+00	-1.641238e-01
7.013280e-01	1.052632e+00	-1.931337e-01
7.630418e-01	1.052632e+00	-2.206893e-01
8.172084e-01	1.052632e+00	-2.454799e-01
8.641863e-01	1.052632e+00	-2.673591e-01
9.009752e-01	1.052632e+00	-2.848204e-01
9.288372e-01	1.052632e+00	-2.982085e-01
9.448555e-01	1.052632e+00	-3.059908e-01
9.510565e-01	1.052632e+00	-3.090170e-01
9.510565e-01	2.105263e+00	-3.090170e-01
9.442611e-01	2.105263e+00	-3.078203e-01
9.267277e-01	2.105263e+00	-3.047010e-01
8.963175e-01	2.105263e+00	-2.991555e-01
8.562911e-01	2.105263e+00	-2.916579e-01
8.054250e-01	2.105263e+00	-2.817457e-01
7.470317e-01	2.105263e+00	-2.699633e-01
6.809074e-01	2.105263e+00	-2.559818e-01
6.100852e-01	2.105263e+00	-2.403847e-01
5.354138e-01	2.105263e+00	-2.229691e-01
4.593635e-01	2.105263e+00	-2.042585e-01
3.837764e-01	2.105263e+00	-1.841224e-01
3.103069e-01	2.105263e+00	-1.630077e-01
2.415927e-01	2.105263e+00	-1.409228e-01
1.782654e-01	2.105263e+00	-1.183331e-01
1.234349e-01	2.105263e+00	-9.558566e-02
7.662509e-02	2.105263e+00	-7.318920e-02
4.106998e-02	2.105263e+00	-5.193053e-02
1.528206e-02	2.105263e+00	-3.215886e-02
2.347037e-03	2.105263e+00	-1.488740e-02
0.000000e+00	2.105263e+00	0.000000e+00
1.064939e-02	2.105263e+00	1.066461e-02
3.126595e-02	2.105263e+00	1.703450e-02
6.375031e-02	2.105263e+00	1.787236e-02
1.050105e-01	2.105263e+00	1.417221e-02
1.560448e-01	2.105263e+00	4.777214e-03
2.137742e-01	2.105263e+00	-9.048270e-03
2.782849e-01	2.105263e+00	-2.799567e-02
3.468570e-01	2.105263e+00	-5.051783e-02
4.187060e-01	2.105263e+00	-7.662000e-02
4.916930e-01	2.105263e+00	-1.047585e-01
5.642168e-01	2.105263e+00	-1.343226e-01
6.348639e-01	2.105263e+00	-1.641238e-01
7.013280e-01	2.105263e+00	-1.931337e-01
7.630418e-01	2.105263e+00	-2.206893e-01
8.172084e-01	2.105263e+00	-2.454799e-01
8.641863e-01	2.105263e+00	-2.673591e-01
9.009752e-01	2.105263e+00	-2.848204e-01
9.288372e-01	2.105263e+00	-2.982085e-01
9.448555e-01	2.105263e+00	-3.059908e-01
9.510565e-01	2.105263e+00	-3.090170e-01
9.510565e-01	3.157895e+00	-3.090170e-01
9.442611e-01	3.157895e+00	-3.078203e-01
9.267277e-01	3.157895e+00	-3.047010e-01
8.963175e-01	3.157895e+00	-2.991555e-01
8.562911e-01	3.157895e+00	-2.916579e-01
8.054250e-01	3.157895e+00	-2.817457e-01
7.470317e-01	3.157895e+00	-2.699633e-01
6.809074e-01	3.157895e+00	-2.559818e-01
6.100852e-01	3.157895e+00	-2.403847e-01
5.354138e-01	3.157895e+00	-2.229691e-01
4.593635e-01	3.157895e+00	-2.042585e-01
3.837764e-01	3.157895e+00	-1.841224e-01
3.103069e-01	3.157895e+00	-1.630077e-01
2.415927e-01	3.157895e+00	-1.409228e-01
1.782654e-01	3.157895e+00	-1.183331e-01
1.234349e-01	3.157895e+00	-9.558566e-02
7.662509e-02	3.157895e+00	-7.318920e-02
4.106998e-02	3.157895e+00	-5.193053e-02
1.528206e-02	3.157895e+00	-3.215886e-02
2.347037e-03	3.157895e+00	-1.488740e-02
0.000000e+00	3.157895e+00	0.000000e+00
1.064939e-02	3.157895e+00	1.066461e-02
3.126595e-02	3.157895e+00	1.703450e-02
6.375031e-02	3.157895e+00	1.787236e-02
1.050105e-01	3.157895e+00	1.417221e-02
1.560448e-01	3.157895e+00	4.777214e-03
2.137742e-01	3.157895e+00	-9.048270e-03
2.782849e-01	3.157895e+00	-2.799567e-02
3.468570e-01	3.157895e+00	-5.051783e-02
4.187060e-01	3.157895e+00	-7.662000e-02
4.916930e-01	3.157895e+00	-1.047585e-01
5.642168e-01	3.157895e+00	-1.343226e-01
6.348639e-01	3.157895e+00	-1.641238e-01
7.013280e-01	3.157895e+00	-1.931337e-01
7.630418e-01	3.157895e+00	-2.206893e-01
8.172084e-01	3.157895e+00	-2.454799e-01
8.641863e-01	3.157895e+00	-2.673591e-01
9.009752e-01	3.157895e+00	-2.848204e-01
9.288372e-01	3.157895e+00	-2.982085e-01
9.448555e-01	3.157895e+00	-3.059908e-01
9.510565e-01	3.157895e+00	-3.090170e-01
9.510565e-01	4.210526e+00	-3.090170e-01
9.442611e-01	4.210526e+00	-3.078203e-01
9.267277e-01	4.210526e+00	-3.047010e-01
8.963175e-01	4.210526e+00	-2.991555e-01
8.562911e-01	4.210526e+00	-2.916579e-01
8.054250e-01	4.210526e+00	-2.817457e-01
7.470317e-01	4.210526e+00	-2.699633e-01
6.809074e-01	4.210526e+00	-2.559818e-01
6.100852e-01	4.210526e+00	-2.403847e-01
5.354138e-01	4.210526e+00	-2.229691e-01
4.593635e-01	4.210526e+00	-2.042585e-01
3.837764e-01	4.210526e+00	-1.841224e-01
3.103069e-01	4.210526e+00	-1.630077e-01
2.415927e-01	4.210526e+00	-1.409228e-01
1.782654e-01	4.210526e+00	-1.183331e-01
1.234349e-01	4.210526e+00	-9.558566e-02
7.662509e-02	4.210526e+00	-7.318920e-02
4.106998e-02	4.210526e+00	-5.193053e-02
1.528206e-02	4.210526e+00	-3.215886e-02
2.347037e-03	4.210526e+00	-1.488740e-02
0.000000e+00	4.210526e+00	0.000000e+00
1.064939e-02	4.210526e+00	1.066461e-02
3.126595e-02	4.210526e+00	1.703450e-02
6.375031e-02	4.210526e+00	1.787236e-02
1.050105e-01	4.210526e+00	1.417221e-02
1.560448e-01	4.210526e+00	4.777214e-03
2.137742e-01	4.210526e+00	-9.048270e-03
2.782849e-01	4.210526e+00	-2.799567e-02
3.468570e-01	4.210526e+00	-5.051783e-02
4.187060e-01	4.210526e+00	-7.662000e-02
4.916930e-01	4.210526e+00	-1.047585e-01
5.642168e-01	4.210526e+00	-1.343226e-01
6.348639e-01	4.210526e+00	-1.641238e-01
7.013280e-01	4.210526e+00	-1.931337e-01
7.630418e-01	4.210526e+00	-2.206893e-01
8.172084e-01	4.210526e+00	-2.454799e-01
8.641863e-01	4.210526e+00	-2.673591e-01
9.009752e-01	4.210526e+00	-2.848204e-01
9.288372e-01	4.210526e+00	-2.982085e-01
9.448555e-01	4.210526e+00	-3.059908e-01
9.510565e-01	4.210526e+00	-3.090170e-01
9.510565e-01	5.263158e+00	-3.090170e-01
9.442611e-01	5.263158e+00	-3.078203e-01
9.267277e-01	5.263158e+00	-3.047010e-01
8.963175e-01	5.263158e+00	-2.991555e-01
8.562911e-01	5.263158e+00	-2.916579e-01
8.054250e-01	5.263158e+00	-2.817457e-01
7.470317e-01	5.263158e+00	-2.699633e-01
6.809074e-01	5.263158e+00	-2.559818e-01
6.100852e-01	5.263158e+00	-2.403847e-01
5.354138e-01	5.263158e+00	-2.229691e-01
4.593635e-01	5.263158e+00	-2.042585e-01
3.837764e-01	5.263158e+00	-1.841224e-01
3.103069e-01	5.263158e+00	-1.630077e-01
2.415927e-01	5.263158e+00	-1.409228e-01
1.782654e-01	5.263158e+00	-1.183331e-01
1.234349e-01	5.263158e+00	-9.558566e-02
7.662509e-02	5.263158e+00	-7.318920e-02
4.106998e-02	5.263158e+00	-5.193053e-02
1.528206e-02	5.263158e+00	-3.215886e-02
2.347037e-03	5.263158e+00	-1.488740e-02
0.000000e+00	5.263158e+00	0.000000e+00
1.064939e-02	5.263158e+00	1.066461e-02
3.126595e-02	5.263158e+00	1.703450e-02
6.375031e-02	5.263158e+00	1.787236e-02
1.050105e-01	5.263158e+00	1.417221e-02
1.560448e-01	5.263158e+00	4.777214e-03
2.137742e-01	5.263158e+00	-9.048270e-03
2.782849e-01	5.263158e+00	-2.799567e-02
3.468570e-01	5.263158e+00	-5.051783e-02
4.187060e-01	5.263158e+00	-7.662000e-02
4.916930e-01	5.263158e+00	-1.047585e-01
5.642168e-01	5.263158e+00	-1.343226e-01
6.348639e-01	5.263158e+00	-1.641238e-01
7.013280e-01	5.263158e+00	-1.931337e-01
7.630418e-01	5.263158e+00	-2.206893e-01
8.172084e-01	5.263158e+00	-2.454799e-01
8.641863e-01	5.263158e+00	-2.673591e-01
9.009752e-01	5.263158e+00	-2.848204e-01
9.288372e-01	5.263158e+00	-2.982085e-01
9.448555e-01	5.263158e+00	-3.059908e-01
9.510565e-01	5.263158e+00	-3.090170e-01
9.510565e-01	6.315789e+00	-3.090170e-01
9.442611e-01	6.315789e+00	-3.078203e-01
[...]
CELL_DATA 760
VECTORS V double
8.414237e-01	-6.903495e-02	-1.481716e-01
8.655444e-01	-6.886136e-02	-1.539857e-01
8.835594e-01	-6.841159e-02	-1.611254e-01
8.953252e-01	-6.761717e-02	-1.677081e-01
8.977900e-01	-6.645621e-02	-1.749513e-01
8.991023e-01	-6.491108e-02	-1.814176e-01
8.920644e-01	-6.297145e-02	-1.886204e-01
8.847538e-01	-6.061327e-02	-1.948485e-01
8.704195e-01	-5.780802e-02	-2.030081e-01
8.547793e-01	-5.452322e-02	-2.103003e-01
8.294743e-01	-5.073327e-02	-2.209692e-01
7.985523e-01	-4.642400e-02	-2.294990e-01
7.512029e-01	-4.162839e-02	-2.414378e-01
6.891782e-01	-3.639762e-02	-2.458393e-01
6.025271e-01	-3.076961e-02	-2.499694e-01
4.718498e-01	-2.486720e-02	-2.257597e-01
2.701383e-01	-1.869832e-02	-1.615177e-01
-1.743777e-02	-1.242913e-02	1.336959e-02
-4.218293e-01	-5.861088e-03	5.632466e-01
-3.427052e-01	7.198325e-04	2.173800e+00
2.327105e+00	8.433388e-03	2.330431e+00
2.541765e+00	1.519852e-02	7.853278e-01
2.210603e+00	2.214518e-02	5.701747e-02
1.925565e+00	2.899293e-02	-1.726815e-01
1.720214e+00	3.598277e-02	-3.166777e-01
1.570428e+00	4.294974e-02	-3.760980e-01
1.435572e+00	4.988812e-02	-4.216407e-01
1.336753e+00	5.661941e-02	-4.390498e-01
1.250653e+00	6.302542e-02	-4.543521e-01
1.181710e+00	6.890836e-02	-4.555817e-01
1.121879e+00	7.415272e-02	-4.573302e-01
1.071620e+00	7.862131e-02	-4.520439e-01
1.027480e+00	8.225195e-02	-4.484692e-01
9.872047e-01	8.503696e-02	-4.407935e-01
9.499829e-01	8.702769e-02	-4.347804e-01
9.115303e-01	8.832206e-02	-4.245314e-01
8.743627e-01	8.904836e-02	-4.150015e-01
8.341879e-01	8.935567e-02	-4.008425e-01
7.910591e-01	8.939963e-02	-3.843270e-01
7.483078e-01	8.935395e-02	-3.651814e-01
8.268575e-01	-4.834510e-02	-1.456066e-01
8.473454e-01	-4.822079e-02	-1.507480e-01
8.618080e-01	-4.790225e-02	-1.571589e-01
8.704943e-01	-4.733841e-02	-1.630569e-01
8.702459e-01	-4.650664e-02	-1.695838e-01
8.688619e-01	-4.538811e-02	-1.753158e-01
8.588632e-01	-4.397215e-02	-1.816003e-01
8.479938e-01	-4.224377e-02	-1.867529e-01
8.293241e-01	-4.018812e-02	-1.934235e-01
8.083363e-01	-3.779007e-02	-1.988740e-01
7.765485e-01	-3.501984e-02	-2.068699e-01
7.378888e-01	-3.192785e-02	-2.120647e-01
6.815844e-01	-2.849153e-02	-2.190623e-01
6.085323e-01	-2.476593e-02	-2.170718e-01
5.087318e-01	-2.077700e-02	-2.110567e-01
3.607299e-01	-1.660781e-02	-1.725936e-01
1.373206e-01	-1.226013e-02	-8.210499e-02
-1.815653e-01	-7.847376e-03	1.392066e-01
-6.032683e-01	-3.229729e-03	8.055126e-01
-4.198751e-01	1.389973e-03	2.663293e+00
2.682633e+00	6.790350e-03	2.686467e+00
2.844209e+00	1.150656e-02	8.787737e-01
2.433343e+00	1.632088e-02	6.276253e-02
2.097403e+00	2.103034e-02	-1.880916e-01
1.860539e+00	2.579362e-02	-3.425103e-01
1.689690e+00	3.049113e-02	-4.046598e-01
1.539098e+00	3.511706e-02	-4.520474e-01
1.427838e+00	3.955325e-02	-4.689662e-01
1.330742e+00	4.372786e-02	-4.834480e-01
1.251924e+00	4.753328e-02	-4.826514e-01
1.182686e+00	5.085914e-02	-4.821182e-01
1.123352e+00	5.367668e-02	-4.738661e-01
1.070405e+00	5.593617e-02	-4.672049e-01
1.021752e+00	5.764204e-02	-4.562189e-01
9.765984e-01	5.883552e-02	-4.469616e-01
9.307667e-01	5.958746e-02	-4.334904e-01
8.867537e-01	5.998623e-02	-4.208827e-01
8.402954e-01	6.013266e-02	-4.037772e-01
7.917021e-01	6.012903e-02	-3.846394e-01
7.448105e-01	6.008572e-02	-3.634746e-01
8.205610e-01	-2.041258e-02	-1.444978e-01
8.397192e-01	-2.036074e-02	-1.493912e-01
8.527018e-01	-2.023034e-02	-1.554983e-01
8.598601e-01	-1.999427e-02	-1.610650e-01
8.580691e-01	-1.963560e-02	-1.672109e-01
8.551023e-01	-1.913765e-02	-1.725395e-01
8.434787e-01	-1.849069e-02	-1.783473e-01
8.308748e-01	-1.768938e-02	-1.829828e-01
8.103150e-01	-1.670661e-02	-1.889899e-01
7.869236e-01	-1.558623e-02	-1.936059e-01
7.528547e-01	-1.431401e-02	-2.005580e-01
7.115582e-01	-1.290474e-02	-2.044974e-01
6.517352e-01	-1.134845e-02	-2.094688e-01
5.745762e-01	-9.681310e-03	-2.049592e-01
4.697863e-01	-7.913405e-03	-1.948995e-01
3.150335e-01	-6.077228e-03	-1.507299e-01
8.303103e-02	-4.169489e-03	-4.964487e-02
-2.483719e-01	-2.238108e-03	1.904274e-01
-6.767962e-01	-2.222298e-04	9.036906e-01
-4.509191e-01	1.786222e-03	2.860207e+00
2.823749e+00	4.115533e-03	2.827784e+00
2.961946e+00	6.123688e-03	9.151509e-01
2.517976e+00	8.137345e-03	6.494545e-02
2.160708e+00	1.006135e-02	-1.937688e-01
1.910366e+00	1.195198e-02	-3.516831e-01
1.730298e+00	1.375563e-02	-4.143851e-01
1.572796e+00	1.546775e-02	-4.619448e-01
1.456134e+00	1.704770e-02	-4.782600e-01
1.354660e+00	1.847797e-02	-4.921371e-01
1.271703e+00	1.974413e-02	-4.902766e-01
1.198801e+00	2.080947e-02	-4.886873e-01
1.136485e+00	2.166988e-02	-4.794059e-01
1.080555e+00	2.230701e-02	-4.716350e-01
1.029173e+00	2.277868e-02	-4.595324e-01
9.815368e-01	2.308081e-02	-4.492218e-01
9.334903e-01	2.324549e-02	-4.347589e-01
8.875256e-01	2.330798e-02	-4.212490e-01
8.394025e-01	2.330575e-02	-4.033482e-01
7.894769e-01	2.327528e-02	-3.835584e-01
7.416758e-01	2.324848e-02	-3.619448e-01
8.181566e-01	-1.022150e-02	-1.440744e-01
8.367409e-01	-1.020045e-02	-1.488614e-01
8.489682e-01	-1.014415e-02	-1.548174e-01
8.553541e-01	-1.003831e-02	-1.602210e-01
8.527748e-01	-9.873081e-03	-1.661792e-01
8.489690e-01	-9.625144e-03	-1.713019e-01
8.364771e-01	-9.312403e-03	-1.768669e-01
8.225791e-01	-8.914871e-03	-1.811558e-01
8.009474e-01	-8.441476e-03	-1.868051e-01
7.769246e-01	-7.877514e-03	-1.911458e-01
7.415005e-01	-7.238036e-03	-1.975332e-01
6.983682e-01	-6.500409e-03	-2.007067e-01
6.368074e-01	-5.694804e-03	-2.046709e-01
5.574917e-01	-4.818527e-03	-1.988649e-01
4.500779e-01	-3.883635e-03	-1.867231e-01
2.917841e-01	-2.907544e-03	-1.396061e-01
5.531165e-02	-1.893542e-03	-3.307125e-02
-2.825292e-01	-8.598074e-04	2.166160e-01
-7.143938e-01	2.204449e-04	9.538927e-01
-4.667545e-01	1.280699e-03	2.960652e+00
2.895325e+00	2.539466e-03	2.899463e+00
3.021199e+00	3.603258e-03	9.334583e-01
2.560187e+00	4.662466e-03	6.603419e-02
2.191935e+00	5.665589e-03	-1.965692e-01
1.934681e+00	6.645289e-03	-3.561593e-01
1.749904e+00	7.565486e-03	-4.190804e-01
1.588903e+00	8.430012e-03	-4.666753e-01
1.469546e+00	9.227167e-03	-4.826651e-01
1.365876e+00	9.936018e-03	-4.962117e-01
1.281344e+00	1.055523e-02	-4.939933e-01
1.206802e+00	1.109385e-02	-4.919488e-01
1.142499e+00	1.152531e-02	-4.819429e-01
1.085250e+00	1.186352e-02	-4.736845e-01
1.032975e+00	1.210178e-02	-4.612303e-01
9.842031e-01	1.226194e-02	-4.504421e-01
9.351577e-01	1.234298e-02	-4.355355e-01
8.883155e-01	1.238697e-02	-4.216240e-01
8.394638e-01	1.239719e-02	-4.033777e-01
7.889776e-01	1.239037e-02	-3.833158e-01
7.407063e-01	1.238170e-02	-3.614717e-01
8.170288e-01	-5.655766e-03	-1.438758e-01
8.351863e-01	-5.644639e-03	-1.485848e-01
8.470033e-01	-5.613131e-03	-1.544591e-01
8.529487e-01	-5.553726e-03	-1.597704e-01
8.496136e-01	-5.457493e-03	-1.655632e-01
8.453698e-01	-5.317138e-03	-1.705757e-01
8.324932e-01	-5.145695e-03	-1.760245e-01
8.184738e-01	-4.925874e-03	-1.802517e-01
7.963126e-01	-4.660803e-03	-1.857242e-01
7.711241e-01	-4.324836e-03	-1.897187e-01
7.348576e-01	-3.933681e-03	-1.957636e-01
6.909899e-01	-3.497146e-03	-1.985863e-01
6.283778e-01	-3.025339e-03	-2.019616e-01
5.476684e-01	-2.604680e-03	-1.953608e-01
4.386917e-01	-2.061030e-03	-1.819993e-01
2.783849e-01	-1.453077e-03	-1.331951e-01
3.930624e-02	-8.432772e-04	-2.350149e-02
-3.024387e-01	-2.232833e-04	2.318807e-01
-7.359935e-01	4.249437e-04	9.827337e-01
-4.759296e-01	1.070030e-03	3.018850e+00
2.937437e+00	1.813752e-03	2.941635e+00
3.055306e+00	2.448928e-03	9.439965e-01
2.584363e+00	3.077737e-03	6.665774e-02
2.209828e+00	3.668886e-03	-1.981738e-01
1.948470e+00	4.238862e-03	-3.586977e-01
1.760855e+00	4.762479e-03	-4.217030e-01
1.597935e+00	5.248508e-03	-4.693281e-01
1.476994e+00	5.792590e-03	-4.851115e-01
1.371962e+00	6.197116e-03	-4.984227e-01
1.286314e+00	6.535698e-03	-4.959096e-01
1.210949e+00	6.816763e-03	-4.936395e-01
1.146321e+00	7.046338e-03	-4.835549e-01
1.088278e+00	7.243920e-03	-4.750062e-01
1.034945e+00	7.386404e-03	-4.621098e-01
9.854748e-01	7.484580e-03	-4.510241e-01
9.358742e-01	7.533079e-03	-4.358692e-01
8.888596e-01	7.556426e-03	-4.218822e-01
8.396044e-01	7.562851e-03	-4.034452e-01
7.887831e-01	7.559017e-03	-3.832213e-01
7.403485e-01	7.554753e-03	-3.612971e-01
8.162892e-01	-3.268723e-03	-1.437455e-01
8.342265e-01	-3.275683e-03	-1.484140e-01
8.457723e-01	-3.256396e-03	-1.542346e-01
8.513771e-01	-3.219873e-03	-1.594760e-01
8.479390e-01	-3.158116e-03	-1.652369e-01
8.435623e-01	-3.105412e-03	-1.702110e-01
8.304243e-01	-2.988150e-03	-1.755871e-01
8.156735e-01	-2.844087e-03	-1.796350e-01
7.928298e-01	-2.659649e-03	-1.849119e-01
7.673778e-01	-2.427032e-03	-1.887970e-01
7.306825e-01	-2.187301e-03	-1.946514e-01
6.862605e-01	-1.961143e-03	-1.972270e-01
6.243738e-01	-1.646568e-03	-2.006747e-01
5.432314e-01	-1.427862e-03	-1.937780e-01
4.313810e-01	-1.062783e-03	-1.789663e-01
2.693238e-01	-6.844881e-04	-1.288598e-01
2.904808e-02	-2.881293e-04	-1.736806e-02
-3.149636e-01	1.074381e-04	2.414835e-01
-7.501109e-01	5.198508e-04	1.001584e+00
-4.817716e-01	9.444077e-04	3.055907e+00
2.962885e+00	1.399836e-03	2.967119e+00
3.076751e+00	1.802750e-03	9.506221e-01
2.599435e+00	2.199721e-03	6.704649e-02
2.220678e+00	2.570597e-03	-1.991467e-01
1.956592e+00	2.921303e-03	-3.601930e-01
1.767183e+00	3.248452e-03	-4.232187e-01
1.604560e+00	3.662549e-03	-4.712739e-01
1.482648e+00	3.912692e-03	-4.869685e-01
1.375553e+00	4.163403e-03	-4.997273e-01
1.289162e+00	4.382468e-03	-4.970075e-01
1.213196e+00	4.547726e-03	-4.945554e-01
1.147953e+00	4.653568e-03	-4.842435e-01
1.089805e+00	4.748223e-03	-4.756726e-01
1.036460e+00	4.823223e-03	-4.627862e-01
9.865995e-01	4.869275e-03	-4.515388e-01
9.365342e-01	4.930787e-03	-4.361765e-01
8.890434e-01	4.939872e-03	-4.219695e-01
8.396021e-01	4.941699e-03	-4.034441e-01
7.886069e-01	4.938346e-03	-3.831357e-01
7.400534e-01	4.949228e-03	-3.611531e-01
8.181969e-01	-2.032316e-03	-1.440815e-01
8.341198e-01	-2.028287e-03	-1.483951e-01
8.450407e-01	-2.018107e-03	-1.541012e-01
8.504311e-01	-1.999520e-03	-1.592988e-01
8.473306e-01	-1.969417e-03	-1.651183e-01
8.423683e-01	-2.013392e-03	-1.699700e-01
8.284546e-01	-1.891209e-03	-1.751706e-01
8.137911e-01	-1.786440e-03	-1.792204e-01
7.906801e-01	-1.687484e-03	-1.844105e-01
7.649242e-01	-1.546451e-03	-1.881934e-01
7.287653e-01	-1.390717e-03	-1.941407e-01
6.838003e-01	-1.221141e-03	-1.965200e-01
6.209192e-01	-1.023059e-03	-1.995644e-01
5.390870e-01	-7.449125e-04	-1.922997e-01
4.265929e-01	-5.090612e-04	-1.769799e-01
2.641246e-01	-3.010825e-04	-1.263722e-01
2.237552e-02	-5.697723e-05	-1.337849e-02
-3.231073e-01	1.659443e-04	2.477273e-01
-7.590278e-01	4.275799e-04	1.013490e+00
-4.855056e-01	6.868385e-04	3.079592e+00
2.979623e+00	9.842002e-04	2.983881e+00
3.090444e+00	1.235488e-03	9.548529e-01
2.609053e+00	1.507815e-03	6.729457e-02
2.227670e+00	1.737277e-03	-1.997738e-01
1.962061e+00	1.957738e-03	-3.611997e-01
1.773668e+00	2.171495e-03	-4.247715e-01
1.607883e+00	2.397979e-03	-4.722501e-01
1.483945e+00	2.470417e-03	-4.873945e-01
1.378082e+00	2.614294e-03	-5.006461e-01
1.291162e+00	2.749977e-03	-4.977786e-01
1.214346e+00	2.862241e-03	-4.950241e-01
1.148880e+00	2.952197e-03	-4.846344e-01
1.090547e+00	3.050342e-03	-4.759966e-01
1.036702e+00	3.115491e-03	-4.628945e-01
9.871773e-01	3.235992e-03	-4.518033e-01
9.372743e-01	3.227432e-03	-4.365212e-01
8.891295e-01	3.221455e-03	-4.220103e-01
8.395880e-01	3.218493e-03	-4.034373e-01
7.889170e-01	3.215240e-03	-3.832863e-01
7.420151e-01	3.212953e-03	-3.621104e-01
8.156129e-01	-1.149136e-03	-1.436264e-01
8.333992e-01	-1.132274e-03	-1.482669e-01
8.447637e-01	-1.123880e-03	-1.540507e-01
8.501330e-01	-1.132990e-03	-1.592430e-01
8.483553e-01	-1.112928e-03	-1.653180e-01
8.420259e-01	-1.061584e-03	-1.699009e-01
8.269473e-01	-1.020378e-03	-1.748519e-01
8.127832e-01	-9.917945e-04	-1.789985e-01
7.895850e-01	-9.987298e-04	-1.841551e-01
7.634819e-01	-9.184405e-04	-1.878385e-01
7.264304e-01	-8.152186e-04	-1.935186e-01
6.813636e-01	-6.599951e-04	-1.958197e-01
6.177867e-01	-5.798154e-04	-1.985577e-01
5.355527e-01	-3.450741e-04	-1.910389e-01
4.241199e-01	-2.547263e-04	-1.759539e-01
2.610432e-01	-1.263133e-04	-1.248979e-01
1.901195e-02	1.124183e-05	-1.136739e-02
-3.272410e-01	1.535818e-04	2.508966e-01
-7.645025e-01	3.033374e-04	1.020800e+00
-4.877931e-01	4.525651e-04	3.094101e+00
2.989741e+00	6.243200e-04	2.994013e+00
3.099976e+00	7.702398e-04	9.577982e-01
2.615436e+00	9.136860e-04	6.745920e-02
2.231813e+00	1.047629e-03	-2.001453e-01
1.965313e+00	1.175472e-03	-3.617984e-01
1.774750e+00	1.295449e-03	-4.250308e-01
1.608978e+00	1.322284e-03	-4.725716e-01
1.485682e+00	1.432919e-03	-4.879649e-01
1.379198e+00	1.539773e-03	-5.010514e-01
1.292291e+00	1.600035e-03	-4.982137e-01
1.215728e+00	1.668065e-03	-4.955877e-01
1.150349e+00	1.813490e-03	-4.852543e-01
1.091995e+00	1.834062e-03	-4.766284e-01
1.039086e+00	1.875789e-03	-4.639588e-01
9.885245e-01	1.887593e-03	-4.524199e-01
9.362599e-01	1.872752e-03	-4.360488e-01
8.888309e-01	1.875731e-03	-4.218686e-01
8.394147e-01	1.897441e-03	-4.033541e-01
7.883340e-01	1.894264e-03	-3.830031e-01
7.397031e-01	1.878677e-03	-3.609821e-01
8.153669e-01	-1.384939e-03	-1.435831e-01
8.329730e-01	-1.385011e-03	-1.481910e-01
8.451751e-01	-1.385700e-03	-1.541257e-01
8.500673e-01	-1.367835e-03	-1.592306e-01
8.458377e-01	-1.326144e-03	-1.648274e-01
8.407855e-01	-1.248356e-03	-1.696507e-01
8.273908e-01	-1.151258e-03	-1.749457e-01
8.134995e-01	-1.213685e-03	-1.791562e-01
7.896692e-01	-9.933124e-04	-1.841747e-01
7.625142e-01	-1.041435e-03	-1.876005e-01
7.253904e-01	-6.833900e-04	-1.932416e-01
6.806400e-01	-7.698001e-04	-1.956118e-01
6.166085e-01	-3.328244e-04	-1.981790e-01
5.341459e-01	-3.949635e-04	-1.905371e-01
4.230684e-01	6.590614e-05	-1.755177e-01
2.592333e-01	4.071266e-04	-1.240319e-01
1.640418e-02	6.042450e-04	-9.808180e-03
-3.305738e-01	6.537584e-04	2.534519e-01
-7.672836e-01	7.019127e-04	1.024514e+00
-4.889769e-01	7.632985e-04	3.101610e+00
2.995180e+00	8.450252e-04	2.999461e+00
3.103152e+00	9.247494e-04	9.587794e-01
2.617972e+00	9.920341e-04	6.752462e-02
2.234147e+00	1.104989e-03	-2.003546e-01
1.967031e+00	1.041021e-03	-3.621146e-01
1.776083e+00	8.596518e-04	-4.253500e-01
1.610028e+00	4.807646e-04	-4.728801e-01
1.486962e+00	6.435860e-04	-4.883853e-01
1.380250e+00	3.280031e-04	-5.014337e-01
1.292782e+00	4.591629e-04	-4.984032e-01
1.217013e+00	1.656593e-04	-4.961113e-01
1.151026e+00	3.174007e-04	-4.855399e-01
1.091369e+00	5.909361e-05	-4.763551e-01
1.037491e+00	1.153968e-04	-4.632468e-01
9.871569e-01	-1.020584e-04	-4.517939e-01
9.370236e-01	-4.422903e-05	-4.364045e-01
8.896380e-01	-5.875235e-05	-4.222517e-01
8.402961e-01	-6.483726e-05	-4.037776e-01
7.882318e-01	-5.981362e-05	-3.829535e-01
7.396280e-01	-5.874166e-05	-3.609455e-01
8.156250e-01	-2.128591e-04	-1.436286e-01
8.334483e-01	-2.409667e-04	-1.482756e-01
8.440759e-01	-1.864807e-04	-1.539253e-01
8.485804e-01	-1.336075e-04	-1.589521e-01
8.458875e-01	-1.108814e-04	-1.648371e-01
8.389912e-01	-9.051511e-05	-1.692886e-01
8.265330e-01	-7.338019e-05	-1.747643e-01
8.104143e-01	-5.647213e-05	-1.784768e-01
7.873327e-01	-9.886017e-08	-1.836298e-01
7.593880e-01	3.478821e-08	-1.868313e-01
7.228439e-01	1.955386e-06	-1.925632e-01
6.768269e-01	-2.231644e-05	-1.945159e-01
6.123523e-01	-4.137217e-05	-1.968110e-01
5.299958e-01	-3.048057e-05	-1.890567e-01
4.109247e-01	7.936732e-06	-1.704797e-01
2.508782e-01	-1.836406e-05	-1.200343e-01
1.337299e-02	-9.246962e-06	-7.995811e-03
-3.297533e-01	-1.366789e-06	2.528228e-01
-7.674514e-01	5.097490e-06	1.024738e+00
-4.893210e-01	1.042118e-05	3.103793e+00
2.997745e+00	1.590845e-05	3.002029e+00
3.106332e+00	2.037728e-05	9.597619e-01
2.621500e+00	2.471008e-05	6.761562e-02
2.232518e+00	2.842547e-05	-2.002086e-01
1.960171e+00	6.738389e-05	-3.608517e-01
1.764920e+00	7.087769e-05	-4.226766e-01
1.606100e+00	4.550788e-05	-4.717262e-01
1.483350e+00	1.073478e-04	-4.871989e-01
1.376909e+00	1.054495e-04	-5.002198e-01
1.290209e+00	1.058742e-04	-4.974111e-01
1.213927e+00	1.112209e-04	-4.948532e-01
1.149090e+00	8.275083e-05	-4.847232e-01
1.089171e+00	1.037736e-04	-4.753960e-01
1.036963e+00	1.230076e-04	-4.630111e-01
9.856831e-01	1.470706e-04	-4.511194e-01
9.371877e-01	1.727534e-04	-4.364809e-01
8.883365e-01	2.026876e-04	-4.216339e-01
8.393180e-01	2.139228e-04	-4.033076e-01
7.886782e-01	2.924400e-04	-3.831703e-01
7.398672e-01	2.818867e-04	-3.610623e-01
8.200841e-01	1.435753e-03	-1.444138e-01
8.302502e-01	1.436210e-03	-1.477066e-01
8.416196e-01	1.438072e-03	-1.534773e-01
8.482873e-01	1.423009e-03	-1.588972e-01
8.449762e-01	1.385223e-03	-1.646595e-01
8.401431e-01	1.399414e-03	-1.695210e-01
8.268675e-01	1.261692e-03	-1.748350e-01
8.124413e-01	1.324584e-03	-1.789232e-01
7.889222e-01	1.057241e-03	-1.840005e-01
7.624872e-01	1.112005e-03	-1.875938e-01
7.256806e-01	7.659447e-04	-1.933189e-01
6.812194e-01	7.817364e-04	-1.957783e-01
6.167353e-01	3.531373e-04	-1.982197e-01
5.334319e-01	4.458199e-04	-1.902824e-01
4.228029e-01	-4.717371e-05	-1.754076e-01
2.596079e-01	-3.861056e-04	-1.242111e-01
1.603776e-02	-5.818531e-04	-9.589096e-03
-3.309478e-01	-6.056014e-04	2.537387e-01
-7.676154e-01	-6.553065e-04	1.024957e+00
-4.890950e-01	-7.476083e-04	3.102359e+00
2.995666e+00	-8.327458e-04	2.999947e+00
3.103538e+00	-8.866687e-04	9.588987e-01
2.618229e+00	-9.825927e-04	6.753124e-02
2.235307e+00	-1.096568e-03	-2.004586e-01
1.967822e+00	-1.034570e-03	-3.622602e-01
1.775676e+00	-8.226928e-04	-4.252525e-01
1.610645e+00	-4.773646e-04	-4.730613e-01
1.487765e+00	-6.449662e-04	-4.886492e-01
1.380232e+00	-3.381667e-04	-5.014270e-01
1.292856e+00	-3.999789e-04	-4.984315e-01
1.216725e+00	-1.174877e-04	-4.959941e-01
1.150919e+00	-2.149764e-04	-4.854948e-01
1.091906e+00	-1.602322e-06	-4.765896e-01
1.038109e+00	-1.014590e-04	-4.635228e-01
9.879501e-01	8.979512e-06	-4.521570e-01
9.380484e-01	-2.363557e-05	-4.368817e-01
8.906309e-01	2.768393e-06	-4.227229e-01
8.426375e-01	1.171761e-05	-4.049027e-01
7.927557e-01	7.282707e-06	-3.851513e-01
7.380118e-01	6.238968e-06	-3.601568e-01
8.155483e-01	1.476928e-03	-1.436151e-01
8.333067e-01	1.502261e-03	-1.482504e-01
8.446214e-01	1.439325e-03	-1.540247e-01
8.499631e-01	1.402942e-03	-1.592111e-01
8.462651e-01	1.267742e-03	-1.649107e-01
8.412921e-01	1.223723e-03	-1.697529e-01
8.275342e-01	1.166609e-03	-1.749760e-01
8.134647e-01	1.094004e-03	-1.791486e-01
7.901147e-01	1.050789e-03	-1.842786e-01
7.632371e-01	9.561285e-04	-1.877783e-01
7.271904e-01	8.537713e-04	-1.937211e-01
6.822150e-01	7.714849e-04	-1.960644e-01
6.172554e-01	6.804902e-04	-1.983869e-01
5.355311e-01	5.220734e-04	-1.910313e-01
4.246422e-01	3.790274e-04	-1.761706e-01
2.609742e-01	2.642465e-04	-1.248649e-01
1.849249e-02	1.084355e-04	-1.105680e-02
-3.279750e-01	-4.897645e-05	2.514594e-01
-7.637722e-01	-2.118906e-04	1.019825e+00
-4.873644e-01	-3.728859e-04	3.091382e+00
2.991108e+00	-5.576403e-04	2.995383e+00
3.099361e+00	-7.146498e-04	9.576082e-01
2.614620e+00	-8.692188e-04	6.743817e-02
2.231736e+00	-1.013390e-03	-2.001384e-01
1.965945e+00	-1.186071e-03	-3.619146e-01
1.774627e+00	-1.312851e-03	-4.250013e-01
1.608418e+00	-1.431459e-03	-4.724071e-01
1.485492e+00	-1.573207e-03	-4.879025e-01
1.380008e+00	-1.670539e-03	-5.013459e-01
1.293021e+00	-1.749591e-03	-4.984952e-01
1.216266e+00	-1.819758e-03	-4.958067e-01
1.150492e+00	-1.916523e-03	-4.853146e-01
1.090815e+00	-1.963069e-03	-4.761135e-01
1.036969e+00	-1.997582e-03	-4.630136e-01
9.870777e-01	-2.037981e-03	-4.517577e-01
9.369712e-01	-2.081303e-03	-4.363801e-01
8.891932e-01	-2.026398e-03	-4.220406e-01
8.395329e-01	-2.069969e-03	-4.034109e-01
7.883713e-01	-2.146960e-03	-3.830212e-01
7.397074e-01	-2.135398e-03	-3.609843e-01
8.158325e-01	2.072197e-03	-1.436651e-01
8.336401e-01	2.068981e-03	-1.483097e-01
8.447504e-01	2.065083e-03	-1.540483e-01
8.528556e-01	1.970150e-03	-1.597529e-01
8.484080e-01	1.943286e-03	-1.653283e-01
8.419003e-01	1.912610e-03	-1.698756e-01
8.288738e-01	1.839417e-03	-1.752592e-01
8.140728e-01	1.750467e-03	-1.792825e-01
7.907934e-01	1.657851e-03	-1.844369e-01
7.650734e-01	1.518027e-03	-1.882301e-01
7.280963e-01	1.354568e-03	-1.939624e-01
6.835286e-01	1.255161e-03	-1.964419e-01
6.201737e-01	1.036361e-03	-1.993248e-01
5.379287e-01	8.295587e-04	-1.918865e-01