# vtk DataFile Version 2.0
OUTPUT by 3D-VPM
ASCII
DATASET UNSTRUCTURED_GRID
POINTS 820 double
1.000000e+00	0.000000e+00	2.632462e-03
9.931674e-01	0.000000e+00	1.670637e-03
9.755282e-01	0.000000e+00	-7.808483e-04
9.448927e-01	0.000000e+00	-4.903948e-03
9.045085e-01	0.000000e+00	-1.014218e-02
8.530688e-01	0.000000e+00	-1.643360e-02
7.938926e-01	0.000000e+00	-2.327240e-02
7.266841e-01	0.000000e+00	-3.040874e-02
6.545085e-01	0.000000e+00	-3.746027e-02
5.781101e-01	0.000000e+00	-4.397175e-02
5.000000e-01	0.000000e+00	-4.967779e-02
4.218900e-01	0.000000e+00	-5.388487e-02
3.454915e-01	0.000000e+00	-5.650694e-02
2.733159e-01	0.000000e+00	-5.673685e-02
2.061074e-01	0.000000e+00	-5.482197e-02
1.469312e-01	0.000000e+00	-5.013142e-02
9.549150e-02	0.000000e+00	-4.329615e-02
5.510729e-02	0.000000e+00	-3.406509e-02
2.447174e-02	0.000000e+00	-2.323002e-02
6.832625e-03	0.000000e+00	-1.080102e-02
0.000000e+00	0.000000e+00	2.632462e-03
6.832625e-03	0.000000e+00	1.606595e-02
2.447174e-02	0.000000e+00	2.849494e-02
5.510728e-02	0.000000e+00	3.933001e-02
9.549150e-02	0.000000e+00	4.856107e-02
1.469312e-01	0.000000e+00	5.539635e-02
2.061074e-01	0.000000e+00	6.008690e-02
2.733159e-01	0.000000e+00	6.200177e-02
3.454915e-01	0.000000e+00	6.177186e-02
4.218900e-01	0.000000e+00	5.914979e-02
5.000000e-01	0.000000e+00	5.494271e-02
5.781101e-01	0.000000e+00	4.923668e-02
6.545085e-01	0.000000e+00	4.272519e-02
7.266841e-01	0.000000e+00	3.567366e-02
7.938926e-01	0.000000e+00	2.853732e-02
8.530688e-01	0.000000e+00	2.169852e-02
9.045085e-01	0.000000e+00	1.540710e-02
9.448927e-01	0.000000e+00	1.016887e-02
9.755282e-01	0.000000e+00	6.045772e-03
9.931674e-01	0.000000e+00	3.594287e-03
1.000000e+00	0.000000e+00	2.632462e-03
1.000000e+00	1.052632e+00	2.632462e-03
9.931674e-01	1.052632e+00	1.670637e-03
9.755282e-01	1.052632e+00	-7.808483e-04
9.448927e-01	1.052632e+00	-4.903948e-03
9.045085e-01	1.052632e+00	-1.014218e-02
8.530689e-01	1.052632e+00	-1.643360e-02
7.938926e-01	1.052632e+00	-2.327240e-02
7.266841e-01	1.052632e+00	-3.040874e-02
6.545085e-01	1.052632e+00	-3.746027e-02
5.781101e-01	1.052632e+00	-4.397175e-02
5.000000e-01	1.052632e+00	-4.967779e-02
4.218900e-01	1.052632e+00	-5.388487e-02
3.454915e-01	1.052632e+00	-5.650694e-02
2.733158e-01	1.052632e+00	-5.673685e-02
2.061074e-01	1.052632e+00	-5.482197e-02
1.469311e-01	1.052632e+00	-5.013142e-02
9.549150e-02	1.052632e+00	-4.329615e-02
5.510729e-02	1.052632e+00	-3.406509e-02
2.447174e-02	1.052632e+00	-2.323002e-02
6.832625e-03	1.052632e+00	-1.080102e-02
0.000000e+00	1.052632e+00	2.632462e-03
6.832625e-03	1.052632e+00	1.606595e-02
2.447174e-02	1.052632e+00	2.849494e-02
5.510728e-02	1.052632e+00	3.933001e-02
9.549150e-02	1.052632e+00	4.856107e-02
1.469311e-01	1.052632e+00	5.539635e-02
2.061074e-01	1.052632e+00	6.008690e-02
2.733158e-01	1.052632e+00	6.200177e-02
3.454915e-01	1.052632e+00	6.177186e-02
4.218900e-01	1.052632e+00	5.914979e-02
5.000000e-01	1.052632e+00	5.494271e-02
5.781101e-01	1.052632e+00	4.923668e-02
6.545085e-01	1.052632e+00	4.272519e-02
7.266841e-01	1.052632e+00	3.567366e-02
7.938926e-01	1.052632e+00	2.853732e-02
8.530689e-01	1.052632e+00	2.169852e-02
9.045085e-01	1.052632e+00	1.540710e-02
9.448927e-01	1.052632e+00	1.016887e-02
9.755282e-01	1.052632e+00	6.045772e-03
9.931674e-01	1.052632e+00	3.594287e-03
1.000000e+00	1.052632e+00	2.632462e-03
1.000000e+00	2.105263e+00	2.632462e-03
9.931674e-01	2.105263e+00	1.670637e-03
9.755282e-01	2.105263e+00	-7.808483e-04
9.448927e-01	2.105263e+00	-4.903948e-03
9.045085e-01	2.105263e+00	-1.014218e-02
8.530689e-01	2.105263e+00	-1.643360e-02
7.938926e-01	2.105263e+00	-2.327240e-02
7.266841e-01	2.105263e+00	-3.040874e-02
6.545085e-01	2.105263e+00	-3.746027e-02
5.781101e-01	2.105263e+00	-4.397175e-02
5.000000e-01	2.105263e+00	-4.967779e-02
4.218900e-01	2.105263e+00	-5.388487e-02
3.454915e-01	2.105263e+00	-5.650694e-02
2.733158e-01	2.105263e+00	-5.673685e-02
2.061074e-01	2.105263e+00	-5.482197e-02
1.469312e-01	2.105263e+00	-5.013142e-02
9.549150e-02	2.105263e+00	-4.329615e-02
5.510729e-02	2.105263e+00	-3.406509e-02
2.447174e-02	2.105263e+00	-2.323002e-02
6.832625e-03	2.105263e+00	-1.080102e-02
0.000000e+00	2.105263e+00	2.632462e-03
6.832625e-03	2.105263e+00	1.606595e-02
2.447174e-02	2.105263e+00	2.849494e-02
5.510728e-02	2.105263e+00	3.933001e-02
9.549150e-02	2.105263e+00	4.856107e-02
1.469312e-01	2.105263e+00	5.539635e-02
2.061074e-01	2.105263e+00	6.008690e-02
2.733158e-01	2.105263e+00	6.200177e-02
3.454915e-01	2.105263e+00	6.177186e-02
4.218900e-01	2.105263e+00	5.914979e-02
5.000000e-01	2.105263e+00	5.494271e-02
5.781101e-01	2.105263e+00	4.923668e-02
6.545085e-01	2.105263e+00	4.272519e-02
7.266841e-01	2.105263e+00	3.567366e-02
7.938926e-01	2.105263e+00	2.853732e-02
8.530689e-01	2.105263e+00	2.169852e-02
9.045085e-01	2.105263e+00	1.540710e-02
9.448927e-01	2.105263e+00	1.016887e-02
9.755282e-01	2.105263e+00	6.045772e-03
9.931674e-01	2.105263e+00	3.594287e-03
1.000000e+00	2.105263e+00	2.632462e-03
1.000000e+00	3.157895e+00	2.632462e-03
9.931674e-01	3.157895e+00	1.670637e-03
9.755282e-01	3.157895e+00	-7.808483e-04
9.448927e-01	3.157895e+00	-4.903948e-03
9.045085e-01	3.157895e+00	-1.014218e-02
8.530689e-01	3.157895e+00	-1.643360e-02
7.938926e-01	3.157895e+00	-2.327240e-02
7.266842e-01	3.157895e+00	-3.040874e-02
6.545085e-01	3.157895e+00	-3.746027e-02
5.781101e-01	3.157895e+00	-4.397175e-02
5.000000e-01	3.157895e+00	-4.967779e-02
4.218900e-01	3.157895e+00	-5.388487e-02
3.454915e-01	3.157895e+00	-5.650694e-02
2.733158e-01	3.157895e+00	-5.673685e-02
2.061074e-01	3.157895e+00	-5.482197e-02
1.469312e-01	3.157895e+00	-5.013142e-02
9.549150e-02	3.157895e+00	-4.329615e-02
5.510729e-02	3.157895e+00	-3.406509e-02
2.447174e-02	3.157895e+00	-2.323002e-02
6.832625e-03	3.157895e+00	-1.080102e-02
0.000000e+00	3.157895e+00	2.632462e-03
6.832625e-03	3.157895e+00	1.606595e-02
2.447174e-02	3.157895e+00	2.849494e-02
5.510728e-02	3.157895e+00	3.933001e-02
9.549150e-02	3.157895e+00	4.856107e-02
1.469312e-01	3.157895e+00	5.539635e-02
2.061074e-01	3.157895e+00	6.008690e-02
2.733158e-01	3.157895e+00	6.200177e-02
3.454915e-01	3.157895e+00	6.177186e-02
4.218900e-01	3.157895e+00	5.914979e-02
5.000000e-01	3.157895e+00	5.494271e-02
5.781101e-01	3.157895e+00	4.923668e-02
6.545085e-01	3.157895e+00	4.272519e-02
7.266842e-01	3.157895e+00	3.567366e-02
7.938926e-01	3.157895e+00	2.853732e-02
8.530689e-01	3.157895e+00	2.169852e-02
9.045085e-01	3.157895e+00	1.540710e-02
9.448927e-01	3.157895e+00	1.016887e-02
9.755282e-01	3.157895e+00	6.045772e-03
9.931674e-01	3.157895e+00	3.594287e-03
1.000000e+00	3.157895e+00	2.632462e-03
1.000000e+00	4.210526e+00	2.632462e-03
9.931674e-01	4.210526e+00	1.670637e-03
9.755282e-01	4.210526e+00	-7.808483e-04
9.448927e-01	4.210526e+00	-4.903948e-03
9.045085e-01	4.210526e+00	-1.014218e-02
8.530689e-01	4.210526e+00	-1.643360e-02
7.938926e-01	4.210526e+00	-2.327240e-02
7.266841e-01	4.210526e+00	-3.040874e-02
6.545085e-01	4.210526e+00	-3.746027e-02
5.781101e-01	4.210526e+00	-4.397175e-02
5.000000e-01	4.210526e+00	-4.967779e-02
4.218900e-01	4.210526e+00	-5.388487e-02
3.454915e-01	4.210526e+00	-5.650694e-02
2.733158e-01	4.210526e+00	-5.673685e-02
2.061074e-01	4.210526e+00	-5.482197e-02
1.469311e-01	4.210526e+00	-5.013142e-02
9.549150e-02	4.210526e+00	-4.329615e-02
5.510729e-02	4.210526e+00	-3.406509e-02
2.447174e-02	4.210526e+00	-2.323002e-02
6.832625e-03	4.210526e+00	-1.080102e-02
0.000000e+00	4.210526e+00	2.632462e-03
6.832625e-03	4.210526e+00	1.606595e-02
2.447174e-02	4.210526e+00	2.849494e-02
5.510728e-02	4.210526e+00	3.933001e-02
9.549150e-02	4.210526e+00	4.856107e-02
1.469311e-01	4.210526e+00	5.539635e-02
2.061074e-01	4.210526e+00	6.008690e-02
2.733158e-01	4.210526e+00	6.200177e-02
3.454915e-01	4.210526e+00	6.177186e-02
4.218900e-01	4.210526e+00	5.914979e-02
5.000000e-01	4.210526e+00	5.494271e-02
5.781101e-01	4.210526e+00	4.923668e-02
6.545085e-01	4.210526e+00	4.272519e-02
7.266841e-01	4.210526e+00	3.567366e-02
7.938926e-01	4.210526e+00	2.853732e-02
8.530689e-01	4.210526e+00	2.169852e-02
9.045085e-01	4.210526e+00	1.540710e-02
9.448927e-01	4.210526e+00	1.016887e-02
9.755282e-01	4.210526e+00	6.045772e-03
9.931674e-01	4.210526e+00	3.594287e-03
1.000000e+00	4.210526e+00	2.632462e-03
1.000000e+00	5.263158e+00	2.632462e-03
9.931674e-01	5.263158e+00	1.670637e-03
9.755282e-01	5.263158e+00	-7.808483e-04
9.448927e-01	5.263158e+00	-4.903948e-03
9.045085e-01	5.263158e+00	-1.014218e-02
8.530689e-01	5.263158e+00	-1.643360e-02
7.938926e-01	5.263158e+00	-2.327240e-02
7.266842e-01	5.263158e+00	-3.040874e-02
6.545085e-01	5.263158e+00	-3.746027e-02
5.781101e-01	5.263158e+00	-4.397175e-02
5.000000e-01	5.263158e+00	-4.967779e-02
4.218900e-01	5.263158e+00	-5.388487e-02
3.454915e-01	5.263158e+00	-5.650694e-02
2.733158e-01	5.263158e+00	-5.673685e-02
2.061074e-01	5.263158e+00	-5.482197e-02
1.469311e-01	5.263158e+00	-5.013142e-02
9.549150e-02	5.263158e+00	-4.329615e-02
5.510729e-02	5.263158e+00	-3.406509e-02
2.447174e-02	5.263158e+00	-2.323002e-02
6.832625e-03	5.263158e+00	-1.080102e-02
0.000000e+00	5.263158e+00	2.632462e-03
6.832625e-03	5.263158e+00	1.606595e-02
2.447174e-02	5.263158e+00	2.849494e-02
5.510728e-02	5.263158e+00	3.933001e-02
9.549150e-02	5.263158e+00	4.856107e-02
1.469311e-01	5.263158e+00	5.539635e-02
2.061074e-01	5.263158e+00	6.008690e-02
2.733158e-01	5.263158e+00	6.200177e-02
3.454915e-01	5.263158e+00	6.177186e-02
4.218900e-01	5.263158e+00	5.914979e-02
5.000000e-01	5.263158e+00	5.494271e-02
5.781101e-01	5.263158e+00	4.923668e-02
6.545085e-01	5.263158e+00	4.272519e-02
7.266842e-01	5.263158e+00	3.567366e-02
7.938926e-01	5.263158e+00	2.853732e-02
8.530689e-01	5.263158e+00	2.169852e-02
9.045085e-01	5.263158e+00	1.540710e-02
9.448927e-01	5.263158e+00	1.016887e-02
9.755282e-01	5.263158e+00	6.045772e-03
9.931674e-01	5.263158e+00	3.594287e-03
1.000000e+00	5.263158e+00	2.632462e-03
1.000000e+00	6.315789e+00	2.632462e-03
9.931673e-01	6.315789e+00	1.670637e-03
9.755282e-01	6.315789e+00	-7.808483e-04
9.448927e-01	6.315789e+00	-4.903948e-03
9.045085e-01	6.315789e+00	-1.014218e-02
[...]
CELL_DATA 760
VECTORS V double
2.971857e-01	1.311131e-03	4.183452e-02
3.082452e-01	1.312357e-03	4.283984e-02
3.200137e-01	1.328157e-03	4.306926e-02
3.316779e-01	1.350278e-03	4.302190e-02
3.420296e-01	1.367942e-03	4.183255e-02
3.528678e-01	1.368960e-03	4.077975e-02
3.619646e-01	1.340863e-03	3.843419e-02
3.715450e-01	1.272552e-03	3.629979e-02
3.803716e-01	1.157122e-03	3.241929e-02
3.899726e-01	9.934799e-04	2.848798e-02
3.994039e-01	7.875753e-04	2.151228e-02
4.093391e-01	5.520132e-04	1.404891e-02
4.190389e-01	3.028592e-04	1.334816e-03
4.281683e-01	5.826045e-05	-1.219922e-02
4.384645e-01	-1.688499e-04	-3.475444e-02
4.419492e-01	-3.681137e-04	-5.872599e-02
4.371903e-01	-5.391747e-04	-9.993336e-02
4.224805e-01	-6.812035e-04	-1.494214e-01
3.462705e-01	-8.032781e-04	-2.439915e-01
1.342670e-01	-9.040960e-04	-2.639796e-01
5.243930e-02	-9.988726e-04	1.030998e-01
2.565952e-01	-1.061369e-03	1.808039e-01
3.555601e-01	-1.102586e-03	1.257532e-01
3.887538e-01	-1.115262e-03	8.886169e-02
4.067490e-01	-1.093102e-03	5.404860e-02
4.128398e-01	-1.029839e-03	3.272340e-02
4.102742e-01	-9.216074e-04	1.168933e-02
4.072350e-01	-7.713643e-04	-1.297216e-03
4.028811e-01	-5.865753e-04	-1.382727e-02
3.975084e-01	-3.807997e-04	-2.141019e-02
3.923941e-01	-1.686442e-04	-2.866487e-02
3.868237e-01	3.564339e-05	-3.296921e-02
3.820865e-01	2.217006e-04	-3.732969e-02
3.765911e-01	3.840408e-04	-3.998726e-02
3.717176e-01	5.211680e-04	-4.295816e-02
3.649523e-01	6.342093e-04	-4.463615e-02
3.581674e-01	7.246390e-04	-4.645785e-02
3.484119e-01	7.919499e-04	-4.689126e-02
3.358083e-01	8.320341e-04	-4.667056e-02
3.208973e-01	8.409505e-04	-4.517238e-02
2.970822e-01	7.710717e-04	4.181995e-02
3.076861e-01	7.712626e-04	4.276214e-02
3.193591e-01	7.788023e-04	4.298117e-02
3.311872e-01	7.892925e-04	4.295825e-02
3.418554e-01	7.967723e-04	4.181125e-02
3.531210e-01	7.945393e-04	4.080901e-02
3.627332e-01	7.758957e-04	3.851580e-02
3.728852e-01	7.350003e-04	3.643072e-02
3.823017e-01	6.683254e-04	3.258380e-02
3.924648e-01	5.754018e-04	2.867003e-02
4.023850e-01	4.594494e-04	2.167284e-02
4.126991e-01	3.271666e-04	1.416423e-02
4.226460e-01	1.870528e-04	1.346307e-03
4.318996e-01	4.881018e-05	-1.230553e-02
4.422293e-01	-8.060320e-05	-3.505286e-02
4.457279e-01	-1.953688e-04	-5.922810e-02
4.410322e-01	-2.950691e-04	-1.008115e-01
4.265558e-01	-3.787648e-04	-1.508627e-01
3.505474e-01	-4.512584e-04	-2.470051e-01
1.374013e-01	-5.112904e-04	-2.701419e-01
5.002302e-02	-5.675675e-04	9.834924e-02
2.547252e-01	-6.044283e-04	1.794862e-01
3.548083e-01	-6.285929e-04	1.254873e-01
3.889181e-01	-6.361617e-04	8.889924e-02
4.076516e-01	-6.239450e-04	5.416853e-02
4.143732e-01	-5.887447e-04	3.284494e-02
4.123312e-01	-5.286154e-04	1.174794e-02
4.096899e-01	-4.452182e-04	-1.305036e-03
4.055929e-01	-3.425052e-04	-1.392034e-02
4.003320e-01	-2.276619e-04	-2.156227e-02
3.952012e-01	-1.084413e-04	-2.886993e-02
3.895170e-01	7.499388e-06	-3.319876e-02
3.846128e-01	1.144157e-04	-3.757651e-02
3.789409e-01	2.089511e-04	-4.023678e-02
3.739152e-01	2.898743e-04	-4.321213e-02
3.670408e-01	3.574262e-04	-4.489159e-02
3.601781e-01	4.120213e-04	-4.671866e-02
3.502953e-01	4.530217e-04	-4.714474e-02
3.373269e-01	4.779076e-04	-4.688161e-02
3.216496e-01	4.844304e-04	-4.527828e-02
2.971535e-01	1.504831e-04	4.182998e-02
3.077252e-01	1.499170e-04	4.276758e-02
3.193916e-01	1.493046e-04	4.298554e-02
3.312378e-01	1.482674e-04	4.296481e-02
3.419412e-01	1.461295e-04	4.182174e-02
3.532512e-01	1.421947e-04	4.082406e-02
3.629120e-01	1.359517e-04	3.853479e-02
3.731134e-01	1.270740e-04	3.645302e-02
3.825789e-01	1.154703e-04	3.260742e-02
3.927898e-01	1.012183e-04	2.869378e-02
4.027564e-01	8.459346e-05	2.169285e-02
4.131155e-01	6.606222e-05	1.417852e-02
4.231057e-01	4.618511e-05	1.347771e-03
4.324018e-01	2.574039e-05	-1.231984e-02
4.427752e-01	5.341364e-06	-3.509612e-02
4.463236e-01	-1.419300e-05	-5.930726e-02
4.416884e-01	-3.254364e-05	-1.009615e-01
4.272978e-01	-4.900902e-05	-1.511252e-01
3.513550e-01	-6.390248e-05	-2.475742e-01
1.379955e-01	-7.640485e-05	-2.713101e-01
4.957911e-02	-8.791441e-05	9.747649e-02
2.543959e-01	-9.512833e-05	1.792542e-01
3.546737e-01	-9.963268e-05	1.254397e-01
3.889225e-01	-1.011030e-04	8.890025e-02
4.077513e-01	-9.950815e-05	5.418179e-02
4.145445e-01	-9.480064e-05	3.285852e-02
4.125585e-01	-8.699444e-05	1.175441e-02
4.099625e-01	-7.635042e-05	-1.305904e-03
4.059023e-01	-6.316811e-05	-1.393096e-02
4.006712e-01	-4.797608e-05	-2.158054e-02
3.955643e-01	-3.133340e-05	-2.889645e-02
3.898987e-01	-1.389158e-05	-3.323129e-02
3.850074e-01	3.680738e-06	-3.761506e-02
3.793438e-01	2.067626e-05	-4.027955e-02
3.743251e-01	3.652781e-05	-4.325950e-02
3.674587e-01	5.082408e-05	-4.494270e-02
3.606032e-01	6.313259e-05	-4.677380e-02
3.507191e-01	7.291638e-05	-4.720177e-02
3.377280e-01	7.949029e-05	-4.693735e-02
3.219980e-01	8.237808e-05	-4.532732e-02
2.971777e-01	4.957655e-05	4.183340e-02
3.077473e-01	4.934483e-05	4.277065e-02
3.194170e-01	4.895072e-05	4.298896e-02
3.312701e-01	4.825252e-05	4.296901e-02
3.419822e-01	4.709790e-05	4.182676e-02
3.533014e-01	4.535535e-05	4.082985e-02
3.629715e-01	4.295647e-05	3.854111e-02
3.731828e-01	3.985547e-05	3.645980e-02
3.826589e-01	3.603623e-05	3.261424e-02
3.928811e-01	3.150059e-05	2.870045e-02
4.028598e-01	2.630143e-05	2.169842e-02
4.132315e-01	2.056036e-05	1.418250e-02
4.232347e-01	1.441943e-05	1.348182e-03
4.325446e-01	8.081563e-06	-1.232391e-02
4.429326e-01	1.706010e-06	-3.510860e-02
4.464980e-01	-4.465294e-06	-5.933043e-02
4.418829e-01	-1.032642e-05	-1.010060e-01
4.275197e-01	-1.563053e-05	-1.512036e-01
3.515971e-01	-2.044561e-05	-2.477447e-01
1.381722e-01	-2.447314e-05	-2.716576e-01
4.945023e-02	-2.812633e-05	9.722310e-02
2.543049e-01	-3.034341e-05	1.791901e-01
3.546410e-01	-3.163616e-05	1.254282e-01
3.889298e-01	-3.193039e-05	8.890191e-02
4.077849e-01	-3.124522e-05	5.418625e-02
4.145968e-01	-2.960731e-05	3.286266e-02
4.126247e-01	-2.705433e-05	1.175630e-02
4.100391e-01	-2.369390e-05	-1.306148e-03
4.059870e-01	-1.963426e-05	-1.393387e-02
4.007622e-01	-1.504344e-05	-2.158544e-02
3.956606e-01	-1.006078e-05	-2.890349e-02
3.899997e-01	-4.836591e-06	-3.323991e-02
3.851133e-01	4.783344e-07	-3.762540e-02
3.794552e-01	5.737065e-06	-4.029138e-02
3.744434e-01	1.079770e-05	-4.327316e-02
3.675851e-01	1.551639e-05	-4.495817e-02
3.607391e-01	1.972085e-05	-4.679143e-02
3.508631e-01	2.319077e-05	-4.722115e-02
3.378742e-01	2.562625e-05	-4.695768e-02
3.221369e-01	2.677114e-05	-4.534687e-02
2.971926e-01	2.201790e-05	4.183549e-02
3.077600e-01	2.187579e-05	4.277242e-02
3.194301e-01	2.164062e-05	4.299072e-02
3.312856e-01	2.126286e-05	4.297102e-02
3.420012e-01	2.067230e-05	4.182908e-02
3.533243e-01	1.980673e-05	4.083250e-02
3.629985e-01	1.863368e-05	3.854397e-02
3.732139e-01	1.713885e-05	3.646283e-02
3.826943e-01	1.532925e-05	3.261726e-02
3.929211e-01	1.321493e-05	2.870337e-02
4.029042e-01	1.083265e-05	2.170081e-02
4.132802e-01	8.252126e-06	1.418417e-02
4.232879e-01	5.540547e-06	1.348351e-03
4.326026e-01	2.777287e-06	-1.232556e-02
4.429960e-01	1.865647e-08	-3.511363e-02
4.465681e-01	-2.641335e-06	-5.933974e-02
4.419610e-01	-5.162733e-06	-1.010238e-01
4.276087e-01	-7.440087e-06	-1.512351e-01
3.516939e-01	-9.499773e-06	-2.478130e-01
1.382424e-01	-1.121003e-05	-2.717955e-01
4.940003e-02	-1.273860e-05	9.712440e-02
2.542709e-01	-1.363910e-05	1.791661e-01
3.546302e-01	-1.412712e-05	1.254244e-01
3.889347e-01	-1.417635e-05	8.890305e-02
4.078001e-01	-1.379591e-05	5.418827e-02
4.146193e-01	-1.300194e-05	3.286444e-02
4.126525e-01	-1.181090e-05	1.175709e-02
4.100712e-01	-1.026798e-05	-1.306250e-03
4.060224e-01	-8.415510e-06	-1.393508e-02
4.008006e-01	-6.321356e-06	-2.158751e-02
3.957018e-01	-4.036765e-06	-2.890650e-02
3.900439e-01	-1.618900e-06	-3.324368e-02
3.851605e-01	8.625460e-07	-3.763001e-02
3.795052e-01	3.329947e-06	-4.029669e-02
3.744963e-01	5.697562e-06	-4.327927e-02
3.676409e-01	7.884464e-06	-4.496499e-02
3.607976e-01	9.798168e-06	-4.679902e-02
3.509233e-01	1.133892e-05	-4.722925e-02
3.379333e-01	1.239101e-05	-4.696589e-02
3.221912e-01	1.287111e-05	-4.535452e-02
2.972017e-01	1.171916e-05	4.183678e-02
3.077683e-01	1.162923e-05	4.277356e-02
3.194385e-01	1.147134e-05	4.299185e-02
3.312950e-01	1.122488e-05	4.297224e-02
3.420123e-01	1.085756e-05	4.183044e-02
3.533373e-01	1.033962e-05	4.083400e-02
3.630135e-01	9.655086e-06	3.854556e-02
3.732308e-01	8.798096e-06	3.646449e-02
3.827131e-01	7.778505e-06	3.261886e-02
3.929418e-01	6.612351e-06	2.870488e-02
4.029268e-01	5.323180e-06	2.170203e-02
4.133049e-01	3.940583e-06	1.418502e-02
4.233147e-01	2.494273e-06	1.348436e-03
4.326318e-01	1.026133e-06	-1.232640e-02
4.430280e-01	-4.331946e-07	-3.511616e-02
4.466032e-01	-1.833505e-06	-5.934442e-02
4.420001e-01	-3.153262e-06	-1.010328e-01
4.276530e-01	-4.336649e-06	-1.512508e-01
3.517416e-01	-5.396346e-06	-2.478466e-01
1.382765e-01	-6.263545e-06	-2.718626e-01
4.937632e-02	-7.018872e-06	9.707778e-02
2.542559e-01	-7.440930e-06	1.791555e-01
3.546268e-01	-7.636896e-06	1.254231e-01
3.889390e-01	-7.596127e-06	8.890403e-02
4.078094e-01	-7.321964e-06	5.418951e-02
4.146322e-01	-6.825432e-06	3.286547e-02
4.126681e-01	-6.116142e-06	1.175754e-02
4.100889e-01	-5.220912e-06	-1.306307e-03
4.060418e-01	-4.162923e-06	-1.393575e-02
4.008214e-01	-2.978406e-06	-2.158863e-02
3.957239e-01	-1.700519e-06	-2.890812e-02
3.900672e-01	-3.680094e-07	-3.324566e-02
3.851849e-01	9.801064e-07	-3.763240e-02
3.795309e-01	2.304132e-06	-4.029942e-02
3.745231e-01	3.562399e-06	-4.328237e-02
3.676690e-01	4.714223e-06	-4.496842e-02
3.608267e-01	5.714207e-06	-4.680279e-02
3.509530e-01	6.513730e-06	-4.723325e-02
3.379624e-01	7.056465e-06	-4.696994e-02
3.222179e-01	7.304294e-06	-4.535828e-02
2.972077e-01	6.997188e-06	4.183762e-02
3.077739e-01	6.937255e-06	4.277434e-02
3.194442e-01	6.826597e-06	4.299262e-02
3.313013e-01	6.654681e-06	4.297306e-02
3.420195e-01	6.405377e-06	4.183131e-02
3.533455e-01	6.065154e-06	4.083495e-02
3.630227e-01	5.627138e-06	3.854655e-02
3.732411e-01	5.088208e-06	3.646549e-02
3.827244e-01	4.454166e-06	3.261983e-02
3.929542e-01	3.736234e-06	2.870578e-02
4.029403e-01	2.949486e-06	2.170275e-02
4.133194e-01	2.112873e-06	1.418552e-02
4.233304e-01	1.244308e-06	1.348487e-03
4.326488e-01	3.687208e-07	-1.232688e-02
4.430464e-01	-4.955211e-07	-3.511762e-02
4.466234e-01	-1.318433e-06	-5.934709e-02
4.420222e-01	-2.088800e-06	-1.010378e-01
4.276777e-01	-2.770457e-06	-1.512595e-01
3.517679e-01	-3.371752e-06	-2.478651e-01
1.382947e-01	-3.852949e-06	-2.718985e-01
4.936437e-02	-4.255283e-06	9.705428e-02
2.542494e-01	-4.460541e-06	1.791509e-01
3.546267e-01	-4.527195e-06	1.254231e-01
3.889430e-01	-4.452838e-06	8.890495e-02
4.078161e-01	-4.238347e-06	5.419040e-02
4.146407e-01	-3.896195e-06	3.286614e-02
4.126780e-01	-3.431901e-06	1.175782e-02
4.100998e-01	-2.863197e-06	-1.306341e-03
4.060536e-01	-2.204370e-06	-1.393615e-02
4.008338e-01	-1.476731e-06	-2.158930e-02
3.957370e-01	-6.992635e-07	-2.890907e-02
3.900809e-01	1.045565e-07	-3.324683e-02
3.851991e-01	9.119261e-07	-3.763379e-02
3.795456e-01	1.699293e-06	-4.030098e-02
3.745384e-01	2.443097e-06	-4.328415e-02
3.676850e-01	3.120673e-06	-4.497038e-02
3.608433e-01	3.707355e-06	-4.680494e-02
3.509698e-01	4.173996e-06	-4.723552e-02
3.379788e-01	4.489068e-06	-4.697222e-02
3.222330e-01	4.633736e-06	-4.536040e-02
2.972118e-01	4.303211e-06	4.183820e-02
3.077779e-01	4.284090e-06	4.277490e-02
3.194483e-01	4.257328e-06	4.299317e-02
3.313058e-01	4.223119e-06	4.297364e-02
3.420245e-01	4.177607e-06	4.183192e-02
3.533510e-01	4.112347e-06	4.083558e-02
3.630288e-01	4.012865e-06	3.854719e-02
3.732478e-01	3.854297e-06	3.646615e-02
3.827317e-01	3.608484e-06	3.262045e-02
3.929621e-01	3.257576e-06	2.870636e-02
4.029488e-01	2.803406e-06	2.170321e-02
4.133285e-01	2.272605e-06	1.418583e-02
4.233402e-01	1.704743e-06	1.348518e-03
4.326593e-01	1.142344e-06	-1.232718e-02
4.430577e-01	6.105103e-07	-3.511852e-02
4.466356e-01	1.264877e-07	-5.934872e-02
4.420356e-01	-3.108458e-07	-1.010409e-01
4.276925e-01	-6.912854e-07	-1.512647e-01
3.517833e-01	-1.023038e-06	-2.478760e-01
1.383051e-01	-1.285280e-06	-2.719188e-01
4.935806e-02	-1.499497e-06	9.704187e-02
2.542467e-01	-1.602786e-06	1.791491e-01
3.546277e-01	-1.626825e-06	1.254235e-01
3.889464e-01	-1.570069e-06	8.890572e-02
4.078209e-01	-1.429220e-06	5.419104e-02
4.146465e-01	-1.202320e-06	3.286660e-02
4.126845e-01	-8.853773e-07	1.175800e-02
4.101068e-01	-4.892523e-07	-1.306364e-03
4.060611e-01	-3.693234e-08	-1.393641e-02
4.008417e-01	4.310118e-07	-2.158972e-02
3.957453e-01	8.742699e-07	-2.890968e-02
3.900895e-01	1.264651e-06	-3.324755e-02
3.852080e-01	1.596183e-06	-3.763466e-02
3.795548e-01	1.879990e-06	-4.030196e-02
3.745480e-01	2.133425e-06	-4.328525e-02
3.676948e-01	2.368108e-06	-4.497159e-02
3.608535e-01	2.580532e-06	-4.680626e-02
3.509801e-01	2.757056e-06	-4.723690e-02
3.379888e-01	2.879786e-06	-4.697361e-02
3.222423e-01	2.935721e-06	-4.536172e-02
2.972110e-01	-3.330945e-04	4.183808e-02
3.077764e-01	-3.336966e-04	4.277469e-02
3.194463e-01	-3.355862e-04	4.299290e-02
3.313034e-01	-3.321809e-04	4.297332e-02
3.420218e-01	-3.217283e-04	4.183159e-02
3.533484e-01	-3.337042e-04	4.083528e-02
3.630268e-01	-2.807027e-04	3.854698e-02
3.732470e-01	-3.037904e-04	3.646607e-02
3.827327e-01	-2.174375e-04	3.262053e-02
3.929650e-01	-2.500452e-04	2.870658e-02
4.029536e-01	-1.314830e-04	2.170347e-02
4.133347e-01	-1.713882e-04	1.418604e-02
4.233469e-01	-2.811677e-05	1.348539e-03
4.326661e-01	-7.452908e-05	-1.232737e-02
4.430643e-01	8.734282e-05	-3.511904e-02
4.466421e-01	1.896079e-04	-5.934958e-02
4.420422e-01	2.370457e-04	-1.010424e-01
4.276997e-01	2.192312e-04	-1.512673e-01
3.517908e-01	2.104881e-04	-2.478813e-01
1.383102e-01	2.069634e-04	-2.719289e-01
4.935487e-02	2.068719e-04	9.703560e-02
2.542452e-01	2.102404e-04	1.791480e-01
3.546281e-01	2.188315e-04	1.254236e-01
3.889481e-01	2.365078e-04	8.890610e-02
4.078237e-01	1.889445e-04	5.419141e-02
4.146504e-01	8.656956e-05	3.286691e-02
4.126893e-01	-7.539410e-05	1.175814e-02
4.101122e-01	-2.905390e-05	-1.306381e-03
4.060664e-01	-1.723768e-04	-1.393659e-02
4.008461e-01	-1.325019e-04	-2.158996e-02
3.957483e-01	-2.510743e-04	-2.890990e-02
3.900909e-01	-2.184565e-04	-3.324768e-02
3.852081e-01	-3.047816e-04	-3.763466e-02
3.795541e-01	-2.816508e-04	-4.030188e-02
3.745470e-01	-3.345999e-04	-4.328514e-02
3.676941e-01	-3.225677e-04	-4.497149e-02
3.608531e-01	-3.329692e-04	-4.680622e-02
3.509802e-01	-3.363335e-04	-4.723691e-02
3.379891e-01	-3.344181e-04	-4.697365e-02
3.222424e-01	-3.338069e-04	-4.536173e-02
2.973134e-01	-1.660438e-08	4.185250e-02
3.079273e-01	-1.575190e-08	4.279567e-02
3.193639e-01	-1.803993e-08	4.298181e-02
3.309365e-01	-2.272500e-08	4.292574e-02
3.420975e-01	-2.861729e-08	4.184086e-02
3.525598e-01	-3.333593e-08	4.074415e-02
3.626189e-01	-3.676712e-08	3.850367e-02
3.722825e-01	-3.851736e-08	3.637184e-02
3.820220e-01	-3.665566e-08	3.255996e-02
3.917933e-01	-3.305377e-08	2.862098e-02
4.018731e-01	-2.748607e-08	2.164528e-02
4.119455e-01	-2.193437e-08	1.413837e-02
4.218368e-01	-1.603656e-08	1.343729e-03
4.309950e-01	-1.204617e-08	-1.227976e-02
4.383451e-01	-5.560977e-09	-3.474497e-02
4.435029e-01	1.254158e-09	-5.893245e-02
4.411322e-01	8.327632e-09	-1.008344e-01
4.285467e-01	1.534000e-08	-1.515669e-01
3.522853e-01	2.362587e-08	-2.482297e-01
1.384396e-01	3.026661e-08	-2.721832e-01
4.948187e-02	3.721349e-08	9.728531e-02
2.547371e-01	4.236155e-08	1.794946e-01
3.554731e-01	4.657249e-08	1.257225e-01
3.880366e-01	4.822669e-08	8.869776e-02
4.046835e-01	4.998866e-08	5.377414e-02
4.099303e-01	5.051486e-08	3.249278e-02
4.110176e-01	4.977667e-08	1.171051e-02
4.086017e-01	4.903246e-08	-1.301569e-03
4.046770e-01	4.546410e-08	-1.388890e-02
3.997656e-01	4.056192e-08	-2.153176e-02
3.945765e-01	3.435186e-08	-2.882430e-02
3.893802e-01	2.838081e-08	-3.318711e-02
3.842438e-01	2.332602e-08	-3.754045e-02
3.791464e-01	2.107074e-08	-4.025859e-02
3.737587e-01	1.988616e-08	-4.319403e-02
3.677701e-01	1.831519e-08	-4.498079e-02
3.604865e-01	1.809219e-08	-4.675867e-02
3.508980e-01	1.864276e-08	-4.722585e-02
3.381404e-01	2.003968e-08	-4.699467e-02
3.223455e-01	2.275583e-08	-4.537623e-02
2.972108e-01	3.331247e-04	4.183806e-02
3.077765e-01	3.337213e-04	4.277471e-02
3.194465e-01	3.356029e-04	4.299293e-02
3.313036e-01	3.321882e-04	4.297336e-02
3.420220e-01	3.217264e-04	4.183162e-02
3.533485e-01	3.336942e-04	4.083530e-02
3.630269e-01	2.806881e-04	3.854699e-02
3.732470e-01	3.037762e-04	3.646607e-02
3.827326e-01	2.174277e-04	3.262053e-02
3.929649e-01	2.500387e-04	2.870657e-02
4.029534e-01	1.314877e-04	2.170346e-02
4.133345e-01	1.714049e-04	1.418604e-02
4.233468e-01	2.814717e-05	1.348539e-03
4.326660e-01	7.457057e-05	-1.232737e-02
4.430641e-01	-8.728585e-05	-3.511902e-02
4.466418e-01	-1.895352e-04	-5.934955e-02
4.420419e-01	-2.369555e-04	-1.010423e-01
4.276992e-01	-2.191260e-04	-1.512671e-01
3.517902e-01	-2.103685e-04	-2.478809e-01
1.383098e-01	-2.068310e-04	-2.719280e-01
4.935524e-02	-2.067270e-04	9.703634e-02
2.542455e-01	-2.100871e-04	1.791482e-01
3.546282e-01	-2.186723e-04	1.254236e-01
3.889482e-01	-2.363455e-04	8.890612e-02
4.078238e-01	-1.887833e-04	5.419142e-02
4.146504e-01	-8.641110e-05	3.286691e-02
4.126893e-01	7.554674e-05	1.175814e-02
4.101121e-01	2.920143e-05	-1.306381e-03
4.060662e-01	1.725125e-04	-1.393658e-02
4.008460e-01	1.326234e-04	-2.158995e-02
3.957481e-01	2.511784e-04	-2.890988e-02
3.900907e-01	2.185498e-04	-3.324766e-02
3.852080e-01	3.048585e-04	-3.763465e-02
3.795540e-01	2.817120e-04	-4.030187e-02
3.745469e-01	3.346498e-04	-4.328513e-02
3.676940e-01	3.226098e-04	-4.497149e-02
3.608531e-01	3.330054e-04	-4.680622e-02
3.509802e-01	3.363655e-04	-4.723692e-02
3.379893e-01	3.344468e-04	-4.697368e-02
3.222429e-01	3.338324e-04	-4.536180e-02
2.972128e-01	-4.233313e-06	4.183833e-02
3.077786e-01	-4.224973e-06	4.277500e-02
3.194489e-01	-4.210222e-06	4.299325e-02
3.313063e-01	-4.187822e-06	4.297370e-02
3.420248e-01	-4.153195e-06	4.183197e-02
3.533512e-01	-4.097756e-06	4.083561e-02
3.630289e-01	-4.004232e-06	3.854720e-02
3.732477e-01	-3.847785e-06	3.646614e-02
3.827316e-01	-3.602578e-06	3.262044e-02
3.929619e-01	-3.249603e-06	2.870635e-02
4.029484e-01	-2.791318e-06	2.170319e-02
4.133282e-01	-2.252804e-06	1.418582e-02
4.233398e-01	-1.673106e-06	1.348516e-03
4.326589e-01	-1.093777e-06	-1.232717e-02
4.430571e-01	-5.451080e-07	-3.511847e-02
4.466350e-01	-4.332977e-08	-5.934863e-02
4.420348e-01	4.120545e-07	-1.010407e-01
4.276916e-01	8.097451e-07	-1.512644e-01
3.517823e-01	1.156561e-06	-2.478753e-01
1.383043e-01	1.432790e-06	-2.719172e-01
4.935870e-02	1.659947e-06	9.704313e-02
2.542472e-01	1.771187e-06	1.791494e-01
3.546280e-01	1.799893e-06	1.254235e-01
3.889465e-01	1.745570e-06	8.890573e-02
4.078209e-01	1.602390e-06	5.419103e-02
4.146463e-01	1.369772e-06	3.286659e-02
4.126843e-01	1.043882e-06	1.175800e-02
4.101066e-01	6.347654e-07	-1.306363e-03
4.060607e-01	1.687216e-07	-1.393639e-02
4.008413e-01	-3.137709e-07	-2.158970e-02
3.957449e-01	-7.730025e-07	-2.890965e-02
3.900891e-01	-1.181034e-06	-3.324752e-02
3.852076e-01	-1.530847e-06	-3.763461e-02
3.795544e-01	-1.833152e-06	-4.030191e-02
3.745476e-01	-2.101976e-06	-4.328521e-02
3.676946e-01	-2.345853e-06	-4.497155e-02
3.608532e-01	-2.564962e-06	-4.680623e-02
3.509798e-01	-2.747393e-06	-4.723686e-02
3.379885e-01	-2.876672e-06	-4.697356e-02
3.222418e-01	-2.940548e-06	-4.536164e-02
2.972094e-01	-6.903611e-06	4.183786e-02
3.077752e-01	-6.856358e-06	4.277453e-02
3.194452e-01	-6.761793e-06	4.299276e-02
3.313022e-01	-6.605439e-06	4.297317e-02
3.420201e-01	-6.369325e-06	4.183139e-02
3.533459e-01	-6.038526e-06	4.083499e-02
3.630229e-01	-5.606916e-06	3.854657e-02
3.732411e-01	-5.073244e-06	3.646550e-02
3.827244e-01	-4.442469e-06	3.261982e-02
3.929540e-01	-3.720690e-06	2.870577e-02
4.029400e-01	-2.931029e-06	2.170273e-02
4.133190e-01	-2.085586e-06	1.418551e-02
4.233298e-01	-1.204135e-06	1.348485e-03
4.326481e-01	-3.081207e-07	-1.232686e-02
4.430456e-01	5.758953e-07	-3.511755e-02
4.466224e-01	1.420224e-06	-5.934696e-02
4.420210e-01	2.210845e-06	-1.010376e-01
4.276763e-01	2.913311e-06	-1.512590e-01
3.517662e-01	3.533915e-06	-2.478640e-01