# vtk DataFile Version 2.0
OUTPUT by 3D-VPM
ASCII
DATASET UNSTRUCTURED_GRID
POINTS 820 double
9.510565e-01	0.000000e+00	-3.090170e-01
9.442611e-01	0.000000e+00	-3.078203e-01
9.267277e-01	0.000000e+00	-3.047010e-01
8.963175e-01	0.000000e+00	-2.991555e-01
8.562911e-01	0.000000e+00	-2.916579e-01
8.054250e-01	0.000000e+00	-2.817457e-01
7.470317e-01	0.000000e+00	-2.699633e-01
6.809074e-01	0.000000e+00	-2.559818e-01
6.100852e-01	0.000000e+00	-2.403847e-01
5.354138e-01	0.000000e+00	-2.229691e-01
4.593635e-01	0.000000e+00	-2.042585e-01
3.837764e-01	0.000000e+00	-1.841224e-01
3.103069e-01	0.000000e+00	-1.630077e-01
2.415927e-01	0.000000e+00	-1.409228e-01
1.782654e-01	0.000000e+00	-1.183331e-01
1.234349e-01	0.000000e+00	-9.558566e-02
7.662509e-02	0.000000e+00	-7.318920e-02
4.106998e-02	0.000000e+00	-5.193053e-02
1.528206e-02	0.000000e+00	-3.215886e-02
2.347037e-03	0.000000e+00	-1.488740e-02
0.000000e+00	0.000000e+00	0.000000e+00
1.064939e-02	0.000000e+00	1.066461e-02
3.126595e-02	0.000000e+00	1.703450e-02
6.375031e-02	0.000000e+00	1.787236e-02
1.050105e-01	0.000000e+00	1.417221e-02
1.560448e-01	0.000000e+00	4.777214e-03
2.137742e-01	0.000000e+00	-9.048270e-03
2.782849e-01	0.000000e+00	-2.799567e-02
3.468570e-01	0.000000e+00	-5.051783e-02
4.187060e-01	0.000000e+00	-7.662000e-02
4.916930e-01	0.000000e+00	-1.047585e-01
5.642168e-01	0.000000e+00	-1.343226e-01
6.348639e-01	0.000000e+00	-1.641238e-01
7.013280e-01	0.000000e+00	-1.931337e-01
7.630418e-01	0.000000e+00	-2.206893e-01
8.172084e-01	0.000000e+00	-2.454799e-01
8.641863e-01	0.000000e+00	-2.673591e-01
9.009752e-01	0.000000e+00	-2.848204e-01
9.288372e-01	0.000000e+00	-2.982085e-01
9.448555e-01	0.000000e+00	-3.059908e-01
9.510565e-01	0.000000e+00	-3.090170e-01
9.510565e-01	1.052632e+00	-3.090170e-01
9.442611e-01	1.052632e+00	-3.078203e-01
9.267277e-01	1.052632e+00	-3.047010e-01
8.963175e-01	1.052632e+00	-2.991555e-01
8.562911e-01	1.052632e+00	-2.916579e-01
8.054250e-01	1.052632e+00	-2.817457e-01
7.470317e-01	1.052632e+00	-2.699633e-01
6.809074e-01	1.052632e+00	-2.559818e-01
6.100852e-01	1.052632e+00	-2.403847e-01
5.354138e-01	1.052632e+00	-2.229691e-01
4.593635e-01	1.052632e+00	-2.042585e-01
3.837764e-01	1.052632e+00	-1.841224e-01
3.103069e-01	1.052632e+00	-1.630077e-01
2.415927e-01	1.052632e+00	-1.409228e-01
1.782654e-01	1.052632e+00	-1.183331e-01
1.234349e-01	1.052632e+00	-9.558566e-02
7.662509e-02	1.052632e+00	-7.318920e-02
4.106998e-02	1.052632e+00	-5.193053e-02
1.528206e-02	1.052632e+00	-3.215886e-02
2.347037e-03	1.052632e+00	-1.488740e-02
0.000000e+00	1.052632e+00	0.000000e+00
1.064939e-02	1.052632e+00	1.066461e-02
3.126595e-02	1.052632e+00	1.703450e-02
6.375031e-02	1.052632e+00	1.787236e-02
1.050105e-01	1.052632e+00	1.417221e-02
1.560448e-01	1.052632e+00	4.777214e-03
2.137742e-01	1.052632e+00	-9.048270e-03
2.782849e-01	1.052632e+00	-2.799567e-02
3.468570e-01	1.052632e+00	-5.051783e-02
4.187060e-01	1.052632e+00	-7.662000e-02
4.916930e-01	1.052632e+00	-1.047585e-01
5.642168e-01	1.052632e+00	-1.343226e-01
6.348639e-01	1.052632e+00	-1.641238e-01
7.013280e-01	1.052632e+00	-1.931337e-01
7.630418e-01	1.052632e+00	-2.206893e-01
8.172084e-01	1.052632e+00	-2.454799e-01
8.641863e-01	1.052632e+00	-2.673591e-01
9.009752e-01	1.052632e+00	-2.848204e-01
9.288372e-01	1.052632e+00	-2.982085e-01
9.448555e-01	1.052632e+00	-3.059908e-01
9.510565e-01	1.052632e+00	-3.090170e-01
9.510565e-01	2.105263e+00	-3.090170e-01
9.442611e-01	2.105263e+00	-3.078203e-01
9.267277e-01	2.105263e+00	-3.047010e-01
8.963175e-01	2.105263e+00	-2.991555e-01
8.562911e-01	2.105263e+00	-2.916579e-01
8.054250e-01	2.105263e+00	-2.817457e-01
7.470317e-01	2.105263e+00	-2.699633e-01
6.809074e-01	2.105263e+00	-2.559818e-01
6.100852e-01	2.105263e+00	-2.403847e-01
5.354138e-01	2.105263e+00	-2.229691e-01
4.593635e-01	2.105263e+00	-2.042585e-01
3.837764e-01	2.105263e+00	-1.841224e-01
3.103069e-01	2.105263e+00	-1.630077e-01
2.415927e-01	2.105263e+00	-1.409228e-01
1.782654e-01	2.105263e+00	-1.183331e-01
1.234349e-01	2.105263e+00	-9.558566e-02
7.662509e-02	2.105263e+00	-7.318920e-02
4.106998e-02	2.105263e+00	-5.193053e-02
1.528206e-02	2.105263e+00	-3.215886e-02
2.347037e-03	2.105263e+00	-1.488740e-02
0.000000e+00	2.105263e+00	0.000000e+00
1.064939e-02	2.105263e+00	1.066461e-02
3.126595e-02	2.105263e+00	1.703450e-02
6.375031e-02	2.105263e+00	1.787236e-02
1.050105e-01	2.105263e+00	1.417221e-02
1.560448e-01	2.105263e+00	4.777214e-03
2.137742e-01	2.105263e+00	-9.048270e-03
2.782849e-01	2.105263e+00	-2.799567e-02
3.468570e-01	2.105263e+00	-5.051783e-02
4.187060e-01	2.105263e+00	-7.662000e-02
4.916930e-01	2.105263e+00	-1.047585e-01
5.642168e-01	2.105263e+00	-1.343226e-01
6.348639e-01	2.105263e+00	-1.641238e-01
7.013280e-01	2.105263e+00	-1.931337e-01
7.630418e-01	2.105263e+00	-2.206893e-01
8.172084e-01	2.105263e+00	-2.454799e-01
8.641863e-01	2.105263e+00	-2.673591e-01
9.009752e-01	2.105263e+00	-2.848204e-01
9.288372e-01	2.105263e+00	-2.982085e-01
9.448555e-01	2.105263e+00	-3.059908e-01
9.510565e-01	2.105263e+00	-3.090170e-01
9.510565e-01	3.157895e+00	-3.090170e-01
9.442611e-01	3.157895e+00	-3.078203e-01
9.267277e-01	3.157895e+00	-3.047010e-01
8.963175e-01	3.157895e+00	-2.991555e-01
8.562911e-01	3.157895e+00	-2.916579e-01
8.054250e-01	3.157895e+00	-2.817457e-01
7.470317e-01	3.157895e+00	-2.699633e-01
6.809074e-01	3.157895e+00	-2.559818e-01
6.100852e-01	3.157895e+00	-2.403847e-01
5.354138e-01	3.157895e+00	-2.229691e-01
4.593635e-01	3.157895e+00	-2.042585e-01
3.837764e-01	3.157895e+00	-1.841224e-01
3.103069e-01	3.157895e+00	-1.630077e-01
2.415927e-01	3.157895e+00	-1.409228e-01
1.782654e-01	3.157895e+00	-1.183331e-01
1.234349e-01	3.157895e+00	-9.558566e-02
7.662509e-02	3.157895e+00	-7.318920e-02
4.106998e-02	3.157895e+00	-5.193053e-02
1.528206e-02	3.157895e+00	-3.215886e-02
2.347037e-03	3.157895e+00	-1.488740e-02
0.000000e+00	3.157895e+00	0.000000e+00
1.064939e-02	3.157895e+00	1.066461e-02
3.126595e-02	3.157895e+00	1.703450e-02
6.375031e-02	3.157895e+00	1.787236e-02
1.050105e-01	3.157895e+00	1.417221e-02
1.560448e-01	3.157895e+00	4.777214e-03
2.137742e-01	3.157895e+00	-9.048270e-03
2.782849e-01	3.157895e+00	-2.799567e-02
3.468570e-01	3.157895e+00	-5.051783e-02
4.187060e-01	3.157895e+00	-7.662000e-02
4.916930e-01	3.157895e+00	-1.047585e-01
5.642168e-01	3.157895e+00	-1.343226e-01
6.348639e-01	3.157895e+00	-1.641238e-01
7.013280e-01	3.157895e+00	-1.931337e-01
7.630418e-01	3.157895e+00	-2.206893e-01
8.172084e-01	3.157895e+00	-2.454799e-01
8.641863e-01	3.157895e+00	-2.673591e-01
9.009752e-01	3.157895e+00	-2.848204e-01
9.288372e-01	3.157895e+00	-2.982085e-01
9.448555e-01	3.157895e+00	-3.059908e-01
9.510565e-01	3.157895e+00	-3.090170e-01
9.510565e-01	4.210526e+00	-3.090170e-01
9.442611e-01	4.210526e+00	-3.078203e-01
9.267277e-01	4.210526e+00	-3.047010e-01
8.963175e-01	4.210526e+00	-2.991555e-01
8.562911e-01	4.210526e+00	-2.916579e-01
8.054250e-01	4.210526e+00	-2.817457e-01
7.470317e-01	4.210526e+00	-2.699633e-01
6.809074e-01	4.210526e+00	-2.559818e-01
6.100852e-01	4.210526e+00	-2.403847e-01
5.354138e-01	4.210526e+00	-2.229691e-01
4.593635e-01	4.210526e+00	-2.042585e-01
3.837764e-01	4.210526e+00	-1.841224e-01
3.103069e-01	4.210526e+00	-1.630077e-01
2.415927e-01	4.210526e+00	-1.409228e-01
1.782654e-01	4.210526e+00	-1.183331e-01
1.234349e-01	4.210526e+00	-9.558566e-02
7.662509e-02	4.210526e+00	-7.318920e-02
4.106998e-02	4.210526e+00	-5.193053e-02
1.528206e-02	4.210526e+00	-3.215886e-02
2.347037e-03	4.210526e+00	-1.488740e-02
0.000000e+00	4.210526e+00	0.000000e+00
1.064939e-02	4.210526e+00	1.066461e-02
3.126595e-02	4.210526e+00	1.703450e-02
6.375031e-02	4.210526e+00	1.787236e-02
1.050105e-01	4.210526e+00	1.417221e-02
1.560448e-01	4.210526e+00	4.777214e-03
2.137742e-01	4.210526e+00	-9.048270e-03
2.782849e-01	4.210526e+00	-2.799567e-02
3.468570e-01	4.210526e+00	-5.051783e-02
4.187060e-01	4.210526e+00	-7.662000e-02
4.916930e-01	4.210526e+00	-1.047585e-01
5.642168e-01	4.210526e+00	-1.343226e-01
6.348639e-01	4.210526e+00	-1.641238e-01
7.013280e-01	4.210526e+00	-1.931337e-01
7.630418e-01	4.210526e+00	-2.206893e-01
8.172084e-01	4.210526e+00	-2.454799e-01
8.641863e-01	4.210526e+00	-2.673591e-01
9.009752e-01	4.210526e+00	-2.848204e-01
9.288372e-01	4.210526e+00	-2.982085e-01
9.448555e-01	4.210526e+00	-3.059908e-01
9.510565e-01	4.210526e+00	-3.090170e-01
9.510565e-01	5.263158e+00	-3.090170e-01
9.442611e-01	5.263158e+00	-3.078203e-01
9.267277e-01	5.263158e+00	-3.047010e-01
8.963175e-01	5.263158e+00	-2.991555e-01
8.562911e-01	5.263158e+00	-2.916579e-01
8.054250e-01	5.263158e+00	-2.817457e-01
7.470317e-01	5.263158e+00	-2.699633e-01
6.809074e-01	5.263158e+00	-2.559818e-01
6.100852e-01	5.263158e+00	-2.403847e-01
5.354138e-01	5.263158e+00	-2.229691e-01
4.593635e-01	5.263158e+00	-2.042585e-01
3.837764e-01	5.263158e+00	-1.841224e-01
3.103069e-01	5.263158e+00	-1.630077e-01
2.415927e-01	5.263158e+00	-1.409228e-01
1.782654e-01	5.263158e+00	-1.183331e-01
1.234349e-01	5.263158e+00	-9.558566e-02
7.662509e-02	5.263158e+00	-7.318920e-02
4.106998e-02	5.263158e+00	-5.193053e-02
1.528206e-02	5.263158e+00	-3.215886e-02
2.347037e-03	5.263158e+00	-1.488740e-02
0.000000e+00	5.263158e+00	0.000000e+00
1.064939e-02	5.263158e+00	1.066461e-02
3.126595e-02	5.263158e+00	1.703450e-02
6.375031e-02	5.263158e+00	1.787236e-02
1.050105e-01	5.263158e+00	1.417221e-02
1.560448e-01	5.263158e+00	4.777214e-03
2.137742e-01	5.263158e+00	-9.048270e-03
2.782849e-01	5.263158e+00	-2.799567e-02
3.468570e-01	5.263158e+00	-5.051783e-02
4.187060e-01	5.263158e+00	-7.662000e-02
4.916930e-01	5.263158e+00	-1.047585e-01
5.642168e-01	5.263158e+00	-1.343226e-01
6.348639e-01	5.263158e+00	-1.641238e-01
7.013280e-01	5.263158e+00	-1.931337e-01
7.630418e-01	5.263158e+00	-2.206893e-01
8.172084e-01	5.263158e+00	-2.454799e-01
8.641863e-01	5.263158e+00	-2.673591e-01
9.009752e-01	5.263158e+00	-2.848204e-01
9.288372e-01	5.263158e+00	-2.982085e-01
9.448555e-01	5.263158e+00	-3.059908e-01
9.510565e-01	5.263158e+00	-3.090170e-01
9.510565e-01	6.315789e+00	-3.090170e-01
9.442611e-01	6.315789e+00	-3.078203e-01
[...]
CELL_DATA 760
VECTORS V double
8.414231e-01	-6.903444e-02	-1.481715e-01
8.655439e-01	-6.886086e-02	-1.539856e-01
8.835588e-01	-6.841112e-02	-1.611253e-01
8.953244e-01	-6.761674e-02	-1.677080e-01
8.977891e-01	-6.645583e-02	-1.749511e-01
8.991012e-01	-6.491077e-02	-1.814174e-01
8.920631e-01	-6.297120e-02	-1.886201e-01
8.847523e-01	-6.061306e-02	-1.948482e-01
8.704178e-01	-5.780813e-02	-2.030077e-01
8.547775e-01	-5.452335e-02	-2.102999e-01
8.294723e-01	-5.073345e-02	-2.209687e-01
7.985500e-01	-4.642423e-02	-2.294984e-01
7.512003e-01	-4.162866e-02	-2.414370e-01
6.891751e-01	-3.639789e-02	-2.458382e-01
6.025232e-01	-3.076989e-02	-2.499678e-01
4.718457e-01	-2.486751e-02	-2.257577e-01
2.701334e-01	-1.869854e-02	-1.615147e-01
-1.744496e-02	-1.242938e-02	1.337510e-02
-4.218371e-01	-5.861283e-03	5.632570e-01
-3.427091e-01	7.195898e-04	2.173825e+00
2.327122e+00	8.433092e-03	2.330448e+00
2.541781e+00	1.519818e-02	7.853328e-01
2.210614e+00	2.214468e-02	5.701775e-02
1.925574e+00	2.899236e-02	-1.726823e-01
1.720220e+00	3.598196e-02	-3.166788e-01
1.570431e+00	4.294884e-02	-3.760988e-01
1.435574e+00	4.988713e-02	-4.216414e-01
1.336754e+00	5.661833e-02	-4.390502e-01
1.250653e+00	6.302431e-02	-4.543522e-01
1.181709e+00	6.890723e-02	-4.555815e-01
1.121878e+00	7.415155e-02	-4.573298e-01
1.071619e+00	7.862020e-02	-4.520433e-01
1.027478e+00	8.225122e-02	-4.484685e-01
9.872031e-01	8.503625e-02	-4.407928e-01
9.499813e-01	8.702700e-02	-4.347797e-01
9.115289e-01	8.832139e-02	-4.245307e-01
8.743615e-01	8.904772e-02	-4.150009e-01
8.341868e-01	8.935505e-02	-4.008420e-01
7.910582e-01	8.939902e-02	-3.843266e-01
7.483071e-01	8.935336e-02	-3.651810e-01
8.268579e-01	-4.834413e-02	-1.456066e-01
8.473459e-01	-4.821983e-02	-1.507481e-01
8.618085e-01	-4.790131e-02	-1.571590e-01
8.704948e-01	-4.733751e-02	-1.630570e-01
8.702462e-01	-4.650579e-02	-1.695838e-01
8.688620e-01	-4.538732e-02	-1.753158e-01
8.588627e-01	-4.397144e-02	-1.816002e-01
8.479950e-01	-4.224315e-02	-1.867531e-01
8.293246e-01	-4.018760e-02	-1.934236e-01
8.083350e-01	-3.778963e-02	-1.988737e-01
7.765472e-01	-3.501945e-02	-2.068696e-01
7.378871e-01	-3.192772e-02	-2.120642e-01
6.815821e-01	-2.849141e-02	-2.190616e-01
6.085293e-01	-2.476584e-02	-2.170707e-01
5.087282e-01	-2.077695e-02	-2.110552e-01
3.607253e-01	-1.660782e-02	-1.725914e-01
1.373148e-01	-1.226010e-02	-8.210156e-02
-1.815725e-01	-7.847420e-03	1.392121e-01
-6.032765e-01	-3.229803e-03	8.055235e-01
-4.198784e-01	1.389820e-03	2.663315e+00
2.682648e+00	6.790107e-03	2.686481e+00
2.844220e+00	1.150624e-02	8.787772e-01
2.433350e+00	1.632042e-02	6.276271e-02
2.097408e+00	2.102976e-02	-1.880921e-01
1.860542e+00	2.579285e-02	-3.425108e-01
1.689691e+00	3.049028e-02	-4.046603e-01
1.539099e+00	3.511612e-02	-4.520476e-01
1.427838e+00	3.955223e-02	-4.689663e-01
1.330742e+00	4.372705e-02	-4.834480e-01
1.251924e+00	4.753237e-02	-4.826511e-01
1.182685e+00	5.085816e-02	-4.821179e-01
1.123354e+00	5.367568e-02	-4.738667e-01
1.070406e+00	5.593513e-02	-4.672054e-01
1.021750e+00	5.764099e-02	-4.562183e-01
9.765973e-01	5.883445e-02	-4.469611e-01
9.307657e-01	5.958638e-02	-4.334900e-01
8.867530e-01	5.998515e-02	-4.208823e-01
8.402948e-01	6.013158e-02	-4.037770e-01
7.917018e-01	6.012796e-02	-3.846393e-01
7.448104e-01	6.008466e-02	-3.634746e-01
8.205620e-01	-2.041089e-02	-1.444980e-01
8.397204e-01	-2.035905e-02	-1.493914e-01
8.527032e-01	-2.022868e-02	-1.554985e-01
8.598617e-01	-1.999264e-02	-1.610653e-01
8.580706e-01	-1.963402e-02	-1.672112e-01
8.551037e-01	-1.913616e-02	-1.725397e-01
8.434801e-01	-1.848930e-02	-1.783476e-01
8.308759e-01	-1.768805e-02	-1.829830e-01
8.103156e-01	-1.670527e-02	-1.889901e-01
7.869236e-01	-1.558503e-02	-1.936059e-01
7.528566e-01	-1.431291e-02	-2.005585e-01
7.115595e-01	-1.290378e-02	-2.044978e-01
6.517334e-01	-1.134758e-02	-2.094682e-01
5.745742e-01	-9.680536e-03	-2.049585e-01
4.697841e-01	-7.912998e-03	-1.948986e-01
3.150300e-01	-6.076885e-03	-1.507282e-01
8.302650e-02	-4.169222e-03	-4.964216e-02
-2.483764e-01	-2.237929e-03	1.904309e-01
-6.768012e-01	-2.221557e-04	9.036974e-01
-4.509212e-01	1.786187e-03	2.860221e+00
2.823757e+00	4.115368e-03	2.827793e+00
2.961952e+00	6.123408e-03	9.151529e-01
2.517978e+00	8.136948e-03	6.494551e-02
2.160709e+00	1.006083e-02	-1.937688e-01
1.910367e+00	1.195133e-02	-3.516833e-01
1.730299e+00	1.375525e-02	-4.143852e-01
1.572796e+00	1.546722e-02	-4.619447e-01
1.456137e+00	1.704702e-02	-4.782610e-01
1.354662e+00	1.847715e-02	-4.921377e-01
1.271701e+00	1.974319e-02	-4.902757e-01
1.198799e+00	2.080843e-02	-4.886864e-01
1.136483e+00	2.166872e-02	-4.794050e-01
1.080552e+00	2.230556e-02	-4.716341e-01
1.029171e+00	2.277706e-02	-4.595315e-01
9.815348e-01	2.307913e-02	-4.492209e-01
9.334887e-01	2.324377e-02	-4.347581e-01
8.875243e-01	2.330623e-02	-4.212484e-01
8.394017e-01	2.330399e-02	-4.033478e-01
7.894766e-01	2.327352e-02	-3.835582e-01
7.416758e-01	2.324672e-02	-3.619449e-01
8.181583e-01	-1.021917e-02	-1.440747e-01
8.367431e-01	-1.019813e-02	-1.488618e-01
8.489708e-01	-1.014184e-02	-1.548179e-01
8.553569e-01	-1.003602e-02	-1.602215e-01
8.527778e-01	-9.870834e-03	-1.661798e-01
8.489722e-01	-9.622945e-03	-1.713025e-01
8.364791e-01	-9.310269e-03	-1.768673e-01
8.225809e-01	-8.912805e-03	-1.811562e-01
8.009498e-01	-8.439497e-03	-1.868057e-01
7.769265e-01	-7.875654e-03	-1.911463e-01
7.415022e-01	-7.236336e-03	-1.975337e-01
6.983695e-01	-6.498554e-03	-2.007071e-01
6.368078e-01	-5.693139e-03	-2.046711e-01
5.574954e-01	-4.817030e-03	-1.988662e-01
4.500816e-01	-3.882309e-03	-1.867246e-01
2.917821e-01	-2.906346e-03	-1.396051e-01
5.530939e-02	-1.892944e-03	-3.306990e-02
-2.825316e-01	-8.593191e-04	2.166178e-01
-7.143961e-01	2.208039e-04	9.538958e-01
-4.667553e-01	1.280914e-03	2.960657e+00
2.895328e+00	2.539485e-03	2.899465e+00
3.021199e+00	3.603103e-03	9.334585e-01
2.560187e+00	4.662119e-03	6.603418e-02
2.191934e+00	5.665585e-03	-1.965690e-01
1.934687e+00	6.645093e-03	-3.561605e-01
1.749907e+00	7.565081e-03	-4.190812e-01
1.588899e+00	8.429439e-03	-4.666742e-01
1.469542e+00	9.226427e-03	-4.826639e-01
1.365873e+00	9.934847e-03	-4.962105e-01
1.281340e+00	1.055377e-02	-4.939919e-01
1.206798e+00	1.109229e-02	-4.919472e-01
1.142496e+00	1.152367e-02	-4.819414e-01
1.085245e+00	1.186179e-02	-4.736823e-01
1.032970e+00	1.209997e-02	-4.612282e-01
9.842004e-01	1.226007e-02	-4.504408e-01
9.351554e-01	1.234107e-02	-4.355344e-01
8.883138e-01	1.238504e-02	-4.216231e-01
8.394628e-01	1.239525e-02	-4.033772e-01
7.889774e-01	1.238842e-02	-3.833157e-01
7.407065e-01	1.237975e-02	-3.614718e-01
8.170306e-01	-5.650807e-03	-1.438761e-01
8.351886e-01	-5.639686e-03	-1.485852e-01
8.470060e-01	-5.608191e-03	-1.544596e-01
8.529518e-01	-5.548819e-03	-1.597710e-01
8.496169e-01	-5.452640e-03	-1.655638e-01
8.453731e-01	-5.312363e-03	-1.705763e-01
8.324966e-01	-5.141023e-03	-1.760252e-01
8.184772e-01	-4.921430e-03	-1.802525e-01
7.963161e-01	-4.656555e-03	-1.857250e-01
7.711277e-01	-4.320835e-03	-1.897196e-01
7.348596e-01	-3.929987e-03	-1.957641e-01
6.909917e-01	-3.493800e-03	-1.985868e-01
6.283809e-01	-3.022429e-03	-2.019627e-01
5.476714e-01	-2.602051e-03	-1.953619e-01
4.386943e-01	-2.058666e-03	-1.820004e-01
2.783940e-01	-1.451292e-03	-1.331995e-01
3.931810e-02	-8.421104e-04	-2.350858e-02
-3.024372e-01	-2.227025e-04	2.318795e-01
-7.359911e-01	4.249209e-04	9.827305e-01
-4.759281e-01	1.069411e-03	3.018841e+00
2.937428e+00	1.812449e-03	2.941625e+00
3.055296e+00	2.447044e-03	9.439934e-01
2.584373e+00	3.075279e-03	6.665801e-02
2.209831e+00	3.665897e-03	-1.981740e-01
1.948463e+00	4.235388e-03	-3.586964e-01
1.760849e+00	4.758145e-03	-4.217016e-01
1.597929e+00	5.243470e-03	-4.693265e-01
1.476989e+00	5.787250e-03	-4.851098e-01
1.371954e+00	6.191516e-03	-4.984199e-01
1.286307e+00	6.529854e-03	-4.959068e-01
1.210945e+00	6.810734e-03	-4.936376e-01
1.146316e+00	7.040157e-03	-4.835530e-01
1.088274e+00	7.237629e-03	-4.750044e-01
1.034941e+00	7.380145e-03	-4.621081e-01
9.854712e-01	7.478260e-03	-4.510224e-01
9.358713e-01	7.526728e-03	-4.358678e-01
8.888575e-01	7.550063e-03	-4.218812e-01
8.396031e-01	7.556487e-03	-4.034446e-01
7.887826e-01	7.552652e-03	-3.832210e-01
7.403487e-01	7.548392e-03	-3.612972e-01
8.162920e-01	-3.274280e-03	-1.437460e-01
8.342299e-01	-3.267266e-03	-1.484146e-01
8.457766e-01	-3.248411e-03	-1.542354e-01
8.513822e-01	-3.212022e-03	-1.594769e-01
8.479447e-01	-3.150405e-03	-1.652380e-01
8.435687e-01	-3.097897e-03	-1.702122e-01
8.304315e-01	-2.980880e-03	-1.755886e-01
8.156813e-01	-2.837132e-03	-1.796367e-01
7.928382e-01	-2.653096e-03	-1.849138e-01
7.673870e-01	-2.420939e-03	-1.887993e-01
7.306928e-01	-2.181750e-03	-1.946541e-01
6.862722e-01	-1.956373e-03	-1.972304e-01
6.243842e-01	-1.642510e-03	-2.006781e-01
5.432432e-01	-1.424635e-03	-1.937823e-01
4.313982e-01	-1.060438e-03	-1.789735e-01
2.693438e-01	-6.827592e-04	-1.288693e-01
2.907162e-02	-2.867023e-04	-1.738214e-02
-3.149355e-01	1.077632e-04	2.414620e-01
-7.500800e-01	5.190648e-04	1.001543e+00
-4.817586e-01	9.425552e-04	3.055824e+00
2.962825e+00	1.396801e-03	2.967059e+00
3.076701e+00	1.798726e-03	9.506067e-01
2.599399e+00	2.194755e-03	6.704556e-02
2.220652e+00	2.563863e-03	-1.991444e-01
1.956571e+00	2.913339e-03	-3.601891e-01
1.767160e+00	3.239813e-03	-4.232130e-01
1.604541e+00	3.653282e-03	-4.712684e-01
1.482637e+00	3.902839e-03	-4.869648e-01
1.375543e+00	4.153043e-03	-4.997237e-01
1.289153e+00	4.371885e-03	-4.970041e-01
1.213188e+00	4.536796e-03	-4.945521e-01
1.147946e+00	4.642365e-03	-4.842405e-01
1.089799e+00	4.736846e-03	-4.756699e-01
1.036455e+00	4.811724e-03	-4.627840e-01
9.865952e-01	4.857711e-03	-4.515369e-01
9.365310e-01	4.919212e-03	-4.361750e-01
8.890413e-01	4.928310e-03	-4.219685e-01
8.396011e-01	4.930205e-03	-4.034436e-01
7.886067e-01	4.927257e-03	-3.831356e-01
7.400541e-01	4.924152e-03	-3.611535e-01
8.158534e-01	-2.025971e-03	-1.436688e-01
8.336718e-01	-2.021947e-03	-1.483153e-01
8.450603e-01	-2.011787e-03	-1.541048e-01
8.504410e-01	-1.993240e-03	-1.593007e-01
8.473406e-01	-1.963205e-03	-1.651203e-01
8.423793e-01	-2.007296e-03	-1.699723e-01
8.284667e-01	-1.885254e-03	-1.751732e-01
8.138047e-01	-1.780676e-03	-1.792234e-01
7.906952e-01	-1.681978e-03	-1.844140e-01
7.649411e-01	-1.541247e-03	-1.881975e-01
7.287846e-01	-1.385872e-03	-1.941458e-01
6.838220e-01	-1.216700e-03	-1.965262e-01
6.209437e-01	-1.019057e-03	-1.995723e-01
5.391155e-01	-7.416164e-04	-1.923098e-01
4.266202e-01	-5.061464e-04	-1.769912e-01
2.641512e-01	-2.987601e-04	-1.263849e-01
2.241539e-02	-5.520753e-05	-1.340233e-02
-3.230490e-01	1.671067e-04	2.476826e-01
-7.589650e-01	4.281218e-04	1.013406e+00
-4.854797e-01	6.867652e-04	3.079427e+00
2.979507e+00	9.834182e-04	2.983765e+00
3.090349e+00	1.234102e-03	9.548238e-01
2.608971e+00	1.505842e-03	6.729246e-02
2.227600e+00	1.734745e-03	-1.997675e-01
1.962016e+00	1.954666e-03	-3.611914e-01
1.773639e+00	2.167702e-03	-4.247647e-01
1.607859e+00	2.394046e-03	-4.722431e-01
1.483925e+00	2.466030e-03	-4.873878e-01
1.378065e+00	2.609490e-03	-5.006399e-01
1.291148e+00	2.744817e-03	-4.977730e-01
1.214334e+00	2.856790e-03	-4.950191e-01
1.148869e+00	2.946513e-03	-4.846300e-01
1.090539e+00	3.044486e-03	-4.759930e-01
1.036696e+00	3.109500e-03	-4.628916e-01
9.871725e-01	3.229916e-03	-4.518011e-01
9.372713e-01	3.221286e-03	-4.365199e-01
8.891290e-01	3.215267e-03	-4.220101e-01
8.395991e-01	3.212283e-03	-4.034427e-01
7.885030e-01	3.209024e-03	-3.830852e-01
7.398731e-01	3.206735e-03	-3.610651e-01
8.156166e-01	-1.124070e-03	-1.436271e-01
8.334042e-01	-1.121241e-03	-1.482677e-01
8.447701e-01	-1.112563e-03	-1.540519e-01
8.501408e-01	-1.121818e-03	-1.592444e-01
8.483648e-01	-1.102020e-03	-1.653198e-01
8.420367e-01	-1.051031e-03	-1.699031e-01
8.269596e-01	-1.010275e-03	-1.748545e-01
8.127974e-01	-9.822109e-04	-1.790016e-01
7.896009e-01	-9.897188e-04	-1.841588e-01
7.634998e-01	-9.100497e-04	-1.878429e-01
7.264506e-01	-8.074767e-04	-1.935240e-01
6.813866e-01	-6.528546e-04	-1.958263e-01
6.178130e-01	-5.733727e-04	-1.985661e-01
5.355810e-01	-3.392684e-04	-1.910490e-01
4.241527e-01	-2.495318e-04	-1.759675e-01
2.610844e-01	-1.223800e-04	-1.249176e-01
1.906016e-02	1.432459e-05	-1.139621e-02
-3.271814e-01	1.561630e-04	2.508509e-01
-7.644375e-01	3.053767e-04	1.020713e+00
-4.877657e-01	4.540455e-04	3.093928e+00
2.989617e+00	6.251378e-04	2.993890e+00
3.099874e+00	7.704713e-04	9.577667e-01
2.615363e+00	9.133000e-04	6.745732e-02
2.231760e+00	1.047026e-03	-2.001405e-01
1.965266e+00	1.175082e-03	-3.617898e-01
1.774713e+00	1.294347e-03	-4.250218e-01
1.608950e+00	1.320461e-03	-4.725634e-01
1.485658e+00	1.430470e-03	-4.879572e-01
1.379178e+00	1.536667e-03	-5.010442e-01
1.292273e+00	1.596433e-03	-4.982071e-01
1.215714e+00	1.664040e-03	-4.955818e-01
1.150337e+00	1.809136e-03	-4.852491e-01
1.091985e+00	1.829447e-03	-4.766240e-01
1.039078e+00	1.871001e-03	-4.639551e-01
9.885178e-01	1.882701e-03	-4.524168e-01
9.362547e-01	1.867800e-03	-4.360464e-01
8.888273e-01	1.870759e-03	-4.218669e-01
8.394127e-01	1.892444e-03	-4.033531e-01
7.883334e-01	1.888906e-03	-3.830028e-01
7.397036e-01	1.887339e-03	-3.609824e-01
8.153786e-01	-1.353281e-03	-1.435852e-01
8.329874e-01	-1.353336e-03	-1.481936e-01
8.451929e-01	-1.354011e-03	-1.541290e-01
8.500877e-01	-1.336222e-03	-1.592345e-01
8.458604e-01	-1.294817e-03	-1.648318e-01
8.408105e-01	-1.217618e-03	-1.696557e-01
8.274179e-01	-1.121495e-03	-1.749514e-01
8.135287e-01	-1.185303e-03	-1.791627e-01
7.897004e-01	-9.666285e-04	-1.841820e-01
7.625477e-01	-1.016778e-03	-1.876087e-01
7.254260e-01	-6.609882e-04	-1.932511e-01
6.806790e-01	-7.497962e-04	-1.956230e-01
6.166516e-01	-3.153102e-04	-1.981928e-01
5.341929e-01	-3.801138e-04	-1.905539e-01
4.231255e-01	7.808726e-05	-1.755414e-01
2.592995e-01	4.168769e-04	-1.240636e-01
1.647382e-02	6.114913e-04	-9.849820e-03
-3.304889e-01	6.585620e-04	2.533868e-01
-7.671906e-01	7.042032e-04	1.024390e+00
-4.889378e-01	7.631049e-04	3.101362e+00
2.995003e+00	8.419351e-04	2.999283e+00
3.103005e+00	9.191130e-04	9.587338e-01
2.617865e+00	9.837533e-04	6.752187e-02
2.234078e+00	1.094078e-03	-2.003484e-01
1.966974e+00	1.027332e-03	-3.621042e-01
1.776030e+00	8.434321e-04	-4.253374e-01
1.609984e+00	4.619602e-04	-4.728672e-01
1.486924e+00	6.219287e-04	-4.883727e-01
1.380218e+00	3.035689e-04	-5.014221e-01
1.292756e+00	4.321146e-04	-4.983932e-01
1.216991e+00	1.362714e-04	-4.961024e-01
1.151009e+00	2.860396e-04	-4.855324e-01
1.091355e+00	2.617692e-05	-4.763490e-01
1.037481e+00	8.147838e-05	-4.632421e-01
9.871495e-01	-1.365288e-04	-4.517905e-01
9.370191e-01	-7.885430e-05	-4.364024e-01
8.896365e-01	-9.331326e-05	-4.222510e-01
8.402975e-01	-9.927822e-05	-4.037783e-01
7.882351e-01	-9.417993e-05	-3.829551e-01
7.396331e-01	-9.309108e-05	-3.609480e-01
8.156258e-01	4.363202e-05	-1.436287e-01
8.334518e-01	2.595982e-05	-1.482762e-01
8.440849e-01	2.428622e-05	-1.539269e-01
8.485978e-01	4.555356e-05	-1.589554e-01
8.459152e-01	4.293453e-05	-1.648425e-01
8.390294e-01	4.143527e-05	-1.692963e-01
8.265818e-01	3.941572e-05	-1.747746e-01
8.104723e-01	3.960476e-05	-1.784896e-01
7.873990e-01	8.139357e-05	-1.836453e-01
7.594621e-01	6.891813e-05	-1.868495e-01
7.229249e-01	5.992814e-05	-1.925848e-01
6.769150e-01	2.608640e-05	-1.945412e-01
6.124501e-01	-1.230215e-06	-1.968425e-01
5.301035e-01	2.362415e-06	-1.890951e-01
4.110408e-01	3.418001e-05	-1.705278e-01
2.510102e-01	2.137800e-06	-1.200975e-01
1.352710e-02	5.617572e-06	-8.087951e-03
-3.295669e-01	8.200696e-06	2.526799e-01
-7.672483e-01	9.401787e-06	1.024467e+00
-4.892355e-01	9.593476e-06	3.103251e+00
2.997354e+00	9.099386e-06	3.001637e+00
3.106001e+00	8.242499e-06	9.596596e-01
2.621257e+00	6.919953e-06	6.760935e-02
2.232330e+00	4.780673e-06	-2.001917e-01
1.960017e+00	3.697525e-05	-3.608235e-01
1.764795e+00	3.345053e-05	-4.226466e-01
1.605989e+00	1.542381e-07	-4.716938e-01
1.483248e+00	5.301850e-05	-4.871655e-01
1.376818e+00	4.084819e-05	-5.001869e-01
1.290129e+00	2.942535e-05	-4.973803e-01
1.213858e+00	2.088734e-05	-4.948252e-01
1.149033e+00	-2.360635e-05	-4.846990e-01
1.089127e+00	-2.101194e-05	-4.753766e-01
1.036932e+00	-2.273097e-05	-4.629973e-01
9.856646e-01	-2.215217e-05	-4.511110e-01
9.371804e-01	-2.251604e-05	-4.364775e-01
8.883369e-01	-2.158690e-05	-4.216342e-01
8.393222e-01	-4.412608e-05	-4.033096e-01
7.886828e-01	-4.304136e-05	-3.831726e-01
7.398704e-01	-2.549882e-05	-3.610638e-01
8.183444e-01	1.466882e-03	-1.441075e-01
8.337072e-01	1.467014e-03	-1.483217e-01
8.443971e-01	1.468119e-03	-1.539838e-01
8.497006e-01	1.451799e-03	-1.591620e-01
8.459410e-01	1.412370e-03	-1.648475e-01
8.408717e-01	1.424666e-03	-1.696681e-01
8.274444e-01	1.284922e-03	-1.749570e-01
8.129140e-01	1.345748e-03	-1.790273e-01
7.893194e-01	1.076328e-03	-1.840931e-01
7.628292e-01	1.129090e-03	-1.876780e-01
7.259840e-01	7.810816e-04	-1.933997e-01
6.814966e-01	7.949568e-04	-1.958579e-01
6.169953e-01	3.644930e-04	-1.983033e-01
5.336863e-01	4.555124e-04	-1.903732e-01
4.230621e-01	-3.926336e-05	-1.755151e-01
2.598842e-01	-3.799410e-04	-1.243433e-01
1.634199e-02	-5.773668e-04	-9.770996e-03
-3.305917e-01	-6.027366e-04	2.534656e-01
-7.672347e-01	-6.540782e-04	1.024448e+00
-4.889358e-01	-7.479682e-04	3.101350e+00
2.994933e+00	-8.349285e-04	2.999213e+00
3.102905e+00	-8.904240e-04	9.587029e-01
2.617749e+00	-9.879339e-04	6.751887e-02
2.234923e+00	-1.103455e-03	-2.004242e-01
1.967488e+00	-1.042990e-03	-3.621987e-01
1.775366e+00	-8.326650e-04	-4.251782e-01
1.610344e+00	-4.891382e-04	-4.729728e-01
1.487460e+00	-6.582532e-04	-4.885487e-01
1.379910e+00	-3.529588e-04	-5.013103e-01
1.292504e+00	-4.162603e-04	-4.982961e-01
1.216329e+00	-1.352507e-04	-4.958327e-01
1.150463e+00	-2.341822e-04	-4.853022e-01
1.091368e+00	-2.222697e-05	-4.763549e-01
1.037463e+00	-1.234661e-04	-4.632341e-01
9.871539e-01	-1.433854e-05	-4.517925e-01
9.370274e-01	-4.807479e-05	-4.364062e-01
8.892120e-01	-2.247910e-05	-4.220495e-01
8.395077e-01	-1.394327e-05	-4.033988e-01
7.888523e-01	-1.841017e-05	-3.832549e-01
7.423197e-01	-1.938959e-05	-3.622591e-01
8.156037e-01	1.271137e-03	-1.436248e-01
8.333725e-01	1.285961e-03	-1.482621e-01
8.447005e-01	1.278963e-03	-1.540392e-01
8.500537e-01	1.273696e-03	-1.592281e-01
8.463643e-01	1.162932e-03	-1.649300e-01
8.413980e-01	1.139345e-03	-1.697742e-01
8.276460e-01	1.099405e-03	-1.749996e-01
8.135816e-01	1.040994e-03	-1.791743e-01
7.902358e-01	1.009406e-03	-1.843069e-01
7.633631e-01	9.240281e-04	-1.878093e-01
7.273220e-01	8.289773e-04	-1.937562e-01
6.823536e-01	7.524306e-04	-1.961042e-01
6.174023e-01	6.657982e-04	-1.984341e-01
5.356899e-01	5.107042e-04	-1.910879e-01
4.248158e-01	3.702028e-04	-1.762427e-01
2.611696e-01	2.574580e-04	-1.249583e-01
1.871728e-02	1.031944e-04	-1.119120e-02
-3.277050e-01	-5.296882e-05	2.512524e-01
-7.634798e-01	-2.147573e-04	1.019435e+00
-4.872420e-01	-3.747051e-04	3.090606e+00
2.990551e+00	-5.582186e-04	2.994824e+00
3.098891e+00	-7.140309e-04	9.574629e-01
2.614276e+00	-8.671573e-04	6.742928e-02
2.231472e+00	-1.009575e-03	-2.001147e-01
1.965729e+00	-1.180134e-03	-3.618750e-01
1.774444e+00	-1.304048e-03	-4.249574e-01
1.608257e+00	-1.418882e-03	-4.723599e-01
1.485348e+00	-1.555753e-03	-4.878554e-01
1.379879e+00	-1.646705e-03	-5.012989e-01
1.292904e+00	-1.717677e-03	-4.984501e-01
1.216160e+00	-1.777407e-03	-4.957638e-01
1.150398e+00	-1.861160e-03	-4.852750e-01
1.090733e+00	-1.891736e-03	-4.760778e-01
1.036899e+00	-1.907116e-03	-4.629825e-01
9.870202e-01	-1.925225e-03	-4.517314e-01
9.369275e-01	-1.943112e-03	-4.363597e-01
8.891646e-01	-1.859390e-03	-4.220270e-01
8.395214e-01	-1.869155e-03	-4.034053e-01
7.883759e-01	-1.868618e-03	-3.830235e-01
7.397204e-01	-1.885096e-03	-3.609906e-01
8.158565e-01	2.130067e-03	-1.436693e-01
8.336720e-01	2.125820e-03	-1.483154e-01
8.447935e-01	2.119461e-03	-1.540561e-01
8.529121e-01	2.020716e-03	-1.597635e-01
8.484787e-01	1.989076e-03	-1.653420e-01
8.419847e-01	1.953131e-03	-1.698926e-01
8.289706e-01	1.874557e-03	-1.752797e-01
8.141800e-01	1.780493e-03	-1.793061e-01
7.909094e-01	1.683176e-03	-1.844640e-01
7.651979e-01	1.539165e-03	-1.882607e-01
7.282290e-01	1.372046e-03	-1.939978e-01
6.836707e-01	1.269475e-03	-1.964827e-01
6.203264e-01	1.047889e-03	-1.993739e-01
5.380952e-01	8.386558e-04	-1.919459e-01