# vtk DataFile Version 2.0
OUTPUT by 3D-VPM
ASCII
DATASET UNSTRUCTURED_GRID
POINTS 820 double
9.510565e-01	0.000000e+00	-3.090170e-01
9.442611e-01	0.000000e+00	-3.078203e-01
9.267277e-01	0.000000e+00	-3.047010e-01
8.963175e-01	0.000000e+00	-2.991555e-01
8.562911e-01	0.000000e+00	-2.916579e-01
8.054250e-01	0.000000e+00	-2.817457e-01
7.470317e-01	0.000000e+00	-2.699633e-01
6.809074e-01	0.000000e+00	-2.559818e-01
6.100852e-01	0.000000e+00	-2.403847e-01
5.354138e-01	0.000000e+00	-2.229691e-01
4.593635e-01	0.000000e+00	-2.042585e-01
3.837764e-01	0.000000e+00	-1.841224e-01
3.103069e-01	0.000000e+00	-1.630077e-01
2.415927e-01	0.000000e+00	-1.409228e-01
1.782654e-01	0.000000e+00	-1.183331e-01
1.234349e-01	0.000000e+00	-9.558566e-02
7.662509e-02	0.000000e+00	-7.318920e-02
4.106998e-02	0.000000e+00	-5.193053e-02
1.528206e-02	0.000000e+00	-3.215886e-02
2.347037e-03	0.000000e+00	-1.488740e-02
0.000000e+00	0.000000e+00	0.000000e+00
1.064939e-02	0.000000e+00	1.066461e-02
3.126595e-02	0.000000e+00	1.703450e-02
6.375031e-02	0.000000e+00	1.787236e-02
1.050105e-01	0.000000e+00	1.417221e-02
1.560448e-01	0.000000e+00	4.777214e-03
2.137742e-01	0.000000e+00	-9.048270e-03
2.782849e-01	0.000000e+00	-2.799567e-02
3.468570e-01	0.000000e+00	-5.051783e-02
4.187060e-01	0.000000e+00	-7.662000e-02
4.916930e-01	0.000000e+00	-1.047585e-01
5.642168e-01	0.000000e+00	-1.343226e-01
6.348639e-01	0.000000e+00	-1.641238e-01
7.013280e-01	0.000000e+00	-1.931337e-01
7.630418e-01	0.000000e+00	-2.206893e-01
8.172084e-01	0.000000e+00	-2.454799e-01
8.641863e-01	0.000000e+00	-2.673591e-01
9.009752e-01	0.000000e+00	-2.848204e-01
9.288372e-01	0.000000e+00	-2.982085e-01
9.448555e-01	0.000000e+00	-3.059908e-01
9.510565e-01	0.000000e+00	-3.090170e-01
9.510565e-01	1.052632e+00	-3.090170e-01
9.442611e-01	1.052632e+00	-3.078203e-01
9.267277e-01	1.052632e+00	-3.047010e-01
8.963175e-01	1.052632e+00	-2.991555e-01
8.562911e-01	1.052632e+00	-2.916579e-01
8.054250e-01	1.052632e+00	-2.817457e-01
7.470317e-01	1.052632e+00	-2.699633e-01
6.809074e-01	1.052632e+00	-2.559818e-01
6.100852e-01	1.052632e+00	-2.403847e-01
5.354138e-01	1.052632e+00	-2.229691e-01
4.593635e-01	1.052632e+00	-2.042585e-01
3.837764e-01	1.052632e+00	-1.841224e-01
3.103069e-01	1.052632e+00	-1.630077e-01
2.415927e-01	1.052632e+00	-1.409228e-01
1.782654e-01	1.052632e+00	-1.183331e-01
1.234349e-01	1.052632e+00	-9.558566e-02
7.662509e-02	1.052632e+00	-7.318920e-02
4.106998e-02	1.052632e+00	-5.193053e-02
1.528206e-02	1.052632e+00	-3.215886e-02
2.347037e-03	1.052632e+00	-1.488740e-02
0.000000e+00	1.052632e+00	0.000000e+00
1.064939e-02	1.052632e+00	1.066461e-02
3.126595e-02	1.052632e+00	1.703450e-02
6.375031e-02	1.052632e+00	1.787236e-02
1.050105e-01	1.052632e+00	1.417221e-02
1.560448e-01	1.052632e+00	4.777214e-03
2.137742e-01	1.052632e+00	-9.048270e-03
2.782849e-01	1.052632e+00	-2.799567e-02
3.468570e-01	1.052632e+00	-5.051783e-02
4.187060e-01	1.052632e+00	-7.662000e-02
4.916930e-01	1.052632e+00	-1.047585e-01
5.642168e-01	1.052632e+00	-1.343226e-01
6.348639e-01	1.052632e+00	-1.641238e-01
7.013280e-01	1.052632e+00	-1.931337e-01
7.630418e-01	1.052632e+00	-2.206893e-01
8.172084e-01	1.052632e+00	-2.454799e-01
8.641863e-01	1.052632e+00	-2.673591e-01
9.009752e-01	1.052632e+00	-2.848204e-01
9.288372e-01	1.052632e+00	-2.982085e-01
9.448555e-01	1.052632e+00	-3.059908e-01
9.510565e-01	1.052632e+00	-3.090170e-01
9.510565e-01	2.105263e+00	-3.090170e-01
9.442611e-01	2.105263e+00	-3.078203e-01
9.267277e-01	2.105263e+00	-3.047010e-01
8.963175e-01	2.105263e+00	-2.991555e-01
8.562911e-01	2.105263e+00	-2.916579e-01
8.054250e-01	2.105263e+00	-2.817457e-01
7.470317e-01	2.105263e+00	-2.699633e-01
6.809074e-01	2.105263e+00	-2.559818e-01
6.100852e-01	2.105263e+00	-2.403847e-01
5.354138e-01	2.105263e+00	-2.229691e-01
4.593635e-01	2.105263e+00	-2.042585e-01
3.837764e-01	2.105263e+00	-1.841224e-01
3.103069e-01	2.105263e+00	-1.630077e-01
2.415927e-01	2.105263e+00	-1.409228e-01
1.782654e-01	2.105263e+00	-1.183331e-01
1.234349e-01	2.105263e+00	-9.558566e-02
7.662509e-02	2.105263e+00	-7.318920e-02
4.106998e-02	2.105263e+00	-5.193053e-02
1.528206e-02	2.105263e+00	-3.215886e-02
2.347037e-03	2.105263e+00	-1.488740e-02
0.000000e+00	2.105263e+00	0.000000e+00
1.064939e-02	2.105263e+00	1.066461e-02
3.126595e-02	2.105263e+00	1.703450e-02
6.375031e-02	2.105263e+00	1.787236e-02
1.050105e-01	2.105263e+00	1.417221e-02
1.560448e-01	2.105263e+00	4.777214e-03
2.137742e-01	2.105263e+00	-9.048270e-03
2.782849e-01	2.105263e+00	-2.799567e-02
3.468570e-01	2.105263e+00	-5.051783e-02
4.187060e-01	2.105263e+00	-7.662000e-02
4.916930e-01	2.105263e+00	-1.047585e-01
5.642168e-01	2.105263e+00	-1.343226e-01
6.348639e-01	2.105263e+00	-1.641238e-01
7.013280e-01	2.105263e+00	-1.931337e-01
7.630418e-01	2.105263e+00	-2.206893e-01
8.172084e-01	2.105263e+00	-2.454799e-01
8.641863e-01	2.105263e+00	-2.673591e-01
9.009752e-01	2.105263e+00	-2.848204e-01
9.288372e-01	2.105263e+00	-2.982085e-01
9.448555e-01	2.105263e+00	-3.059908e-01
9.510565e-01	2.105263e+00	-3.090170e-01
9.510565e-01	3.157895e+00	-3.090170e-01
9.442611e-01	3.157895e+00	-3.078203e-01
9.267277e-01	3.157895e+00	-3.047010e-01
8.963175e-01	3.157895e+00	-2.991555e-01
8.562911e-01	3.157895e+00	-2.916579e-01
8.054250e-01	3.157895e+00	-2.817457e-01
7.470317e-01	3.157895e+00	-2.699633e-01
6.809074e-01	3.157895e+00	-2.559818e-01
6.100852e-01	3.157895e+00	-2.403847e-01
5.354138e-01	3.157895e+00	-2.229691e-01
4.593635e-01	3.157895e+00	-2.042585e-01
3.837764e-01	3.157895e+00	-1.841224e-01
3.103069e-01	3.157895e+00	-1.630077e-01
2.415927e-01	3.157895e+00	-1.409228e-01
1.782654e-01	3.157895e+00	-1.183331e-01
1.234349e-01	3.157895e+00	-9.558566e-02
7.662509e-02	3.157895e+00	-7.318920e-02
4.106998e-02	3.157895e+00	-5.193053e-02
1.528206e-02	3.157895e+00	-3.215886e-02
2.347037e-03	3.157895e+00	-1.488740e-02
0.000000e+00	3.157895e+00	0.000000e+00
1.064939e-02	3.157895e+00	1.066461e-02
3.126595e-02	3.157895e+00	1.703450e-02
6.375031e-02	3.157895e+00	1.787236e-02
1.050105e-01	3.157895e+00	1.417221e-02
1.560448e-01	3.157895e+00	4.777214e-03
2.137742e-01	3.157895e+00	-9.048270e-03
2.782849e-01	3.157895e+00	-2.799567e-02
3.468570e-01	3.157895e+00	-5.051783e-02
4.187060e-01	3.157895e+00	-7.662000e-02
4.916930e-01	3.157895e+00	-1.047585e-01
5.642168e-01	3.157895e+00	-1.343226e-01
6.348639e-01	3.157895e+00	-1.641238e-01
7.013280e-01	3.157895e+00	-1.931337e-01
7.630418e-01	3.157895e+00	-2.206893e-01
8.172084e-01	3.157895e+00	-2.454799e-01
8.641863e-01	3.157895e+00	-2.673591e-01
9.009752e-01	3.157895e+00	-2.848204e-01
9.288372e-01	3.157895e+00	-2.982085e-01
9.448555e-01	3.157895e+00	-3.059908e-01
9.510565e-01	3.157895e+00	-3.090170e-01
9.510565e-01	4.210526e+00	-3.090170e-01
9.442611e-01	4.210526e+00	-3.078203e-01
9.267277e-01	4.210526e+00	-3.047010e-01
8.963175e-01	4.210526e+00	-2.991555e-01
8.562911e-01	4.210526e+00	-2.916579e-01
8.054250e-01	4.210526e+00	-2.817457e-01
7.470317e-01	4.210526e+00	-2.699633e-01
6.809074e-01	4.210526e+00	-2.559818e-01
6.100852e-01	4.210526e+00	-2.403847e-01
5.354138e-01	4.210526e+00	-2.229691e-01
4.593635e-01	4.210526e+00	-2.042585e-01
3.837764e-01	4.210526e+00	-1.841224e-01
3.103069e-01	4.210526e+00	-1.630077e-01
2.415927e-01	4.210526e+00	-1.409228e-01
1.782654e-01	4.210526e+00	-1.183331e-01
1.234349e-01	4.210526e+00	-9.558566e-02
7.662509e-02	4.210526e+00	-7.318920e-02
4.106998e-02	4.210526e+00	-5.193053e-02
1.528206e-02	4.210526e+00	-3.215886e-02
2.347037e-03	4.210526e+00	-1.488740e-02
0.000000e+00	4.210526e+00	0.000000e+00
1.064939e-02	4.210526e+00	1.066461e-02
3.126595e-02	4.210526e+00	1.703450e-02
6.375031e-02	4.210526e+00	1.787236e-02
1.050105e-01	4.210526e+00	1.417221e-02
1.560448e-01	4.210526e+00	4.777214e-03
2.137742e-01	4.210526e+00	-9.048270e-03
2.782849e-01	4.210526e+00	-2.799567e-02
3.468570e-01	4.210526e+00	-5.051783e-02
4.187060e-01	4.210526e+00	-7.662000e-02
4.916930e-01	4.210526e+00	-1.047585e-01
5.642168e-01	4.210526e+00	-1.343226e-01
6.348639e-01	4.210526e+00	-1.641238e-01
7.013280e-01	4.210526e+00	-1.931337e-01
7.630418e-01	4.210526e+00	-2.206893e-01
8.172084e-01	4.210526e+00	-2.454799e-01
8.641863e-01	4.210526e+00	-2.673591e-01
9.009752e-01	4.210526e+00	-2.848204e-01
9.288372e-01	4.210526e+00	-2.982085e-01
9.448555e-01	4.210526e+00	-3.059908e-01
9.510565e-01	4.210526e+00	-3.090170e-01
9.510565e-01	5.263158e+00	-3.090170e-01
9.442611e-01	5.263158e+00	-3.078203e-01
9.267277e-01	5.263158e+00	-3.047010e-01
8.963175e-01	5.263158e+00	-2.991555e-01
8.562911e-01	5.263158e+00	-2.916579e-01
8.054250e-01	5.263158e+00	-2.817457e-01
7.470317e-01	5.263158e+00	-2.699633e-01
6.809074e-01	5.263158e+00	-2.559818e-01
6.100852e-01	5.263158e+00	-2.403847e-01
5.354138e-01	5.263158e+00	-2.229691e-01
4.593635e-01	5.263158e+00	-2.042585e-01
3.837764e-01	5.263158e+00	-1.841224e-01
3.103069e-01	5.263158e+00	-1.630077e-01
2.415927e-01	5.263158e+00	-1.409228e-01
1.782654e-01	5.263158e+00	-1.183331e-01
1.234349e-01	5.263158e+00	-9.558566e-02
7.662509e-02	5.263158e+00	-7.318920e-02
4.106998e-02	5.263158e+00	-5.193053e-02
1.528206e-02	5.263158e+00	-3.215886e-02
2.347037e-03	5.263158e+00	-1.488740e-02
0.000000e+00	5.263158e+00	0.000000e+00
1.064939e-02	5.263158e+00	1.066461e-02
3.126595e-02	5.263158e+00	1.703450e-02
6.375031e-02	5.263158e+00	1.787236e-02
1.050105e-01	5.263158e+00	1.417221e-02
1.560448e-01	5.263158e+00	4.777214e-03
2.137742e-01	5.263158e+00	-9.048270e-03
2.782849e-01	5.263158e+00	-2.799567e-02
3.468570e-01	5.263158e+00	-5.051783e-02
4.187060e-01	5.263158e+00	-7.662000e-02
4.916930e-01	5.263158e+00	-1.047585e-01
5.642168e-01	5.263158e+00	-1.343226e-01
6.348639e-01	5.263158e+00	-1.641238e-01
7.013280e-01	5.263158e+00	-1.931337e-01
7.630418e-01	5.263158e+00	-2.206893e-01
8.172084e-01	5.263158e+00	-2.454799e-01
8.641863e-01	5.263158e+00	-2.673591e-01
9.009752e-01	5.263158e+00	-2.848204e-01
9.288372e-01	5.263158e+00	-2.982085e-01
9.448555e-01	5.263158e+00	-3.059908e-01
9.510565e-01	5.263158e+00	-3.090170e-01
9.510565e-01	6.315789e+00	-3.090170e-01
9.442611e-01	6.315789e+00	-3.078203e-01
[...]
CELL_DATA 760
VECTORS V double
8.414223e-01	-6.903539e-02	-1.481714e-01
8.655430e-01	-6.886181e-02	-1.539854e-01
8.835575e-01	-6.841205e-02	-1.611251e-01
8.953228e-01	-6.761764e-02	-1.677077e-01
8.977870e-01	-6.645671e-02	-1.749507e-01
8.990988e-01	-6.491161e-02	-1.814169e-01
8.920602e-01	-6.297200e-02	-1.886195e-01
8.847488e-01	-6.061384e-02	-1.948474e-01
8.704137e-01	-5.780865e-02	-2.030068e-01
8.547727e-01	-5.452381e-02	-2.102987e-01
8.294666e-01	-5.073385e-02	-2.209671e-01
7.985435e-01	-4.642454e-02	-2.294965e-01
7.511926e-01	-4.162887e-02	-2.414345e-01
6.891661e-01	-3.639800e-02	-2.458349e-01
6.025126e-01	-3.076988e-02	-2.499634e-01
4.718318e-01	-2.486736e-02	-2.257511e-01
2.701162e-01	-1.869842e-02	-1.615045e-01
-1.746413e-02	-1.242912e-02	1.338980e-02
-4.218582e-01	-5.860891e-03	5.632853e-01
-3.427178e-01	7.201170e-04	2.173880e+00
2.327160e+00	8.433772e-03	2.330486e+00
2.541811e+00	1.519899e-02	7.853422e-01
2.210634e+00	2.214564e-02	5.701827e-02
1.925585e+00	2.899345e-02	-1.726833e-01
1.720229e+00	3.598341e-02	-3.166803e-01
1.570438e+00	4.295044e-02	-3.761006e-01
1.435580e+00	4.988887e-02	-4.216430e-01
1.336758e+00	5.662022e-02	-4.390516e-01
1.250656e+00	6.302633e-02	-4.543534e-01
1.181712e+00	6.890934e-02	-4.555825e-01
1.121880e+00	7.415376e-02	-4.573306e-01
1.071620e+00	7.862247e-02	-4.520439e-01
1.027479e+00	8.225327e-02	-4.484690e-01
9.872040e-01	8.503836e-02	-4.407932e-01
9.499819e-01	8.702912e-02	-4.347800e-01
9.115291e-01	8.832354e-02	-4.245308e-01
8.743615e-01	8.904987e-02	-4.150010e-01
8.341867e-01	8.935720e-02	-4.008419e-01
7.910580e-01	8.940117e-02	-3.843265e-01
7.483067e-01	8.935551e-02	-3.651808e-01
8.268566e-01	-4.834471e-02	-1.456064e-01
8.473442e-01	-4.822040e-02	-1.507478e-01
8.618066e-01	-4.790187e-02	-1.571586e-01
8.704924e-01	-4.733805e-02	-1.630566e-01
8.702435e-01	-4.650631e-02	-1.695833e-01
8.688588e-01	-4.538781e-02	-1.753152e-01
8.588594e-01	-4.397189e-02	-1.815995e-01
8.479894e-01	-4.224354e-02	-1.867519e-01
8.293185e-01	-4.018795e-02	-1.934221e-01
8.083294e-01	-3.778992e-02	-1.988723e-01
7.765405e-01	-3.501969e-02	-2.068678e-01
7.378792e-01	-3.192774e-02	-2.120619e-01
6.815730e-01	-2.849140e-02	-2.190587e-01
6.085187e-01	-2.476578e-02	-2.170669e-01
5.087155e-01	-2.077682e-02	-2.110500e-01
3.607103e-01	-1.660760e-02	-1.725842e-01
1.372966e-01	-1.225987e-02	-8.209068e-02
-1.815952e-01	-7.847087e-03	1.392296e-01
-6.033012e-01	-3.229374e-03	8.055566e-01
-4.198887e-01	1.390350e-03	2.663380e+00
2.682693e+00	6.790752e-03	2.686527e+00
2.844256e+00	1.150698e-02	8.787884e-01
2.433375e+00	1.632127e-02	6.276335e-02
2.097425e+00	2.103071e-02	-1.880937e-01
1.860555e+00	2.579400e-02	-3.425132e-01
1.689701e+00	3.049151e-02	-4.046627e-01
1.539107e+00	3.511744e-02	-4.520499e-01
1.427844e+00	3.955364e-02	-4.689683e-01
1.330747e+00	4.372828e-02	-4.834497e-01
1.251928e+00	4.753370e-02	-4.826526e-01
1.182688e+00	5.085957e-02	-4.821191e-01
1.123354e+00	5.367713e-02	-4.738669e-01
1.070406e+00	5.593665e-02	-4.672053e-01
1.021752e+00	5.764253e-02	-4.562190e-01
9.765981e-01	5.883601e-02	-4.469615e-01
9.307663e-01	5.958794e-02	-4.334902e-01
8.867531e-01	5.998672e-02	-4.208824e-01
8.402947e-01	6.013314e-02	-4.037769e-01
7.917014e-01	6.012952e-02	-3.846391e-01
7.448098e-01	6.008621e-02	-3.634743e-01
8.205604e-01	-2.041114e-02	-1.444977e-01
8.397185e-01	-2.035930e-02	-1.493911e-01
8.527009e-01	-2.022892e-02	-1.554981e-01
8.598589e-01	-1.999288e-02	-1.610648e-01
8.580674e-01	-1.963424e-02	-1.672106e-01
8.551000e-01	-1.913635e-02	-1.725390e-01
8.434757e-01	-1.848945e-02	-1.783467e-01
8.308709e-01	-1.768821e-02	-1.829819e-01
8.103102e-01	-1.670548e-02	-1.889888e-01
7.869175e-01	-1.558519e-02	-1.936044e-01
7.528475e-01	-1.431303e-02	-2.005560e-01
7.115495e-01	-1.290383e-02	-2.044949e-01
6.517245e-01	-1.134759e-02	-2.094653e-01
5.745634e-01	-9.680509e-03	-2.049546e-01
4.697710e-01	-7.912675e-03	-1.948931e-01
3.150140e-01	-6.076544e-03	-1.507205e-01
8.300706e-02	-4.168850e-03	-4.963054e-02
-2.484005e-01	-2.237513e-03	1.904494e-01
-6.768278e-01	-2.216788e-04	9.037328e-01
-4.509323e-01	1.786729e-03	2.860291e+00
2.823806e+00	4.115986e-03	2.827842e+00
2.961991e+00	6.124091e-03	9.151650e-01
2.518005e+00	8.137694e-03	6.494621e-02
2.160728e+00	1.006165e-02	-1.937705e-01
1.910381e+00	1.195221e-02	-3.516858e-01
1.730309e+00	1.375581e-02	-4.143877e-01
1.572804e+00	1.546786e-02	-4.619471e-01
1.456140e+00	1.704773e-02	-4.782619e-01
1.354664e+00	1.847791e-02	-4.921385e-01
1.271705e+00	1.974398e-02	-4.902775e-01
1.198802e+00	2.080926e-02	-4.886878e-01
1.136486e+00	2.166957e-02	-4.794062e-01
1.080554e+00	2.230659e-02	-4.716350e-01
1.029172e+00	2.277818e-02	-4.595321e-01
9.815358e-01	2.308026e-02	-4.492213e-01
9.334892e-01	2.324489e-02	-4.347584e-01
8.875244e-01	2.330735e-02	-4.212485e-01
8.394014e-01	2.330511e-02	-4.033477e-01
7.894760e-01	2.327464e-02	-3.835579e-01
7.416750e-01	2.324784e-02	-3.619445e-01
8.181566e-01	-1.021966e-02	-1.440744e-01
8.367415e-01	-1.019862e-02	-1.488615e-01
8.489685e-01	-1.014233e-02	-1.548175e-01
8.553539e-01	-1.003651e-02	-1.602209e-01
8.527743e-01	-9.871315e-03	-1.661791e-01
8.489679e-01	-9.623408e-03	-1.713017e-01
8.364752e-01	-9.310709e-03	-1.768665e-01
8.225762e-01	-8.913227e-03	-1.811552e-01
8.009435e-01	-8.439871e-03	-1.868043e-01
7.769196e-01	-7.875958e-03	-1.911446e-01
7.414941e-01	-7.236540e-03	-1.975316e-01
6.983602e-01	-6.498935e-03	-2.007044e-01
6.367977e-01	-5.693385e-03	-2.046678e-01
5.574800e-01	-4.817160e-03	-1.988607e-01
4.500635e-01	-3.882313e-03	-1.867171e-01
2.917661e-01	-2.906284e-03	-1.395974e-01
5.528962e-02	-1.892464e-03	-3.305808e-02
-2.825569e-01	-8.589203e-04	2.166372e-01
-7.144243e-01	2.208127e-04	9.539335e-01
-4.667672e-01	1.295502e-03	2.960732e+00
2.895380e+00	2.537669e-03	2.899518e+00
3.021241e+00	3.602438e-03	9.334715e-01
2.560216e+00	4.662093e-03	6.603494e-02
2.191955e+00	5.665510e-03	-1.965709e-01
1.934695e+00	6.645361e-03	-3.561618e-01
1.749914e+00	7.565576e-03	-4.190827e-01
1.588909e+00	8.430071e-03	-4.666772e-01
1.469550e+00	9.227191e-03	-4.826664e-01
1.365878e+00	9.935964e-03	-4.962126e-01
1.281345e+00	1.055511e-02	-4.939937e-01
1.206802e+00	1.109366e-02	-4.919488e-01
1.142499e+00	1.152506e-02	-4.819426e-01
1.085249e+00	1.186319e-02	-4.736838e-01
1.032973e+00	1.210139e-02	-4.612295e-01
9.842013e-01	1.226149e-02	-4.504412e-01
9.351558e-01	1.234249e-02	-4.355346e-01
8.883138e-01	1.238646e-02	-4.216232e-01
8.394627e-01	1.239666e-02	-4.033771e-01
7.889772e-01	1.238984e-02	-3.833156e-01
7.407056e-01	1.238117e-02	-3.614714e-01
8.170290e-01	-5.651794e-03	-1.438758e-01
8.351866e-01	-5.640675e-03	-1.485848e-01
8.470036e-01	-5.609171e-03	-1.544591e-01
8.529488e-01	-5.549799e-03	-1.597704e-01
8.496132e-01	-5.453615e-03	-1.655631e-01
8.453688e-01	-5.313330e-03	-1.705755e-01
8.324915e-01	-5.141982e-03	-1.760242e-01
8.184712e-01	-4.922297e-03	-1.802511e-01
7.963091e-01	-4.657388e-03	-1.857234e-01
7.711194e-01	-4.321606e-03	-1.897176e-01
7.348514e-01	-3.930708e-03	-1.957620e-01
6.909823e-01	-3.494400e-03	-1.985841e-01
6.283686e-01	-3.022892e-03	-2.019587e-01
5.476570e-01	-2.602558e-03	-1.953567e-01
4.386780e-01	-2.059258e-03	-1.819936e-01
2.783697e-01	-1.451688e-03	-1.331878e-01
3.929021e-02	-8.422919e-04	-2.349191e-02
-3.024505e-01	-2.227335e-04	2.318897e-01
-7.363248e-01	4.250346e-04	9.831761e-01
-4.759787e-01	1.069662e-03	3.019162e+00
2.936872e+00	1.812857e-03	2.941069e+00
3.055410e+00	2.447587e-03	9.440284e-01
2.584415e+00	3.075962e-03	6.665910e-02
2.209859e+00	3.666706e-03	-1.981765e-01
1.948488e+00	4.236293e-03	-3.587010e-01
1.760866e+00	4.759537e-03	-4.217056e-01
1.597942e+00	5.245247e-03	-4.693302e-01
1.476999e+00	5.789080e-03	-4.851130e-01
1.371964e+00	6.193394e-03	-4.984235e-01
1.286315e+00	6.531803e-03	-4.959098e-01
1.210949e+00	6.812713e-03	-4.936393e-01
1.146320e+00	7.042161e-03	-4.835544e-01
1.088276e+00	7.239657e-03	-4.750054e-01
1.034943e+00	7.382086e-03	-4.621088e-01
9.854722e-01	7.480213e-03	-4.510229e-01
9.358717e-01	7.528685e-03	-4.358680e-01
8.888576e-01	7.552021e-03	-4.218813e-01
8.396028e-01	7.558445e-03	-4.034444e-01
7.887820e-01	7.554601e-03	-3.832207e-01
7.403478e-01	7.550342e-03	-3.612968e-01
8.162904e-01	-3.262988e-03	-1.437458e-01
8.342277e-01	-3.269966e-03	-1.484143e-01
8.457740e-01	-3.250712e-03	-1.542349e-01
8.513790e-01	-3.214249e-03	-1.594764e-01
8.479409e-01	-3.152586e-03	-1.652372e-01
8.435641e-01	-3.100033e-03	-1.702113e-01
8.304260e-01	-2.982956e-03	-1.755874e-01
8.156748e-01	-2.839134e-03	-1.796353e-01
7.928306e-01	-2.655002e-03	-1.849121e-01
7.673787e-01	-2.422735e-03	-1.887972e-01
7.306825e-01	-2.183431e-03	-1.946514e-01
6.862596e-01	-1.957792e-03	-1.972268e-01
6.243727e-01	-1.643761e-03	-2.006744e-01
5.432297e-01	-1.425677e-03	-1.937774e-01
4.313786e-01	-1.061256e-03	-1.789653e-01
2.693203e-01	-6.836227e-04	-1.288581e-01
2.904391e-02	-2.879083e-04	-1.736557e-02
-3.149685e-01	1.070448e-04	2.414872e-01
-7.501160e-01	5.191301e-04	1.001591e+00
-4.817736e-01	9.284076e-04	3.055919e+00
2.962892e+00	1.399464e-03	2.967126e+00
3.076755e+00	1.800576e-03	9.506234e-01
2.599437e+00	2.196294e-03	6.704654e-02
2.220678e+00	2.566148e-03	-1.991467e-01
1.956591e+00	2.916001e-03	-3.601927e-01
1.767181e+00	3.242482e-03	-4.232181e-01
1.604557e+00	3.656044e-03	-4.712733e-01
1.482646e+00	3.905700e-03	-4.869678e-01
1.375550e+00	4.156019e-03	-4.997263e-01
1.289159e+00	4.374785e-03	-4.970064e-01
1.213193e+00	4.539804e-03	-4.945540e-01
1.147950e+00	4.645455e-03	-4.842420e-01
1.089801e+00	4.739997e-03	-4.756711e-01
1.036457e+00	4.814922e-03	-4.627848e-01
9.865964e-01	4.860937e-03	-4.515374e-01
9.365315e-01	4.922451e-03	-4.361753e-01
8.890414e-01	4.931539e-03	-4.219685e-01
8.396007e-01	4.933380e-03	-4.034434e-01
7.886059e-01	4.930043e-03	-3.831352e-01
7.400534e-01	4.940937e-03	-3.611531e-01
8.182001e-01	-2.031620e-03	-1.440820e-01
8.341230e-01	-2.027588e-03	-1.483956e-01
8.450442e-01	-2.017409e-03	-1.541018e-01
8.504351e-01	-1.998815e-03	-1.592995e-01
8.473351e-01	-1.968702e-03	-1.651192e-01
8.423731e-01	-2.012674e-03	-1.699710e-01
8.284596e-01	-1.890466e-03	-1.751716e-01
8.137963e-01	-1.785676e-03	-1.792216e-01
7.906855e-01	-1.686710e-03	-1.844118e-01
7.649298e-01	-1.545663e-03	-1.881947e-01
7.287715e-01	-1.389886e-03	-1.941423e-01
6.838068e-01	-1.220346e-03	-1.965219e-01
6.209261e-01	-1.022267e-03	-1.995667e-01
5.390946e-01	-7.441425e-04	-1.923024e-01
4.266007e-01	-5.083122e-04	-1.769832e-01
2.641335e-01	-3.003874e-04	-1.263764e-01
2.238647e-02	-5.633643e-05	-1.338504e-02
-3.230937e-01	1.665488e-04	2.477169e-01
-7.590127e-01	4.281449e-04	1.013470e+00
-4.854992e-01	6.873638e-04	3.079551e+00
2.979593e+00	9.846789e-04	2.983851e+00
3.090418e+00	1.235930e-03	9.548449e-01
2.609033e+00	1.508225e-03	6.729406e-02
2.227655e+00	1.737657e-03	-1.997724e-01
1.962048e+00	1.958143e-03	-3.611974e-01
1.773658e+00	2.171895e-03	-4.247692e-01
1.607875e+00	2.398386e-03	-4.722476e-01
1.483938e+00	2.470810e-03	-4.873920e-01
1.378075e+00	2.614682e-03	-5.006436e-01
1.291156e+00	2.750368e-03	-4.977762e-01
1.214340e+00	2.862651e-03	-4.950218e-01
1.148875e+00	2.952628e-03	-4.846322e-01
1.090543e+00	3.050802e-03	-4.759947e-01
1.036698e+00	3.115969e-03	-4.628928e-01
9.871742e-01	3.236488e-03	-4.518018e-01
9.372719e-01	3.227927e-03	-4.365201e-01
8.891278e-01	3.221947e-03	-4.220095e-01
8.395872e-01	3.218980e-03	-4.034370e-01
7.889173e-01	3.215729e-03	-3.832865e-01
7.420162e-01	3.213439e-03	-3.621110e-01
8.156138e-01	-1.153270e-03	-1.436266e-01
8.334004e-01	-1.136380e-03	-1.482671e-01
8.447651e-01	-1.127931e-03	-1.540510e-01
8.501344e-01	-1.136955e-03	-1.592432e-01
8.483569e-01	-1.116757e-03	-1.653183e-01
8.420272e-01	-1.065224e-03	-1.699012e-01
8.269482e-01	-1.023793e-03	-1.748521e-01
8.127841e-01	-9.949417e-04	-1.789987e-01
7.895855e-01	-1.001560e-03	-1.841552e-01
7.634821e-01	-9.209231e-04	-1.878386e-01
7.264302e-01	-8.173048e-04	-1.935186e-01
6.813632e-01	-6.616337e-04	-1.958196e-01
6.177860e-01	-5.809956e-04	-1.985574e-01
5.355517e-01	-3.457306e-04	-1.910386e-01
4.241186e-01	-2.548634e-04	-1.759534e-01
2.610417e-01	-1.259086e-04	-1.248971e-01
1.900976e-02	1.222379e-05	-1.136608e-02
-3.272439e-01	1.551564e-04	2.508988e-01
-7.645055e-01	3.055317e-04	1.020804e+00
-4.877941e-01	4.553744e-04	3.094108e+00
2.989744e+00	6.278352e-04	2.994017e+00
3.099978e+00	7.743532e-04	9.577986e-01
2.615436e+00	9.183857e-04	6.745920e-02
2.231813e+00	1.052882e-03	-2.001453e-01
1.965312e+00	1.181260e-03	-3.617982e-01
1.774748e+00	1.301711e-03	-4.250303e-01
1.608975e+00	1.328969e-03	-4.725709e-01
1.485679e+00	1.439992e-03	-4.879641e-01
1.379195e+00	1.547196e-03	-5.010505e-01
1.292288e+00	1.607747e-03	-4.982126e-01
1.215725e+00	1.676016e-03	-4.955865e-01
1.150346e+00	1.821650e-03	-4.852531e-01
1.091992e+00	1.842365e-03	-4.766272e-01
1.039083e+00	1.884205e-03	-4.639575e-01
9.885218e-01	1.896084e-03	-4.524186e-01
9.362572e-01	1.881278e-03	-4.360476e-01
8.888286e-01	1.884270e-03	-4.218675e-01
8.394131e-01	1.905980e-03	-4.033533e-01
7.883331e-01	1.902784e-03	-3.830027e-01
7.397027e-01	1.887180e-03	-3.609820e-01
8.153655e-01	-1.386272e-03	-1.435829e-01
8.329714e-01	-1.386328e-03	-1.481908e-01
8.451738e-01	-1.386979e-03	-1.541255e-01
8.500656e-01	-1.369049e-03	-1.592303e-01
8.458356e-01	-1.327274e-03	-1.648270e-01
8.407831e-01	-1.249376e-03	-1.696502e-01
8.273882e-01	-1.152173e-03	-1.749451e-01
8.134964e-01	-1.214494e-03	-1.791556e-01
7.896656e-01	-9.939906e-04	-1.841739e-01
7.625100e-01	-1.041990e-03	-1.875994e-01
7.253856e-01	-6.838130e-04	-1.932403e-01
6.806345e-01	-7.700820e-04	-1.956102e-01
6.166018e-01	-3.329483e-04	-1.981768e-01
5.341380e-01	-3.949229e-04	-1.905343e-01
4.230589e-01	6.612883e-05	-1.755138e-01
2.592216e-01	4.075904e-04	-1.240263e-01
1.639016e-02	6.049503e-04	-9.799798e-03
-3.305912e-01	6.547108e-04	2.534652e-01
-7.673027e-01	7.031324e-04	1.024539e+00
-4.889847e-01	7.647920e-04	3.101660e+00
2.995214e+00	8.468393e-04	2.999494e+00
3.103178e+00	9.268376e-04	9.587875e-01
2.617989e+00	9.943884e-04	6.752505e-02
2.234158e+00	1.107592e-03	-2.003556e-01
1.967038e+00	1.043806e-03	-3.621160e-01
1.776089e+00	8.626615e-04	-4.253514e-01
1.610032e+00	4.839869e-04	-4.728812e-01
1.486964e+00	6.469817e-04	-4.883861e-01
1.380252e+00	3.315571e-04	-5.014343e-01
1.292783e+00	4.628688e-04	-4.984034e-01
1.217013e+00	1.695082e-04	-4.961112e-01
1.151026e+00	3.213840e-04	-4.855397e-01
1.091368e+00	6.320570e-05	-4.763547e-01
1.037490e+00	1.196384e-04	-4.632463e-01
9.871555e-01	-9.771823e-05	-4.517933e-01
9.370221e-01	-3.979961e-05	-4.364038e-01
8.896366e-01	-5.426478e-05	-4.222510e-01
8.402949e-01	-6.032224e-05	-4.037770e-01
7.882304e-01	-5.529444e-05	-3.829527e-01
7.396267e-01	-5.422688e-05	-3.609449e-01
8.156232e-01	-2.065892e-04	-1.436283e-01
8.334463e-01	-2.346964e-04	-1.482752e-01
8.440738e-01	-1.802278e-04	-1.539249e-01
8.485781e-01	-1.273762e-04	-1.589517e-01
8.458852e-01	-1.047075e-04	-1.648366e-01
8.389887e-01	-8.443659e-05	-1.692881e-01
8.265307e-01	-6.744524e-05	-1.747638e-01
8.104117e-01	-5.071904e-05	-1.784762e-01
7.873298e-01	5.387537e-06	-1.836291e-01
7.593848e-01	5.219157e-06	-1.868305e-01
7.228402e-01	6.786401e-06	-1.925622e-01
6.768225e-01	-1.787641e-05	-1.945146e-01
6.123471e-01	-3.735093e-05	-1.968093e-01
5.299897e-01	-2.689984e-05	-1.890545e-01
4.109166e-01	1.107608e-05	-1.704763e-01
2.508677e-01	-1.572286e-05	-1.200293e-01
1.336037e-02	-7.049868e-06	-7.988267e-03
-3.297694e-01	3.990340e-07	2.528351e-01
-7.674693e-01	6.426800e-06	1.024762e+00
-4.893285e-01	1.132826e-05	3.103840e+00
2.997777e+00	1.633493e-05	3.002061e+00
3.106357e+00	2.039236e-05	9.597697e-01
2.621517e+00	2.431141e-05	6.761604e-02
2.232529e+00	2.762428e-05	-2.002095e-01
1.960178e+00	6.623606e-05	-3.608530e-01
1.764926e+00	6.933326e-05	-4.226779e-01
1.606103e+00	4.355292e-05	-4.717273e-01
1.483352e+00	1.050379e-04	-4.871996e-01
1.376910e+00	1.027972e-04	-5.002203e-01
1.290210e+00	1.029385e-04	-4.974114e-01
1.213927e+00	1.080568e-04	-4.948534e-01
1.149091e+00	7.942872e-05	-4.847234e-01
1.089172e+00	1.003434e-04	-4.753962e-01
1.036964e+00	1.195051e-04	-4.630113e-01
9.856833e-01	1.435529e-04	-4.511195e-01
9.371878e-01	1.692465e-04	-4.364809e-01
8.883363e-01	1.992020e-04	-4.216339e-01
8.393175e-01	2.104464e-04	-4.033074e-01
7.886774e-01	2.889674e-04	-3.831699e-01
7.398662e-01	2.784199e-04	-3.610618e-01
8.200826e-01	1.464407e-03	-1.444135e-01
8.302498e-01	1.464766e-03	-1.477066e-01
8.416196e-01	1.466456e-03	-1.534773e-01
8.482877e-01	1.451104e-03	-1.588973e-01
8.449772e-01	1.412964e-03	-1.646597e-01
8.401449e-01	1.426826e-03	-1.695214e-01
8.268699e-01	1.288904e-03	-1.748355e-01
8.124446e-01	1.351547e-03	-1.789239e-01
7.889263e-01	1.110343e-03	-1.840015e-01
7.624915e-01	1.135264e-03	-1.875949e-01
7.256854e-01	7.862028e-04	-1.933202e-01
6.812247e-01	7.991260e-04	-1.957798e-01
6.167406e-01	3.679061e-04	-1.982214e-01
5.334372e-01	4.581841e-04	-1.902843e-01
4.228087e-01	-3.707076e-05	-1.754100e-01
2.596137e-01	-3.781494e-04	-1.242139e-01
1.604249e-02	-5.759492e-04	-9.591921e-03
-3.309430e-01	-6.016659e-04	2.537349e-01
-7.676107e-01	-6.533449e-04	1.024950e+00
-4.890930e-01	-7.475635e-04	3.102347e+00
2.995656e+00	-8.348968e-04	2.999937e+00
3.103528e+00	-8.907167e-04	9.588955e-01
2.618220e+00	-9.885736e-04	6.753100e-02
2.235300e+00	-1.104452e-03	-2.004580e-01
1.967814e+00	-1.044399e-03	-3.622588e-01
1.775668e+00	-8.345254e-04	-4.252505e-01
1.610637e+00	-4.912989e-04	-4.730590e-01
1.487758e+00	-6.611191e-04	-4.886468e-01
1.380225e+00	-3.567784e-04	-5.014245e-01
1.292850e+00	-4.215695e-04	-4.984292e-01
1.216720e+00	-1.432996e-04	-4.959921e-01
1.150915e+00	-2.449801e-04	-4.854931e-01
1.091903e+00	-2.962942e-05	-4.765882e-01
1.038107e+00	-1.271820e-04	-4.635217e-01
9.879487e-01	-1.584220e-05	-4.521563e-01
9.380475e-01	-4.801101e-05	-4.368813e-01
8.906303e-01	-2.132925e-05	-4.227226e-01
8.426367e-01	-1.217793e-05	-4.049023e-01
7.927546e-01	-1.643920e-05	-3.851508e-01
7.380114e-01	-1.742814e-05	-3.601566e-01
8.155629e-01	1.522229e-03	-1.436176e-01
8.333196e-01	1.547492e-03	-1.482527e-01
8.446353e-01	1.484362e-03	-1.540273e-01
8.499770e-01	1.447530e-03	-1.592137e-01
8.462764e-01	1.311511e-03	-1.649129e-01
8.412987e-01	1.266205e-03	-1.697542e-01
8.275389e-01	1.207313e-03	-1.749770e-01
8.130828e-01	1.132434e-03	-1.790645e-01
7.901760e-01	1.086578e-03	-1.842929e-01
7.636632e-01	9.889295e-04	-1.878831e-01
7.272635e-01	8.833340e-04	-1.937406e-01
6.822839e-01	7.976465e-04	-1.960842e-01
6.173201e-01	7.031362e-04	-1.984077e-01
5.355945e-01	5.411332e-04	-1.910539e-01
4.247060e-01	3.944520e-04	-1.761971e-01
2.610414e-01	2.760921e-04	-1.248970e-01
1.856603e-02	1.165997e-04	-1.110077e-02
-3.278899e-01	-4.446665e-05	2.513941e-01
-7.636824e-01	-2.111482e-04	1.019705e+00
-4.873273e-01	-3.758826e-04	3.091147e+00
2.990940e+00	-5.649919e-04	2.995214e+00
3.099218e+00	-7.258026e-04	9.575638e-01
2.614513e+00	-8.842575e-04	6.743539e-02
2.231651e+00	-1.032236e-03	-2.001308e-01
1.965872e+00	-1.208870e-03	-3.619013e-01
1.774562e+00	-1.339509e-03	-4.249857e-01
1.608356e+00	-1.461965e-03	-4.723888e-01
1.485429e+00	-1.607508e-03	-4.878818e-01
1.379939e+00	-1.708520e-03	-5.013206e-01
1.292931e+00	-1.791038e-03	-4.984605e-01
1.216161e+00	-1.864385e-03	-4.957640e-01
1.150463e+00	-1.963945e-03	-4.853022e-01
1.090873e+00	-2.012771e-03	-4.761386e-01
1.037017e+00	-2.048968e-03	-4.630348e-01
9.871000e-01	-2.090481e-03	-4.517679e-01
9.369850e-01	-2.134378e-03	-4.363865e-01
8.892042e-01	-2.079648e-03	-4.220458e-01
8.395440e-01	-2.123178e-03	-4.034162e-01
7.883830e-01	-2.200071e-03	-3.830269e-01
7.397148e-01	-2.188458e-03	-3.609878e-01
8.158430e-01	2.166220e-03	-1.436670e-01
8.336553e-01	2.161748e-03	-1.483124e-01
8.447733e-01	2.154782e-03	-1.540524e-01
8.528886e-01	2.054932e-03	-1.597591e-01
8.484522e-01	2.021644e-03	-1.653369e-01
8.419554e-01	1.983445e-03	-1.698867e-01
8.289389e-01	1.901987e-03	-1.752730e-01
8.141461e-01	1.804636e-03	-1.792986e-01
7.908734e-01	1.677295e-03	-1.844556e-01
7.651595e-01	1.559003e-03	-1.882513e-01
7.281879e-01	1.390576e-03	-1.939868e-01
6.836261e-01	1.286443e-03	-1.964699e-01
6.202778e-01	1.062991e-03	-1.993583e-01
5.380414e-01	8.516785e-04	-1.919267e-01