# vtk DataFile Version 2.0
OUTPUT by 3D-VPM
ASCII
DATASET UNSTRUCTURED_GRID
POINTS 820 double
1.000000e+00	0.000000e+00	6.478314e-04
9.931674e-01	0.000000e+00	-3.139936e-04
9.755282e-01	0.000000e+00	-2.765479e-03
9.448927e-01	0.000000e+00	-6.888579e-03
9.045085e-01	0.000000e+00	-1.212681e-02
8.530688e-01	0.000000e+00	-1.841823e-02
7.938926e-01	0.000000e+00	-2.525703e-02
7.266841e-01	0.000000e+00	-3.239337e-02
6.545085e-01	0.000000e+00	-3.944490e-02
5.781101e-01	0.000000e+00	-4.595638e-02
5.000000e-01	0.000000e+00	-5.166242e-02
4.218900e-01	0.000000e+00	-5.586950e-02
3.454915e-01	0.000000e+00	-5.849157e-02
2.733159e-01	0.000000e+00	-5.872148e-02
2.061074e-01	0.000000e+00	-5.680660e-02
1.469312e-01	0.000000e+00	-5.211605e-02
9.549150e-02	0.000000e+00	-4.528078e-02
5.510729e-02	0.000000e+00	-3.604972e-02
2.447174e-02	0.000000e+00	-2.521465e-02
6.832625e-03	0.000000e+00	-1.278565e-02
0.000000e+00	0.000000e+00	6.478314e-04
6.832625e-03	0.000000e+00	1.408132e-02
2.447174e-02	0.000000e+00	2.651031e-02
5.510728e-02	0.000000e+00	3.734538e-02
9.549150e-02	0.000000e+00	4.657644e-02
1.469312e-01	0.000000e+00	5.341172e-02
2.061074e-01	0.000000e+00	5.810227e-02
2.733159e-01	0.000000e+00	6.001714e-02
3.454915e-01	0.000000e+00	5.978723e-02
4.218900e-01	0.000000e+00	5.716516e-02
5.000000e-01	0.000000e+00	5.295808e-02
5.781101e-01	0.000000e+00	4.725205e-02
6.545085e-01	0.000000e+00	4.074056e-02
7.266841e-01	0.000000e+00	3.368903e-02
7.938926e-01	0.000000e+00	2.655269e-02
8.530688e-01	0.000000e+00	1.971389e-02
9.045085e-01	0.000000e+00	1.342247e-02
9.448927e-01	0.000000e+00	8.184241e-03
9.755282e-01	0.000000e+00	4.061141e-03
9.931674e-01	0.000000e+00	1.609656e-03
1.000000e+00	0.000000e+00	6.478314e-04
1.000000e+00	1.052632e+00	6.478314e-04
9.931674e-01	1.052632e+00	-3.139936e-04
9.755282e-01	1.052632e+00	-2.765479e-03
9.448927e-01	1.052632e+00	-6.888579e-03
9.045085e-01	1.052632e+00	-1.212681e-02
8.530689e-01	1.052632e+00	-1.841823e-02
7.938926e-01	1.052632e+00	-2.525703e-02
7.266841e-01	1.052632e+00	-3.239337e-02
6.545085e-01	1.052632e+00	-3.944490e-02
5.781101e-01	1.052632e+00	-4.595638e-02
5.000000e-01	1.052632e+00	-5.166242e-02
4.218900e-01	1.052632e+00	-5.586950e-02
3.454915e-01	1.052632e+00	-5.849157e-02
2.733158e-01	1.052632e+00	-5.872148e-02
2.061074e-01	1.052632e+00	-5.680660e-02
1.469311e-01	1.052632e+00	-5.211605e-02
9.549150e-02	1.052632e+00	-4.528078e-02
5.510729e-02	1.052632e+00	-3.604972e-02
2.447174e-02	1.052632e+00	-2.521465e-02
6.832625e-03	1.052632e+00	-1.278565e-02
0.000000e+00	1.052632e+00	6.478314e-04
6.832625e-03	1.052632e+00	1.408132e-02
2.447174e-02	1.052632e+00	2.651031e-02
5.510728e-02	1.052632e+00	3.734538e-02
9.549150e-02	1.052632e+00	4.657644e-02
1.469311e-01	1.052632e+00	5.341172e-02
2.061074e-01	1.052632e+00	5.810227e-02
2.733158e-01	1.052632e+00	6.001714e-02
3.454915e-01	1.052632e+00	5.978723e-02
4.218900e-01	1.052632e+00	5.716516e-02
5.000000e-01	1.052632e+00	5.295808e-02
5.781101e-01	1.052632e+00	4.725205e-02
6.545085e-01	1.052632e+00	4.074056e-02
7.266841e-01	1.052632e+00	3.368903e-02
7.938926e-01	1.052632e+00	2.655269e-02
8.530689e-01	1.052632e+00	1.971389e-02
9.045085e-01	1.052632e+00	1.342247e-02
9.448927e-01	1.052632e+00	8.184241e-03
9.755282e-01	1.052632e+00	4.061141e-03
9.931674e-01	1.052632e+00	1.609656e-03
1.000000e+00	1.052632e+00	6.478314e-04
1.000000e+00	2.105263e+00	6.478314e-04
9.931674e-01	2.105263e+00	-3.139936e-04
9.755282e-01	2.105263e+00	-2.765479e-03
9.448927e-01	2.105263e+00	-6.888579e-03
9.045085e-01	2.105263e+00	-1.212681e-02
8.530689e-01	2.105263e+00	-1.841823e-02
7.938926e-01	2.105263e+00	-2.525703e-02
7.266841e-01	2.105263e+00	-3.239337e-02
6.545085e-01	2.105263e+00	-3.944490e-02
5.781101e-01	2.105263e+00	-4.595638e-02
5.000000e-01	2.105263e+00	-5.166242e-02
4.218900e-01	2.105263e+00	-5.586950e-02
3.454915e-01	2.105263e+00	-5.849157e-02
2.733158e-01	2.105263e+00	-5.872148e-02
2.061074e-01	2.105263e+00	-5.680660e-02
1.469312e-01	2.105263e+00	-5.211605e-02
9.549150e-02	2.105263e+00	-4.528078e-02
5.510729e-02	2.105263e+00	-3.604972e-02
2.447174e-02	2.105263e+00	-2.521465e-02
6.832625e-03	2.105263e+00	-1.278565e-02
0.000000e+00	2.105263e+00	6.478314e-04
6.832625e-03	2.105263e+00	1.408132e-02
2.447174e-02	2.105263e+00	2.651031e-02
5.510728e-02	2.105263e+00	3.734538e-02
9.549150e-02	2.105263e+00	4.657644e-02
1.469312e-01	2.105263e+00	5.341172e-02
2.061074e-01	2.105263e+00	5.810227e-02
2.733158e-01	2.105263e+00	6.001714e-02
3.454915e-01	2.105263e+00	5.978723e-02
4.218900e-01	2.105263e+00	5.716516e-02
5.000000e-01	2.105263e+00	5.295808e-02
5.781101e-01	2.105263e+00	4.725205e-02
6.545085e-01	2.105263e+00	4.074056e-02
7.266841e-01	2.105263e+00	3.368903e-02
7.938926e-01	2.105263e+00	2.655269e-02
8.530689e-01	2.105263e+00	1.971389e-02
9.045085e-01	2.105263e+00	1.342247e-02
9.448927e-01	2.105263e+00	8.184241e-03
9.755282e-01	2.105263e+00	4.061141e-03
9.931674e-01	2.105263e+00	1.609656e-03
1.000000e+00	2.105263e+00	6.478314e-04
1.000000e+00	3.157895e+00	6.478314e-04
9.931674e-01	3.157895e+00	-3.139936e-04
9.755282e-01	3.157895e+00	-2.765479e-03
9.448927e-01	3.157895e+00	-6.888579e-03
9.045085e-01	3.157895e+00	-1.212681e-02
8.530689e-01	3.157895e+00	-1.841823e-02
7.938926e-01	3.157895e+00	-2.525703e-02
7.266842e-01	3.157895e+00	-3.239337e-02
6.545085e-01	3.157895e+00	-3.944490e-02
5.781101e-01	3.157895e+00	-4.595638e-02
5.000000e-01	3.157895e+00	-5.166242e-02
4.218900e-01	3.157895e+00	-5.586950e-02
3.454915e-01	3.157895e+00	-5.849157e-02
2.733158e-01	3.157895e+00	-5.872148e-02
2.061074e-01	3.157895e+00	-5.680660e-02
1.469312e-01	3.157895e+00	-5.211605e-02
9.549150e-02	3.157895e+00	-4.528078e-02
5.510729e-02	3.157895e+00	-3.604972e-02
2.447174e-02	3.157895e+00	-2.521465e-02
6.832625e-03	3.157895e+00	-1.278565e-02
0.000000e+00	3.157895e+00	6.478314e-04
6.832625e-03	3.157895e+00	1.408132e-02
2.447174e-02	3.157895e+00	2.651031e-02
5.510728e-02	3.157895e+00	3.734538e-02
9.549150e-02	3.157895e+00	4.657644e-02
1.469312e-01	3.157895e+00	5.341172e-02
2.061074e-01	3.157895e+00	5.810227e-02
2.733158e-01	3.157895e+00	6.001714e-02
3.454915e-01	3.157895e+00	5.978723e-02
4.218900e-01	3.157895e+00	5.716516e-02
5.000000e-01	3.157895e+00	5.295808e-02
5.781101e-01	3.157895e+00	4.725205e-02
6.545085e-01	3.157895e+00	4.074056e-02
7.266842e-01	3.157895e+00	3.368903e-02
7.938926e-01	3.157895e+00	2.655269e-02
8.530689e-01	3.157895e+00	1.971389e-02
9.045085e-01	3.157895e+00	1.342247e-02
9.448927e-01	3.157895e+00	8.184241e-03
9.755282e-01	3.157895e+00	4.061141e-03
9.931674e-01	3.157895e+00	1.609656e-03
1.000000e+00	3.157895e+00	6.478314e-04
1.000000e+00	4.210526e+00	6.478314e-04
9.931674e-01	4.210526e+00	-3.139936e-04
9.755282e-01	4.210526e+00	-2.765479e-03
9.448927e-01	4.210526e+00	-6.888579e-03
9.045085e-01	4.210526e+00	-1.212681e-02
8.530689e-01	4.210526e+00	-1.841823e-02
7.938926e-01	4.210526e+00	-2.525703e-02
7.266841e-01	4.210526e+00	-3.239337e-02
6.545085e-01	4.210526e+00	-3.944490e-02
5.781101e-01	4.210526e+00	-4.595638e-02
5.000000e-01	4.210526e+00	-5.166242e-02
4.218900e-01	4.210526e+00	-5.586950e-02
3.454915e-01	4.210526e+00	-5.849157e-02
2.733158e-01	4.210526e+00	-5.872148e-02
2.061074e-01	4.210526e+00	-5.680660e-02
1.469311e-01	4.210526e+00	-5.211605e-02
9.549150e-02	4.210526e+00	-4.528078e-02
5.510729e-02	4.210526e+00	-3.604972e-02
2.447174e-02	4.210526e+00	-2.521465e-02
6.832625e-03	4.210526e+00	-1.278565e-02
0.000000e+00	4.210526e+00	6.478314e-04
6.832625e-03	4.210526e+00	1.408132e-02
2.447174e-02	4.210526e+00	2.651031e-02
5.510728e-02	4.210526e+00	3.734538e-02
9.549150e-02	4.210526e+00	4.657644e-02
1.469311e-01	4.210526e+00	5.341172e-02
2.061074e-01	4.210526e+00	5.810227e-02
2.733158e-01	4.210526e+00	6.001714e-02
3.454915e-01	4.210526e+00	5.978723e-02
4.218900e-01	4.210526e+00	5.716516e-02
5.000000e-01	4.210526e+00	5.295808e-02
5.781101e-01	4.210526e+00	4.725205e-02
6.545085e-01	4.210526e+00	4.074056e-02
7.266841e-01	4.210526e+00	3.368903e-02
7.938926e-01	4.210526e+00	2.655269e-02
8.530689e-01	4.210526e+00	1.971389e-02
9.045085e-01	4.210526e+00	1.342247e-02
9.448927e-01	4.210526e+00	8.184241e-03
9.755282e-01	4.210526e+00	4.061141e-03
9.931674e-01	4.210526e+00	1.609656e-03
1.000000e+00	4.210526e+00	6.478314e-04
1.000000e+00	5.263158e+00	6.478314e-04
9.931674e-01	5.263158e+00	-3.139936e-04
9.755282e-01	5.263158e+00	-2.765479e-03
9.448927e-01	5.263158e+00	-6.888579e-03
9.045085e-01	5.263158e+00	-1.212681e-02
8.530689e-01	5.263158e+00	-1.841823e-02
7.938926e-01	5.263158e+00	-2.525703e-02
7.266842e-01	5.263158e+00	-3.239337e-02
6.545085e-01	5.263158e+00	-3.944490e-02
5.781101e-01	5.263158e+00	-4.595638e-02
5.000000e-01	5.263158e+00	-5.166242e-02
4.218900e-01	5.263158e+00	-5.586950e-02
3.454915e-01	5.263158e+00	-5.849157e-02
2.733158e-01	5.263158e+00	-5.872148e-02
2.061074e-01	5.263158e+00	-5.680660e-02
1.469311e-01	5.263158e+00	-5.211605e-02
9.549150e-02	5.263158e+00	-4.528078e-02
5.510729e-02	5.263158e+00	-3.604972e-02
2.447174e-02	5.263158e+00	-2.521465e-02
6.832625e-03	5.263158e+00	-1.278565e-02
0.000000e+00	5.263158e+00	6.478314e-04
6.832625e-03	5.263158e+00	1.408132e-02
2.447174e-02	5.263158e+00	2.651031e-02
5.510728e-02	5.263158e+00	3.734538e-02
9.549150e-02	5.263158e+00	4.657644e-02
1.469311e-01	5.263158e+00	5.341172e-02
2.061074e-01	5.263158e+00	5.810227e-02
2.733158e-01	5.263158e+00	6.001714e-02
3.454915e-01	5.263158e+00	5.978723e-02
4.218900e-01	5.263158e+00	5.716516e-02
5.000000e-01	5.263158e+00	5.295808e-02
5.781101e-01	5.263158e+00	4.725205e-02
6.545085e-01	5.263158e+00	4.074056e-02
7.266842e-01	5.263158e+00	3.368903e-02
7.938926e-01	5.263158e+00	2.655269e-02
8.530689e-01	5.263158e+00	1.971389e-02
9.045085e-01	5.263158e+00	1.342247e-02
9.448927e-01	5.263158e+00	8.184241e-03
9.755282e-01	5.263158e+00	4.061141e-03
9.931674e-01	5.263158e+00	1.609656e-03
1.000000e+00	5.263158e+00	6.478314e-04
1.000000e+00	6.315789e+00	6.478314e-04
9.931673e-01	6.315789e+00	-3.139936e-04
9.755282e-01	6.315789e+00	-2.765479e-03
9.448927e-01	6.315789e+00	-6.888579e-03
[...]
CELL_DATA 760
VECTORS V double
3.454872e-01	1.061368e-03	4.863388e-02
3.543395e-01	1.018497e-03	4.924602e-02
3.615011e-01	9.368896e-04	4.865287e-02
3.672619e-01	8.327433e-04	4.763749e-02
3.713826e-01	7.122447e-04	4.542262e-02
3.763809e-01	5.748851e-04	4.349707e-02
3.800245e-01	4.176088e-04	4.035183e-02
3.846201e-01	2.381852e-04	3.757722e-02
3.886449e-01	3.769786e-05	3.312443e-02
3.936240e-01	-1.782138e-04	2.875471e-02
3.981952e-01	-3.991280e-04	2.144718e-02
4.030540e-01	-6.108923e-04	1.383320e-02
4.068623e-01	-7.990505e-04	1.296029e-03
4.093223e-01	-9.502586e-04	-1.166227e-02
4.111920e-01	-1.057426e-03	-3.259271e-02
4.042754e-01	-1.118061e-03	-5.371991e-02
3.851684e-01	-1.136446e-03	-8.804213e-02
3.504643e-01	-1.119300e-03	-1.239510e-01
2.496411e-01	-1.073033e-03	-1.759039e-01
4.605643e-02	-1.005322e-03	-9.055061e-02
1.406454e-01	-9.044581e-04	2.765200e-01
3.532099e-01	-7.984930e-04	2.488812e-01
4.275568e-01	-6.714994e-04	1.512167e-01
4.407529e-01	-5.251866e-04	1.007477e-01
4.443963e-01	-3.505964e-04	5.905116e-02
4.400812e-01	-1.489973e-04	3.488266e-02
4.290829e-01	7.884315e-05	1.222522e-02
4.193658e-01	3.221158e-04	-1.335858e-03
4.091087e-01	5.675310e-04	-1.404100e-02
3.986424e-01	7.967760e-04	-2.147126e-02
3.886416e-01	9.938297e-04	-2.839075e-02
3.784099e-01	1.146363e-03	-3.225210e-02
3.688129e-01	1.248811e-03	-3.603286e-02
3.582482e-01	1.302599e-03	-3.803957e-02
3.478005e-01	1.314646e-03	-4.019413e-02
3.350390e-01	1.295779e-03	-4.097755e-02
3.218840e-01	1.258054e-03	-4.175154e-02
3.063196e-01	1.213969e-03	-4.122624e-02
2.900397e-01	1.175228e-03	-4.030965e-02
2.752705e-01	1.154832e-03	-3.874954e-02
3.491043e-01	6.091344e-04	4.914305e-02
3.578579e-01	5.835018e-04	4.973501e-02
3.646805e-01	5.353103e-04	4.908077e-02
3.700990e-01	4.736779e-04	4.800550e-02
3.740183e-01	4.022747e-04	4.574498e-02
3.789643e-01	3.211702e-04	4.379562e-02
3.826641e-01	2.290908e-04	4.063211e-02
3.873738e-01	1.252200e-04	3.784626e-02
3.915174e-01	1.049974e-05	3.336926e-02
3.965683e-01	-1.117660e-04	2.896980e-02
4.011185e-01	-2.358306e-04	2.160463e-02
4.058310e-01	-3.540742e-04	1.392851e-02
4.093495e-01	-4.588209e-04	1.303951e-03
4.113793e-01	-5.429863e-04	-1.172088e-02
4.126938e-01	-6.028090e-04	-3.271176e-02
4.051141e-01	-6.368683e-04	-5.383135e-02
3.852335e-01	-6.473308e-04	-8.805703e-02
3.495688e-01	-6.376291e-04	-1.236342e-01
2.475786e-01	-6.110279e-04	-1.744505e-01
4.346247e-02	-5.716435e-04	-8.545067e-02
1.439561e-01	-5.124335e-04	2.830291e-01
3.576753e-01	-4.499530e-04	2.520276e-01
4.317708e-01	-3.751724e-04	1.527071e-01
4.446886e-01	-2.895652e-04	1.016473e-01
4.482334e-01	-1.884167e-04	5.956102e-02
4.438721e-01	-7.290087e-05	3.518314e-02
4.328086e-01	5.633520e-05	1.233137e-02
4.229354e-01	1.932369e-04	-1.347228e-03
4.123986e-01	3.306576e-04	-1.415392e-02
4.015209e-01	4.588155e-04	-2.162630e-02
3.909993e-01	5.692322e-04	-2.856298e-02
3.801743e-01	6.553499e-04	-3.240248e-02
3.699544e-01	7.141534e-04	-3.614439e-02
3.587785e-01	7.462895e-04	-3.809588e-02
3.477588e-01	7.553022e-04	-4.018931e-02
3.344817e-01	7.468813e-04	-4.090939e-02
3.208704e-01	7.274762e-04	-4.162006e-02
3.049169e-01	7.039632e-04	-4.103746e-02
2.883686e-01	6.829556e-04	-4.007740e-02
2.735496e-01	6.718078e-04	-3.850729e-02
3.498126e-01	1.021858e-04	4.924275e-02
3.585059e-01	9.677320e-05	4.982506e-02
3.652613e-01	8.718429e-05	4.915895e-02
3.706225e-01	7.473615e-05	4.807340e-02
3.744998e-01	6.019974e-05	4.580388e-02
3.794170e-01	4.403202e-05	4.384794e-02
3.830961e-01	2.659295e-05	4.067798e-02
3.877884e-01	8.277586e-06	3.788676e-02
3.919142e-01	-1.039759e-05	3.340308e-02
3.969446e-01	-2.882674e-05	2.899729e-02
4.014694e-01	-4.634767e-05	2.162353e-02
4.061510e-01	-6.228760e-05	1.393949e-02
4.096313e-01	-7.608799e-05	1.304849e-03
4.116148e-01	-8.722590e-05	-1.172759e-02
4.128722e-01	-9.542092e-05	-3.272589e-02
4.052201e-01	-1.004316e-04	-5.384544e-02
3.852437e-01	-1.022699e-04	-8.805936e-02
3.494401e-01	-1.010014e-04	-1.235887e-01
2.472558e-01	-9.668501e-05	-1.742231e-01
4.302460e-02	-8.965636e-05	-8.458980e-02
1.445427e-01	-7.838450e-05	2.841824e-01
3.584713e-01	-6.612792e-05	2.525885e-01
4.325002e-01	-5.154092e-05	1.529651e-01
4.453312e-01	-3.544753e-05	1.017942e-01
4.488140e-01	-1.756514e-05	5.963818e-02
4.444009e-01	1.396123e-06	3.522506e-02
4.332915e-01	2.109813e-05	1.234513e-02
4.233730e-01	4.071978e-05	-1.348622e-03
4.127901e-01	5.964169e-05	-1.416735e-02
4.018643e-01	7.708949e-05	-2.164480e-02
3.912925e-01	9.248614e-05	-2.858440e-02
3.804152e-01	1.053425e-04	-3.242301e-02
3.701410e-01	1.153602e-04	-3.616262e-02
3.589088e-01	1.224417e-04	-3.810972e-02
3.478309e-01	1.266658e-04	-4.019765e-02
3.344942e-01	1.283507e-04	-4.091092e-02
3.208230e-01	1.279903e-04	-4.161391e-02
3.048140e-01	1.263536e-04	-4.102361e-02
2.882244e-01	1.244016e-04	-4.005736e-02
2.733894e-01	1.232444e-04	-3.848474e-02
3.500177e-01	3.395240e-05	4.927162e-02
3.586977e-01	3.224361e-05	4.985173e-02
3.654360e-01	2.914279e-05	4.918246e-02
3.707810e-01	2.506328e-05	4.809396e-02
3.746452e-01	2.027816e-05	4.582167e-02
3.795524e-01	1.497719e-05	4.386360e-02
3.832236e-01	9.312873e-06	4.069152e-02
3.879093e-01	3.424654e-06	3.789857e-02
3.920289e-01	-2.520816e-06	3.341285e-02
3.970529e-01	-8.355763e-06	2.900520e-02
4.015707e-01	-1.390667e-05	2.162898e-02
4.062442e-01	-1.899452e-05	1.394269e-02
4.097150e-01	-2.346625e-05	1.305116e-03
4.116868e-01	-2.716629e-05	-1.172964e-02
4.129297e-01	-3.000131e-05	-3.273045e-02
4.052586e-01	-3.187314e-05	-5.385056e-02
3.852561e-01	-3.275878e-05	-8.806220e-02
3.494134e-01	-3.263952e-05	-1.235793e-01
2.471724e-01	-3.151271e-05	-1.741643e-01
4.290287e-02	-2.945375e-05	-8.435046e-02
1.447116e-01	-2.598384e-05	2.845145e-01
3.587037e-01	-2.211951e-05	2.527523e-01
4.327136e-01	-1.747653e-05	1.530406e-01
4.455186e-01	-1.234694e-05	1.018370e-01
4.489821e-01	-6.668314e-06	5.966052e-02
4.445528e-01	-6.823520e-07	3.523710e-02
4.334296e-01	5.505841e-06	1.234906e-02
4.234981e-01	1.165782e-05	-1.349021e-03
4.129027e-01	1.761194e-05	-1.417122e-02
4.019645e-01	2.316218e-05	-2.165019e-02
3.913803e-01	2.815810e-05	-2.859081e-02
3.804904e-01	3.246479e-05	-3.242942e-02
3.702032e-01	3.598885e-05	-3.616869e-02
3.589573e-01	3.868148e-05	-3.811487e-02
3.478648e-01	4.052971e-05	-4.020157e-02
3.345125e-01	4.158376e-05	-4.091315e-02
3.208245e-01	4.193744e-05	-4.161411e-02
3.047989e-01	4.178289e-05	-4.102157e-02
2.881958e-01	4.139369e-05	-4.005338e-02
2.733543e-01	4.112580e-05	-3.847981e-02
3.501009e-01	1.557926e-05	4.928334e-02
3.587760e-01	1.484183e-05	4.986261e-02
3.655078e-01	1.349486e-05	4.919212e-02
3.708466e-01	1.170758e-05	4.810247e-02
3.747057e-01	9.598457e-06	4.582906e-02
3.796088e-01	7.251994e-06	4.387012e-02
3.832768e-01	4.739892e-06	4.069717e-02
3.879596e-01	2.127327e-06	3.790349e-02
3.920766e-01	-5.122520e-07	3.341692e-02
3.970981e-01	-3.109447e-06	2.900850e-02
4.016132e-01	-5.592003e-06	2.163127e-02
4.062837e-01	-7.885159e-06	1.394405e-02
4.097510e-01	-9.926458e-06	1.305231e-03
4.117186e-01	-1.164772e-05	-1.173054e-02
4.129561e-01	-1.300533e-05	-3.273254e-02
4.052777e-01	-1.394956e-05	-5.385310e-02
3.852652e-01	-1.446436e-05	-8.806426e-02
3.494070e-01	-1.453147e-05	-1.235770e-01
2.471431e-01	-1.414699e-05	-1.741437e-01
4.285626e-02	-1.333449e-05	-8.425882e-02
1.447786e-01	-1.189262e-05	2.846463e-01
3.587975e-01	-1.024642e-05	2.528184e-01
4.328006e-01	-8.242955e-06	1.530714e-01
4.455952e-01	-6.013292e-06	1.018545e-01
4.490510e-01	-3.534957e-06	5.966968e-02
4.446152e-01	-9.157768e-07	3.524204e-02
4.334864e-01	1.799015e-06	1.235068e-02
4.235498e-01	4.508339e-06	-1.349185e-03
4.129496e-01	7.146569e-06	-1.417283e-02
4.020067e-01	9.628590e-06	-2.165247e-02
3.914180e-01	1.189282e-05	-2.859356e-02
3.805233e-01	1.388067e-05	-3.243223e-02
3.702313e-01	1.554970e-05	-3.617144e-02
3.589804e-01	1.687414e-05	-3.811733e-02
3.478825e-01	1.783931e-05	-4.020361e-02
3.345241e-01	1.845559e-05	-4.091458e-02
3.208296e-01	1.875312e-05	-4.161477e-02
3.047973e-01	1.880435e-05	-4.102136e-02
2.881886e-01	1.871658e-05	-4.005239e-02
2.733442e-01	1.863729e-05	-3.847837e-02
3.501421e-01	8.580317e-06	4.928914e-02
3.588149e-01	8.200068e-06	4.986801e-02
3.655437e-01	7.501082e-06	4.919695e-02
3.708796e-01	6.566012e-06	4.810675e-02
3.747362e-01	5.455771e-06	4.583280e-02
3.796374e-01	4.214474e-06	4.387342e-02
3.833038e-01	2.880738e-06	4.070003e-02
3.879853e-01	1.489527e-06	3.790600e-02
3.921011e-01	7.728741e-08	3.341901e-02
3.971213e-01	-1.319677e-06	2.901020e-02
4.016352e-01	-2.662937e-06	2.163246e-02
4.063044e-01	-3.913307e-06	1.394476e-02
4.097701e-01	-5.037907e-06	1.305291e-03
4.117357e-01	-5.999680e-06	-1.173103e-02
4.129706e-01	-6.774930e-06	-3.273370e-02
4.052889e-01	-7.335179e-06	-5.385459e-02
3.852715e-01	-7.669920e-06	-8.806571e-02
3.494059e-01	-7.765506e-06	-1.235766e-01
2.471307e-01	-7.619304e-06	-1.741349e-01
4.283453e-02	-7.239283e-06	-8.421610e-02
1.448111e-01	-6.524121e-06	2.847102e-01
3.588438e-01	-5.685244e-06	2.528510e-01
4.328438e-01	-4.649254e-06	1.530867e-01
4.456336e-01	-3.485285e-06	1.018633e-01
4.490857e-01	-2.182985e-06	5.967429e-02
4.446467e-01	-7.996451e-07	3.524454e-02
4.335152e-01	6.407983e-07	1.235150e-02
4.235761e-01	2.085535e-06	-1.349269e-03
4.129737e-01	3.500848e-06	-1.417365e-02
4.020286e-01	4.842280e-06	-2.165365e-02
3.914377e-01	6.078263e-06	-2.859500e-02
3.805409e-01	7.177893e-06	-3.243372e-02
3.702467e-01	8.118415e-06	-3.617294e-02
3.589934e-01	8.883556e-06	-3.811870e-02
3.478929e-01	9.461367e-06	-4.020481e-02
3.345316e-01	9.854499e-06	-4.091550e-02
3.208340e-01	1.007549e-05	-4.161534e-02
3.047985e-01	1.015699e-05	-4.102152e-02
2.881870e-01	1.014987e-05	-4.005217e-02
2.733410e-01	1.012702e-05	-3.847792e-02
3.501651e-01	5.315217e-06	4.929237e-02
3.588367e-01	5.098241e-06	4.987105e-02
3.655640e-01	4.696506e-06	4.919968e-02
3.708983e-01	4.154582e-06	4.810918e-02
3.747537e-01	3.506264e-06	4.583494e-02
3.796539e-01	2.777649e-06	4.387532e-02
3.833194e-01	1.991052e-06	4.070169e-02
3.880002e-01	1.166995e-06	3.790745e-02
3.921154e-01	3.272618e-07	3.342022e-02
3.971350e-01	-5.073535e-07	2.901120e-02
4.016482e-01	-1.315564e-06	2.163316e-02
4.063167e-01	-2.074832e-06	1.394518e-02
4.097816e-01	-2.765150e-06	1.305328e-03
4.117462e-01	-3.363823e-06	-1.173133e-02
4.129798e-01	-3.856317e-06	-3.273442e-02
4.052963e-01	-4.224422e-06	-5.385557e-02
3.852763e-01	-4.460898e-06	-8.806680e-02
3.494067e-01	-4.555447e-06	-1.235769e-01
2.471251e-01	-4.506299e-06	-1.741310e-01
4.282323e-02	-4.315177e-06	-8.419388e-02
1.448289e-01	-3.925684e-06	2.847451e-01
3.588696e-01	-3.453126e-06	2.528692e-01
4.328683e-01	-2.859014e-06	1.530953e-01
4.456555e-01	-2.183772e-06	1.018683e-01
4.491056e-01	-1.422176e-06	5.967693e-02
4.446649e-01	-6.082769e-07	3.524598e-02
4.335319e-01	2.433608e-07	1.235198e-02
4.235915e-01	1.101797e-06	-1.349318e-03
4.129878e-01	1.947585e-06	-1.417414e-02
4.020415e-01	2.754895e-06	-2.165434e-02
3.914495e-01	3.505557e-06	-2.859586e-02
3.805515e-01	4.181594e-06	-3.243463e-02
3.702561e-01	4.768601e-06	-3.617386e-02
3.590016e-01	5.254978e-06	-3.811957e-02
3.478996e-01	5.633119e-06	-4.020559e-02
3.345369e-01	5.903664e-06	-4.091614e-02
3.208376e-01	6.070946e-06	-4.161581e-02
3.048004e-01	6.151107e-06	-4.102177e-02
2.881873e-01	6.170440e-06	-4.005221e-02
2.733403e-01	6.168726e-06	-3.847783e-02
3.501787e-01	3.323877e-06	4.929429e-02
3.588497e-01	3.226039e-06	4.987285e-02
3.655762e-01	3.050012e-06	4.920132e-02
3.709097e-01	2.823419e-06	4.811065e-02
3.747643e-01	2.568488e-06	4.583624e-02
3.796640e-01	2.298240e-06	4.387649e-02
3.833290e-01	2.013288e-06	4.070271e-02
3.880094e-01	1.701100e-06	3.790835e-02
3.921242e-01	1.344065e-06	3.342097e-02
3.971435e-01	9.302048e-07	2.901182e-02
4.016564e-01	4.650832e-07	2.163360e-02
4.063245e-01	-2.379978e-08	1.394545e-02
4.097890e-01	-4.964941e-07	1.305351e-03
4.117530e-01	-9.115840e-07	-1.173152e-02
4.129859e-01	-1.245254e-06	-3.273491e-02
4.053014e-01	-1.485896e-06	-5.385625e-02
3.852800e-01	-1.637496e-06	-8.806764e-02
3.494080e-01	-1.701978e-06	-1.235774e-01
2.471227e-01	-1.683109e-06	-1.741293e-01
4.281713e-02	-1.582489e-06	-8.418189e-02
1.448391e-01	-1.368905e-06	2.847652e-01
3.588849e-01	-1.105686e-06	2.528800e-01
4.328829e-01	-7.721996e-07	1.531005e-01
4.456687e-01	-3.900870e-07	1.018714e-01
4.491178e-01	4.816467e-08	5.967854e-02
4.446761e-01	5.315006e-07	3.524687e-02
4.335422e-01	1.060045e-06	1.235227e-02
4.236010e-01	1.615651e-06	-1.349349e-03
4.129966e-01	2.172364e-06	-1.417444e-02
4.020496e-01	2.687284e-06	-2.165478e-02
3.914569e-01	3.121212e-06	-2.859641e-02
3.805583e-01	3.448810e-06	-3.243521e-02
3.702622e-01	3.667590e-06	-3.617446e-02
3.590070e-01	3.795088e-06	-3.812015e-02
3.479043e-01	3.857828e-06	-4.020613e-02
3.345407e-01	3.879363e-06	-4.091661e-02
3.208405e-01	3.874892e-06	-4.161618e-02
3.048023e-01	3.854863e-06	-4.102202e-02
2.881883e-01	3.829645e-06	-4.005234e-02
2.733407e-01	3.814168e-06	-3.847788e-02
3.501816e-01	-3.336036e-04	4.929470e-02
3.588521e-01	-3.342344e-04	4.987318e-02
3.655778e-01	-3.361772e-04	4.920154e-02
3.709105e-01	-3.328428e-04	4.811076e-02
3.747644e-01	-3.224702e-04	4.583624e-02
3.796636e-01	-3.345277e-04	4.387645e-02
3.833288e-01	-2.816009e-04	4.070269e-02
3.880099e-01	-3.047537e-04	3.790840e-02
3.921260e-01	-2.184497e-04	3.342113e-02
3.971469e-01	-2.510873e-04	2.901207e-02
4.016611e-01	-1.325329e-04	2.163386e-02
4.063301e-01	-1.724234e-04	1.394564e-02
4.097946e-01	-2.911358e-05	1.305369e-03
4.117581e-01	-7.546477e-05	-1.173167e-02
4.129900e-01	8.648990e-05	-3.273523e-02
4.053044e-01	1.888583e-04	-5.385664e-02
3.852818e-01	2.364158e-04	-8.806806e-02
3.494085e-01	2.187376e-04	-1.235775e-01
2.471212e-01	2.101466e-04	-1.741282e-01
4.281384e-02	2.067800e-04	-8.417543e-02
1.448443e-01	2.068755e-04	2.847755e-01
3.588926e-01	2.104048e-04	2.528854e-01
4.328903e-01	2.191531e-04	1.531031e-01
4.456755e-01	2.369728e-04	1.018729e-01
4.491244e-01	1.895416e-04	5.967942e-02
4.446828e-01	8.728066e-05	3.524740e-02
4.335491e-01	-7.458852e-05	1.235247e-02
4.236078e-01	-2.817533e-05	-1.349370e-03
4.130026e-01	-1.714480e-04	-1.417465e-02
4.020543e-01	-1.315459e-04	-2.165503e-02
3.914597e-01	-2.501133e-04	-2.859661e-02
3.805591e-01	-2.175140e-04	-3.243527e-02
3.702612e-01	-3.038785e-04	-3.617436e-02
3.590046e-01	-2.808069e-04	-3.811989e-02
3.479012e-01	-3.338296e-04	-4.020577e-02
3.345373e-01	-3.218790e-04	-4.091619e-02
3.208370e-01	-3.323599e-04	-4.161573e-02
3.047989e-01	-3.357944e-04	-4.102157e-02
2.881851e-01	-3.339300e-04	-4.005190e-02
2.733377e-01	-3.333439e-04	-3.847746e-02
3.502851e-01	6.238270e-09	4.930927e-02
3.590038e-01	5.403735e-09	4.989427e-02
3.654960e-01	6.321764e-09	4.919053e-02
3.705442e-01	8.022750e-09	4.806325e-02
3.748407e-01	9.823685e-09	4.584558e-02
3.788755e-01	1.129150e-08	4.378537e-02
3.829213e-01	1.164265e-08	4.065941e-02
3.870458e-01	1.232570e-08	3.781420e-02
3.914155e-01	1.276543e-08	3.336058e-02
3.959753e-01	1.299488e-08	2.892648e-02
4.005807e-01	1.312963e-08	2.157566e-02
4.049408e-01	1.313840e-08	1.389796e-02
4.082841e-01	1.301588e-08	1.300558e-03
4.100864e-01	1.273148e-08	-1.168404e-02
4.082700e-01	1.226458e-08	-3.236111e-02
4.021642e-01	1.161455e-08	-5.343938e-02
3.843704e-01	1.078648e-08	-8.785973e-02
3.502535e-01	9.823652e-09	-1.238764e-01
2.476131e-01	8.714520e-09	-1.744748e-01
4.294078e-02	7.522473e-09	-8.442499e-02
1.449738e-01	6.047114e-09	2.850301e-01
3.593873e-01	4.707889e-09	2.532339e-01
4.337374e-01	3.319477e-09	1.534027e-01
4.447656e-01	1.974517e-09	1.016649e-01
4.459853e-01	6.625394e-10	5.926230e-02
4.399635e-01	-5.538264e-10	3.487334e-02
4.318780e-01	-1.614929e-09	1.230485e-02
4.220976e-01	-2.448596e-09	-1.344560e-03
4.116135e-01	-3.049511e-09	-1.412697e-02
4.009739e-01	-3.488300e-09	-2.159684e-02
3.902880e-01	-3.880708e-09	-2.851102e-02
3.798483e-01	-4.377697e-09	-3.237469e-02
3.692966e-01	-4.659763e-09	-3.608012e-02
3.585965e-01	-4.429765e-09	-3.807656e-02
3.471123e-01	-3.176894e-09	-4.011460e-02
3.346127e-01	-2.116355e-09	-4.092542e-02
3.204697e-01	-6.922491e-10	-4.156809e-02
3.047160e-01	8.251508e-10	-4.101041e-02
2.883355e-01	1.642618e-09	-4.007280e-02
2.734396e-01	7.513131e-10	-3.849181e-02
3.501817e-01	3.336254e-04	4.929472e-02
3.588521e-01	3.342585e-04	4.987318e-02
3.655777e-01	3.362039e-04	4.920153e-02
3.709104e-01	3.328720e-04	4.811075e-02
3.747643e-01	3.225020e-04	4.583624e-02
3.796636e-01	3.345619e-04	4.387644e-02
3.833288e-01	2.816373e-04	4.070268e-02
3.880099e-01	3.047921e-04	3.790840e-02
3.921260e-01	2.184897e-04	3.342113e-02
3.971469e-01	2.511285e-04	2.901207e-02
4.016611e-01	1.325749e-04	2.163386e-02
4.063301e-01	1.724657e-04	1.394564e-02
4.097946e-01	2.915557e-05	1.305369e-03
4.117581e-01	7.550575e-05	-1.173167e-02
4.129900e-01	-8.645066e-05	-3.273523e-02
4.053044e-01	-1.888214e-04	-5.385665e-02
3.852818e-01	-2.363821e-04	-8.806807e-02
3.494085e-01	-2.187074e-04	-1.235776e-01
2.471213e-01	-2.101206e-04	-1.741283e-01
4.281393e-02	-2.067585e-04	-8.417559e-02
1.448443e-01	-2.068597e-04	2.847754e-01
3.588925e-01	-2.103942e-04	2.528853e-01
4.328902e-01	-2.191480e-04	1.531031e-01
4.456755e-01	-2.369731e-04	1.018729e-01
4.491243e-01	-1.895472e-04	5.967942e-02
4.446827e-01	-8.729139e-05	3.524740e-02
4.335490e-01	7.457300e-05	1.235247e-02
4.236077e-01	2.815548e-05	-1.349370e-03
4.130026e-01	1.714244e-04	-1.417465e-02
4.020543e-01	1.315193e-04	-2.165503e-02
3.914597e-01	2.500841e-04	-2.859661e-02
3.805591e-01	2.174825e-04	-3.243527e-02
3.702612e-01	3.038449e-04	-3.617436e-02
3.590046e-01	2.807720e-04	-3.811989e-02
3.479012e-01	3.337943e-04	-4.020577e-02
3.345373e-01	3.218443e-04	-4.091620e-02
3.208371e-01	3.323267e-04	-4.161574e-02
3.047990e-01	3.357637e-04	-4.102158e-02
2.881851e-01	3.339027e-04	-4.005190e-02
2.733376e-01	3.333194e-04	-3.847744e-02
3.501783e-01	-3.290434e-06	4.929423e-02
3.588495e-01	-3.188265e-06	4.987282e-02
3.655760e-01	-3.008679e-06	4.920130e-02
3.709096e-01	-2.778877e-06	4.811064e-02
3.747642e-01	-2.520716e-06	4.583622e-02
3.796639e-01	-2.246968e-06	4.387648e-02
3.833289e-01	-1.957513e-06	4.070270e-02
3.880093e-01	-1.641610e-06	3.790835e-02
3.921241e-01	-1.281110e-06	3.342097e-02
3.971435e-01	-8.641903e-07	2.901182e-02
4.016564e-01	-3.966961e-07	2.163360e-02
4.063245e-01	9.367621e-08	1.394545e-02
4.097890e-01	5.668059e-07	1.305351e-03
4.117531e-01	9.813201e-07	-1.173153e-02
4.129860e-01	1.313505e-06	-3.273491e-02
4.053015e-01	1.551895e-06	-5.385626e-02
3.852801e-01	1.700466e-06	-8.806768e-02
3.494083e-01	1.761119e-06	-1.235775e-01
2.471230e-01	1.737426e-06	-1.741295e-01
4.281745e-02	1.631217e-06	-8.418252e-02
1.448387e-01	1.410289e-06	2.847645e-01
3.588845e-01	1.140095e-06	2.528797e-01
4.328826e-01	7.990921e-07	1.531004e-01
4.456685e-01	4.093584e-07	1.018713e-01
4.491175e-01	-3.670196e-08	5.967851e-02
4.446759e-01	-5.277344e-07	3.524685e-02
4.335421e-01	-1.063931e-06	1.235227e-02
4.236009e-01	-1.626935e-06	-1.349348e-03
4.129965e-01	-2.190573e-06	-1.417444e-02
4.020495e-01	-2.711674e-06	-2.165478e-02
3.914568e-01	-3.150771e-06	-2.859640e-02
3.805583e-01	-3.482500e-06	-3.243520e-02
3.702622e-01	-3.705062e-06	-3.617446e-02
3.590070e-01	-3.836278e-06	-3.812014e-02
3.479043e-01	-3.902353e-06	-4.020613e-02
3.345408e-01	-3.925508e-06	-4.091662e-02
3.208406e-01	-3.921354e-06	-4.161619e-02
3.048024e-01	-3.900204e-06	-4.102205e-02
2.881886e-01	-3.871823e-06	-4.005239e-02
2.733412e-01	-3.852001e-06	-3.847795e-02
3.501645e-01	-5.271252e-06	4.929229e-02
3.588363e-01	-5.051685e-06	4.987099e-02
3.655637e-01	-4.646587e-06	4.919964e-02
3.708981e-01	-4.100969e-06	4.810915e-02
3.747535e-01	-3.448673e-06	4.583491e-02
3.796537e-01	-2.715473e-06	4.387530e-02
3.833193e-01	-1.924406e-06	4.070168e-02
3.880001e-01	-1.096056e-06	3.790744e-02
3.921153e-01	-2.523018e-07	3.342022e-02
3.971349e-01	5.856500e-07	2.901119e-02
4.016482e-01	1.396098e-06	2.163316e-02
4.063167e-01	2.156466e-06	1.394518e-02
4.097816e-01	2.847088e-06	1.305328e-03
4.117462e-01	3.445626e-06	-1.173133e-02
4.129799e-01	3.937277e-06	-3.273443e-02
4.052964e-01	4.303560e-06	-5.385558e-02
3.852765e-01	4.537134e-06	-8.806685e-02
3.494070e-01	4.627707e-06	-1.235770e-01
2.471255e-01	4.573362e-06	-1.741313e-01
4.282371e-02	4.376124e-06	-8.419483e-02