# vtk DataFile Version 2.0
OUTPUT by 3D-VPM
ASCII
DATASET UNSTRUCTURED_GRID
POINTS 820 double
1.000000e+00	0.000000e+00	1.514348e-03
9.931674e-01	0.000000e+00	5.525232e-04
9.755282e-01	0.000000e+00	-1.898962e-03
9.448927e-01	0.000000e+00	-6.022062e-03
9.045085e-01	0.000000e+00	-1.126029e-02
8.530688e-01	0.000000e+00	-1.755171e-02
7.938926e-01	0.000000e+00	-2.439051e-02
7.266841e-01	0.000000e+00	-3.152685e-02
6.545085e-01	0.000000e+00	-3.857838e-02
5.781101e-01	0.000000e+00	-4.508987e-02
5.000000e-01	0.000000e+00	-5.079590e-02
4.218900e-01	0.000000e+00	-5.500298e-02
3.454915e-01	0.000000e+00	-5.762505e-02
2.733159e-01	0.000000e+00	-5.785496e-02
2.061074e-01	0.000000e+00	-5.594008e-02
1.469312e-01	0.000000e+00	-5.124954e-02
9.549150e-02	0.000000e+00	-4.441426e-02
5.510729e-02	0.000000e+00	-3.518320e-02
2.447174e-02	0.000000e+00	-2.434813e-02
6.832625e-03	0.000000e+00	-1.191914e-02
0.000000e+00	0.000000e+00	1.514348e-03
6.832625e-03	0.000000e+00	1.494783e-02
2.447174e-02	0.000000e+00	2.737683e-02
5.510728e-02	0.000000e+00	3.821190e-02
9.549150e-02	0.000000e+00	4.744296e-02
1.469312e-01	0.000000e+00	5.427823e-02
2.061074e-01	0.000000e+00	5.896879e-02
2.733159e-01	0.000000e+00	6.088366e-02
3.454915e-01	0.000000e+00	6.065375e-02
4.218900e-01	0.000000e+00	5.803168e-02
5.000000e-01	0.000000e+00	5.382460e-02
5.781101e-01	0.000000e+00	4.811856e-02
6.545085e-01	0.000000e+00	4.160708e-02
7.266841e-01	0.000000e+00	3.455555e-02
7.938926e-01	0.000000e+00	2.741921e-02
8.530688e-01	0.000000e+00	2.058041e-02
9.045085e-01	0.000000e+00	1.428899e-02
9.448927e-01	0.000000e+00	9.050758e-03
9.755282e-01	0.000000e+00	4.927658e-03
9.931674e-01	0.000000e+00	2.476173e-03
1.000000e+00	0.000000e+00	1.514348e-03
1.000000e+00	1.052632e+00	1.514348e-03
9.931674e-01	1.052632e+00	5.525232e-04
9.755282e-01	1.052632e+00	-1.898962e-03
9.448927e-01	1.052632e+00	-6.022062e-03
9.045085e-01	1.052632e+00	-1.126029e-02
8.530689e-01	1.052632e+00	-1.755171e-02
7.938926e-01	1.052632e+00	-2.439051e-02
7.266841e-01	1.052632e+00	-3.152685e-02
6.545085e-01	1.052632e+00	-3.857838e-02
5.781101e-01	1.052632e+00	-4.508987e-02
5.000000e-01	1.052632e+00	-5.079590e-02
4.218900e-01	1.052632e+00	-5.500298e-02
3.454915e-01	1.052632e+00	-5.762505e-02
2.733158e-01	1.052632e+00	-5.785496e-02
2.061074e-01	1.052632e+00	-5.594008e-02
1.469311e-01	1.052632e+00	-5.124954e-02
9.549150e-02	1.052632e+00	-4.441426e-02
5.510729e-02	1.052632e+00	-3.518320e-02
2.447174e-02	1.052632e+00	-2.434813e-02
6.832625e-03	1.052632e+00	-1.191914e-02
0.000000e+00	1.052632e+00	1.514348e-03
6.832625e-03	1.052632e+00	1.494783e-02
2.447174e-02	1.052632e+00	2.737683e-02
5.510728e-02	1.052632e+00	3.821190e-02
9.549150e-02	1.052632e+00	4.744296e-02
1.469311e-01	1.052632e+00	5.427823e-02
2.061074e-01	1.052632e+00	5.896879e-02
2.733158e-01	1.052632e+00	6.088366e-02
3.454915e-01	1.052632e+00	6.065375e-02
4.218900e-01	1.052632e+00	5.803168e-02
5.000000e-01	1.052632e+00	5.382460e-02
5.781101e-01	1.052632e+00	4.811856e-02
6.545085e-01	1.052632e+00	4.160708e-02
7.266841e-01	1.052632e+00	3.455555e-02
7.938926e-01	1.052632e+00	2.741921e-02
8.530689e-01	1.052632e+00	2.058041e-02
9.045085e-01	1.052632e+00	1.428899e-02
9.448927e-01	1.052632e+00	9.050758e-03
9.755282e-01	1.052632e+00	4.927658e-03
9.931674e-01	1.052632e+00	2.476173e-03
1.000000e+00	1.052632e+00	1.514348e-03
1.000000e+00	2.105263e+00	1.514348e-03
9.931674e-01	2.105263e+00	5.525232e-04
9.755282e-01	2.105263e+00	-1.898962e-03
9.448927e-01	2.105263e+00	-6.022062e-03
9.045085e-01	2.105263e+00	-1.126029e-02
8.530689e-01	2.105263e+00	-1.755171e-02
7.938926e-01	2.105263e+00	-2.439051e-02
7.266841e-01	2.105263e+00	-3.152685e-02
6.545085e-01	2.105263e+00	-3.857838e-02
5.781101e-01	2.105263e+00	-4.508987e-02
5.000000e-01	2.105263e+00	-5.079590e-02
4.218900e-01	2.105263e+00	-5.500298e-02
3.454915e-01	2.105263e+00	-5.762505e-02
2.733158e-01	2.105263e+00	-5.785496e-02
2.061074e-01	2.105263e+00	-5.594008e-02
1.469312e-01	2.105263e+00	-5.124954e-02
9.549150e-02	2.105263e+00	-4.441426e-02
5.510729e-02	2.105263e+00	-3.518320e-02
2.447174e-02	2.105263e+00	-2.434813e-02
6.832625e-03	2.105263e+00	-1.191914e-02
0.000000e+00	2.105263e+00	1.514348e-03
6.832625e-03	2.105263e+00	1.494783e-02
2.447174e-02	2.105263e+00	2.737683e-02
5.510728e-02	2.105263e+00	3.821190e-02
9.549150e-02	2.105263e+00	4.744296e-02
1.469312e-01	2.105263e+00	5.427823e-02
2.061074e-01	2.105263e+00	5.896879e-02
2.733158e-01	2.105263e+00	6.088366e-02
3.454915e-01	2.105263e+00	6.065375e-02
4.218900e-01	2.105263e+00	5.803168e-02
5.000000e-01	2.105263e+00	5.382460e-02
5.781101e-01	2.105263e+00	4.811856e-02
6.545085e-01	2.105263e+00	4.160708e-02
7.266841e-01	2.105263e+00	3.455555e-02
7.938926e-01	2.105263e+00	2.741921e-02
8.530689e-01	2.105263e+00	2.058041e-02
9.045085e-01	2.105263e+00	1.428899e-02
9.448927e-01	2.105263e+00	9.050758e-03
9.755282e-01	2.105263e+00	4.927658e-03
9.931674e-01	2.105263e+00	2.476173e-03
1.000000e+00	2.105263e+00	1.514348e-03
1.000000e+00	3.157895e+00	1.514348e-03
9.931674e-01	3.157895e+00	5.525232e-04
9.755282e-01	3.157895e+00	-1.898962e-03
9.448927e-01	3.157895e+00	-6.022062e-03
9.045085e-01	3.157895e+00	-1.126029e-02
8.530689e-01	3.157895e+00	-1.755171e-02
7.938926e-01	3.157895e+00	-2.439051e-02
7.266842e-01	3.157895e+00	-3.152685e-02
6.545085e-01	3.157895e+00	-3.857838e-02
5.781101e-01	3.157895e+00	-4.508987e-02
5.000000e-01	3.157895e+00	-5.079590e-02
4.218900e-01	3.157895e+00	-5.500298e-02
3.454915e-01	3.157895e+00	-5.762505e-02
2.733158e-01	3.157895e+00	-5.785496e-02
2.061074e-01	3.157895e+00	-5.594008e-02
1.469312e-01	3.157895e+00	-5.124954e-02
9.549150e-02	3.157895e+00	-4.441426e-02
5.510729e-02	3.157895e+00	-3.518320e-02
2.447174e-02	3.157895e+00	-2.434813e-02
6.832625e-03	3.157895e+00	-1.191914e-02
0.000000e+00	3.157895e+00	1.514348e-03
6.832625e-03	3.157895e+00	1.494783e-02
2.447174e-02	3.157895e+00	2.737683e-02
5.510728e-02	3.157895e+00	3.821190e-02
9.549150e-02	3.157895e+00	4.744296e-02
1.469312e-01	3.157895e+00	5.427823e-02
2.061074e-01	3.157895e+00	5.896879e-02
2.733158e-01	3.157895e+00	6.088366e-02
3.454915e-01	3.157895e+00	6.065375e-02
4.218900e-01	3.157895e+00	5.803168e-02
5.000000e-01	3.157895e+00	5.382460e-02
5.781101e-01	3.157895e+00	4.811856e-02
6.545085e-01	3.157895e+00	4.160708e-02
7.266842e-01	3.157895e+00	3.455555e-02
7.938926e-01	3.157895e+00	2.741921e-02
8.530689e-01	3.157895e+00	2.058041e-02
9.045085e-01	3.157895e+00	1.428899e-02
9.448927e-01	3.157895e+00	9.050758e-03
9.755282e-01	3.157895e+00	4.927658e-03
9.931674e-01	3.157895e+00	2.476173e-03
1.000000e+00	3.157895e+00	1.514348e-03
1.000000e+00	4.210526e+00	1.514348e-03
9.931674e-01	4.210526e+00	5.525232e-04
9.755282e-01	4.210526e+00	-1.898962e-03
9.448927e-01	4.210526e+00	-6.022062e-03
9.045085e-01	4.210526e+00	-1.126029e-02
8.530689e-01	4.210526e+00	-1.755171e-02
7.938926e-01	4.210526e+00	-2.439051e-02
7.266841e-01	4.210526e+00	-3.152685e-02
6.545085e-01	4.210526e+00	-3.857838e-02
5.781101e-01	4.210526e+00	-4.508987e-02
5.000000e-01	4.210526e+00	-5.079590e-02
4.218900e-01	4.210526e+00	-5.500298e-02
3.454915e-01	4.210526e+00	-5.762505e-02
2.733158e-01	4.210526e+00	-5.785496e-02
2.061074e-01	4.210526e+00	-5.594008e-02
1.469311e-01	4.210526e+00	-5.124954e-02
9.549150e-02	4.210526e+00	-4.441426e-02
5.510729e-02	4.210526e+00	-3.518320e-02
2.447174e-02	4.210526e+00	-2.434813e-02
6.832625e-03	4.210526e+00	-1.191914e-02
0.000000e+00	4.210526e+00	1.514348e-03
6.832625e-03	4.210526e+00	1.494783e-02
2.447174e-02	4.210526e+00	2.737683e-02
5.510728e-02	4.210526e+00	3.821190e-02
9.549150e-02	4.210526e+00	4.744296e-02
1.469311e-01	4.210526e+00	5.427823e-02
2.061074e-01	4.210526e+00	5.896879e-02
2.733158e-01	4.210526e+00	6.088366e-02
3.454915e-01	4.210526e+00	6.065375e-02
4.218900e-01	4.210526e+00	5.803168e-02
5.000000e-01	4.210526e+00	5.382460e-02
5.781101e-01	4.210526e+00	4.811856e-02
6.545085e-01	4.210526e+00	4.160708e-02
7.266841e-01	4.210526e+00	3.455555e-02
7.938926e-01	4.210526e+00	2.741921e-02
8.530689e-01	4.210526e+00	2.058041e-02
9.045085e-01	4.210526e+00	1.428899e-02
9.448927e-01	4.210526e+00	9.050758e-03
9.755282e-01	4.210526e+00	4.927658e-03
9.931674e-01	4.210526e+00	2.476173e-03
1.000000e+00	4.210526e+00	1.514348e-03
1.000000e+00	5.263158e+00	1.514348e-03
9.931674e-01	5.263158e+00	5.525232e-04
9.755282e-01	5.263158e+00	-1.898962e-03
9.448927e-01	5.263158e+00	-6.022062e-03
9.045085e-01	5.263158e+00	-1.126029e-02
8.530689e-01	5.263158e+00	-1.755171e-02
7.938926e-01	5.263158e+00	-2.439051e-02
7.266842e-01	5.263158e+00	-3.152685e-02
6.545085e-01	5.263158e+00	-3.857838e-02
5.781101e-01	5.263158e+00	-4.508987e-02
5.000000e-01	5.263158e+00	-5.079590e-02
4.218900e-01	5.263158e+00	-5.500298e-02
3.454915e-01	5.263158e+00	-5.762505e-02
2.733158e-01	5.263158e+00	-5.785496e-02
2.061074e-01	5.263158e+00	-5.594008e-02
1.469311e-01	5.263158e+00	-5.124954e-02
9.549150e-02	5.263158e+00	-4.441426e-02
5.510729e-02	5.263158e+00	-3.518320e-02
2.447174e-02	5.263158e+00	-2.434813e-02
6.832625e-03	5.263158e+00	-1.191914e-02
0.000000e+00	5.263158e+00	1.514348e-03
6.832625e-03	5.263158e+00	1.494783e-02
2.447174e-02	5.263158e+00	2.737683e-02
5.510728e-02	5.263158e+00	3.821190e-02
9.549150e-02	5.263158e+00	4.744296e-02
1.469311e-01	5.263158e+00	5.427823e-02
2.061074e-01	5.263158e+00	5.896879e-02
2.733158e-01	5.263158e+00	6.088366e-02
3.454915e-01	5.263158e+00	6.065375e-02
4.218900e-01	5.263158e+00	5.803168e-02
5.000000e-01	5.263158e+00	5.382460e-02
5.781101e-01	5.263158e+00	4.811856e-02
6.545085e-01	5.263158e+00	4.160708e-02
7.266842e-01	5.263158e+00	3.455555e-02
7.938926e-01	5.263158e+00	2.741921e-02
8.530689e-01	5.263158e+00	2.058041e-02
9.045085e-01	5.263158e+00	1.428899e-02
9.448927e-01	5.263158e+00	9.050758e-03
9.755282e-01	5.263158e+00	4.927658e-03
9.931674e-01	5.263158e+00	2.476173e-03
1.000000e+00	5.263158e+00	1.514348e-03
1.000000e+00	6.315789e+00	1.514348e-03
9.931673e-01	6.315789e+00	5.525232e-04
9.755282e-01	6.315789e+00	-1.898962e-03
9.448927e-01	6.315789e+00	-6.022062e-03
9.045085e-01	6.315789e+00	-1.126029e-02
[...]
CELL_DATA 760
VECTORS V double
2.841209e-01	1.297031e-03	3.999541e-02
2.967626e-01	1.310660e-03	4.124399e-02
3.107511e-01	1.344992e-03	4.182266e-02
3.245465e-01	1.386462e-03	4.209689e-02
3.366141e-01	1.422200e-03	4.117019e-02
3.487648e-01	1.438980e-03	4.030558e-02
3.588912e-01	1.424170e-03	3.810785e-02
3.692985e-01	1.366661e-03	3.608030e-02
3.788373e-01	1.259398e-03	3.228853e-02
3.890703e-01	1.100918e-03	2.842206e-02
3.991200e-01	8.968085e-04	2.149699e-02
4.096697e-01	6.594957e-04	1.406026e-02
4.200533e-01	4.051365e-04	1.338048e-03
4.299354e-01	1.522730e-04	-1.224957e-02
4.411625e-01	-8.563863e-05	-3.496830e-02
4.457784e-01	-2.975062e-04	-5.923482e-02
4.425650e-01	-4.825176e-04	-1.011619e-01
4.299890e-01	-6.391196e-04	-1.520770e-01
3.564050e-01	-7.766047e-04	-2.511325e-01
1.435378e-01	-8.928235e-04	-2.822067e-01
4.316890e-02	-1.005416e-03	8.487349e-02
2.464618e-01	-1.083170e-03	1.736636e-01
3.480528e-01	-1.139508e-03	1.230981e-01
3.833801e-01	-1.166316e-03	8.763338e-02
4.029205e-01	-1.157477e-03	5.353988e-02
4.101422e-01	-1.105978e-03	3.250957e-02
4.085069e-01	-1.007453e-03	1.163898e-02
4.062197e-01	-8.641035e-04	-1.293982e-03
4.025489e-01	-6.828414e-04	-1.381587e-02
3.977893e-01	-4.768157e-04	-2.142532e-02
3.932903e-01	-2.604425e-04	-2.873034e-02
3.883470e-01	-4.797558e-05	-3.309905e-02
3.843168e-01	1.498298e-04	-3.754759e-02
3.796443e-01	3.267136e-04	-4.031146e-02
3.758035e-01	4.806185e-04	-4.343035e-02
3.703765e-01	6.124352e-04	-4.529958e-02
3.654041e-01	7.236291e-04	-4.739652e-02
3.580677e-01	8.133604e-04	-4.819079e-02
3.484549e-01	8.754756e-04	-4.842819e-02
3.366429e-01	8.986497e-04	-4.738887e-02
2.829710e-01	7.484492e-04	3.983353e-02
2.953585e-01	7.557239e-04	4.104885e-02
3.094603e-01	7.740599e-04	4.164893e-02
3.235895e-01	7.961623e-04	4.197275e-02
3.360983e-01	8.149283e-04	4.110711e-02
3.487658e-01	8.230525e-04	4.030569e-02
3.594725e-01	8.136260e-04	3.816958e-02
3.705020e-01	7.806269e-04	3.619789e-02
3.806760e-01	7.202765e-04	3.244524e-02
3.915157e-01	6.317924e-04	2.860070e-02
4.021006e-01	5.181388e-04	2.165753e-02
4.130775e-01	3.859072e-04	1.417722e-02
4.237582e-01	2.436627e-04	1.349849e-03
4.338163e-01	1.013444e-04	-1.236014e-02
4.451321e-01	-3.377091e-05	-3.528294e-02
4.498250e-01	-1.554299e-04	-5.977253e-02
4.467523e-01	-2.629307e-04	-1.021190e-01
4.345194e-01	-3.549010e-04	-1.536793e-01
3.612617e-01	-4.362425e-04	-2.545547e-01
1.471947e-01	-5.051885e-04	-2.893965e-01
4.023265e-02	-5.718393e-04	7.910060e-02
2.440206e-01	-6.176208e-04	1.719435e-01
3.468574e-01	-6.506510e-04	1.226753e-01
3.832123e-01	-6.665320e-04	8.759501e-02
4.035703e-01	-6.621905e-04	5.362621e-02
4.114880e-01	-6.340169e-04	3.261624e-02
4.104338e-01	-5.798142e-04	1.169388e-02
4.085993e-01	-5.008456e-04	-1.301562e-03
4.052385e-01	-4.007948e-04	-1.390817e-02
4.006432e-01	-2.866511e-04	-2.157903e-02
3.961808e-01	-1.660813e-04	-2.894149e-02
3.911773e-01	-4.675646e-05	-3.334027e-02
3.870327e-01	6.542211e-05	-3.781293e-02
3.822381e-01	1.668658e-04	-4.058688e-02
3.783103e-01	2.561785e-04	-4.372005e-02
3.728649e-01	3.335285e-04	-4.560392e-02
3.679525e-01	3.993725e-04	-4.772708e-02
3.606960e-01	4.528719e-04	-4.854452e-02
3.509697e-01	4.902562e-04	-4.877769e-02
3.385981e-01	5.050281e-04	-4.766410e-02
2.828934e-01	1.328180e-04	3.982260e-02
2.952629e-01	1.333161e-04	4.103557e-02
3.093741e-01	1.345727e-04	4.163733e-02
3.235343e-01	1.358743e-04	4.196560e-02
3.360876e-01	1.363728e-04	4.110581e-02
3.488078e-01	1.352363e-04	4.031054e-02
3.595722e-01	1.317960e-04	3.818016e-02
3.706618e-01	1.255403e-04	3.621350e-02
3.808968e-01	1.162213e-04	3.246406e-02
3.917968e-01	1.038183e-04	2.862124e-02
4.024406e-01	8.856421e-05	2.167584e-02
4.134744e-01	7.092517e-05	1.419084e-02
4.242099e-01	5.148366e-05	1.351288e-03
4.343221e-01	3.104664e-05	-1.237456e-02
4.456933e-01	1.026947e-05	-3.532743e-02
4.504491e-01	-9.973345e-06	-5.985545e-02
4.474520e-01	-2.931585e-05	-1.022790e-01
4.353256e-01	-4.698454e-05	-1.539644e-01
3.621575e-01	-6.329203e-05	-2.551859e-01
1.478729e-01	-7.732065e-05	-2.907298e-01
3.970181e-02	-9.070372e-05	7.805693e-02
2.435935e-01	-9.959302e-05	1.716425e-01
3.466454e-01	-1.058101e-04	1.226003e-01
3.831570e-01	-1.089291e-04	8.758238e-02
4.036223e-01	-1.089462e-04	5.363313e-02
4.116203e-01	-1.057477e-04	3.262674e-02
4.106288e-01	-9.932307e-05	1.169943e-02
4.088444e-01	-8.987991e-05	-1.302343e-03
4.055240e-01	-7.768994e-05	-1.391797e-02
4.009610e-01	-6.325648e-05	-2.159615e-02
3.965242e-01	-4.712998e-05	-2.896658e-02
3.915407e-01	-2.997669e-05	-3.337125e-02
3.874131e-01	-1.245441e-05	-3.785009e-02
3.826350e-01	4.841283e-06	-4.062902e-02
3.787269e-01	2.140200e-05	-4.376819e-02
3.733079e-01	3.681522e-05	-4.565810e-02
3.684302e-01	5.065489e-05	-4.778904e-02
3.612113e-01	6.232079e-05	-4.861387e-02
3.515104e-01	7.086915e-05	-4.885284e-02
3.391355e-01	7.517782e-05	-4.773976e-02
2.828869e-01	4.693950e-05	3.982170e-02
2.952557e-01	4.697800e-05	4.103457e-02
3.093744e-01	4.705863e-05	4.163737e-02
3.235470e-01	4.689876e-05	4.196724e-02
3.361143e-01	4.624866e-05	4.110907e-02
3.488484e-01	4.491797e-05	4.031524e-02
3.596262e-01	4.280874e-05	3.818590e-02
3.707288e-01	3.986745e-05	3.622005e-02
3.809763e-01	3.610414e-05	3.247084e-02
3.918887e-01	3.156133e-05	2.862795e-02
4.025449e-01	2.632450e-05	2.168145e-02
4.135914e-01	2.051890e-05	1.419485e-02
4.243402e-01	1.428070e-05	1.351703e-03
4.344669e-01	7.806556e-06	-1.237868e-02
4.458541e-01	1.246394e-06	-3.534017e-02
4.506291e-01	-5.163347e-06	-5.987937e-02
4.476557e-01	-1.132309e-05	-1.023255e-01
4.355620e-01	-1.697995e-05	-1.540480e-01
3.624212e-01	-2.221210e-05	-2.553717e-01
1.480721e-01	-2.669772e-05	-2.911215e-01
3.954785e-02	-3.092431e-05	7.775423e-02
2.434726e-01	-3.366140e-05	1.715573e-01
3.465879e-01	-3.548731e-05	1.225800e-01
3.831449e-01	-3.628787e-05	8.757961e-02
4.036405e-01	-3.607862e-05	5.363555e-02
4.116609e-01	-3.485046e-05	3.262995e-02
4.106867e-01	-3.261399e-05	1.170108e-02
4.089166e-01	-2.943913e-05	-1.302572e-03
4.056084e-01	-2.539612e-05	-1.392087e-02
4.010562e-01	-2.061685e-05	-2.160128e-02
3.966294e-01	-1.523580e-05	-2.897426e-02
3.916552e-01	-9.425849e-06	-3.338101e-02
3.875366e-01	-3.372345e-06	-3.786216e-02
3.827678e-01	2.734676e-06	-4.064313e-02
3.788698e-01	8.697212e-06	-4.378471e-02
3.734623e-01	1.432559e-05	-4.567698e-02
3.685978e-01	1.940635e-05	-4.781078e-02
3.613922e-01	2.367931e-05	-4.863822e-02
3.517005e-01	2.679857e-05	-4.887925e-02
3.393252e-01	2.837551e-05	-4.776645e-02
2.828869e-01	2.124693e-05	3.982169e-02
2.952561e-01	2.124549e-05	4.103462e-02
3.093783e-01	2.122964e-05	4.163789e-02
3.235561e-01	2.107859e-05	4.196843e-02
3.361292e-01	2.068380e-05	4.111089e-02
3.488688e-01	1.996434e-05	4.031759e-02
3.596517e-01	1.888663e-05	3.818861e-02
3.707592e-01	1.744035e-05	3.622301e-02
3.810115e-01	1.564450e-05	3.247383e-02
3.919287e-01	1.352280e-05	2.863087e-02
4.025898e-01	1.111315e-05	2.168387e-02
4.136413e-01	8.470940e-06	1.419657e-02
4.243955e-01	5.655809e-06	1.351879e-03
4.345279e-01	2.752661e-06	-1.238042e-02
4.459216e-01	-1.742038e-07	-3.534552e-02
4.507043e-01	-3.021237e-06	-5.988936e-02
4.477404e-01	-5.744190e-06	-1.023449e-01
4.356597e-01	-8.229187e-06	-1.540826e-01
3.625290e-01	-1.050629e-05	-2.554477e-01
1.481520e-01	-1.243061e-05	-2.912787e-01
3.948818e-02	-1.419860e-05	7.763690e-02
2.434287e-01	-1.529186e-05	1.715264e-01
3.465703e-01	-1.595339e-05	1.225737e-01
3.831455e-01	-1.614230e-05	8.757975e-02
4.036533e-01	-1.586539e-05	5.363724e-02
4.116824e-01	-1.512924e-05	3.263166e-02
4.107150e-01	-1.394523e-05	1.170189e-02
4.089503e-01	-1.235517e-05	-1.302680e-03
4.056466e-01	-1.039809e-05	-1.392218e-02
4.010983e-01	-8.140226e-06	-2.160354e-02
3.966750e-01	-5.645669e-06	-2.897759e-02
3.917042e-01	-2.991227e-06	-3.338518e-02
3.875890e-01	-2.549803e-07	-3.786728e-02
3.828238e-01	2.481369e-06	-4.064906e-02
3.789296e-01	5.129647e-06	-4.379162e-02
3.735265e-01	7.605966e-06	-4.568484e-02
3.686669e-01	9.817147e-06	-4.781974e-02
3.614660e-01	1.165493e-05	-4.864815e-02
3.517773e-01	1.298358e-05	-4.888992e-02
3.394016e-01	1.365663e-05	-4.777722e-02
2.828872e-01	1.137734e-05	3.982173e-02
2.952568e-01	1.136768e-05	4.103473e-02
3.093808e-01	1.133847e-05	4.163824e-02
3.235614e-01	1.123170e-05	4.196911e-02
3.361376e-01	1.099125e-05	4.111192e-02
3.488802e-01	1.057216e-05	4.031891e-02
3.596659e-01	9.952193e-06	3.819012e-02
3.707759e-01	9.126178e-06	3.622464e-02
3.810304e-01	8.110173e-06	3.247545e-02
3.919498e-01	6.926225e-06	2.863241e-02
4.026131e-01	5.600291e-06	2.168513e-02
4.136670e-01	4.164254e-06	1.419745e-02
4.244237e-01	2.648769e-06	1.351969e-03
4.345589e-01	1.097554e-06	-1.238130e-02
4.459557e-01	-4.565412e-07	-3.534822e-02
4.507422e-01	-1.959531e-06	-5.989440e-02
4.477828e-01	-3.388128e-06	-1.023546e-01
4.357082e-01	-4.681793e-06	-1.540997e-01
3.625821e-01	-5.854466e-06	-2.554851e-01
1.481906e-01	-6.829725e-06	-2.913546e-01
3.946042e-02	-7.701284e-06	7.758233e-02
2.434098e-01	-8.212506e-06	1.715131e-01
3.465643e-01	-8.484500e-06	1.225716e-01
3.831484e-01	-8.501184e-06	8.758040e-02
4.036619e-01	-8.266270e-06	5.363839e-02
4.116951e-01	-7.788272e-06	3.263266e-02
4.107309e-01	-7.075717e-06	1.170234e-02
4.089686e-01	-6.154567e-06	-1.302738e-03
4.056670e-01	-5.047760e-06	-1.392288e-02
4.011205e-01	-3.792221e-06	-2.160474e-02
3.966987e-01	-2.423185e-06	-2.897933e-02
3.917295e-01	-9.839480e-07	-3.338734e-02
3.876158e-01	4.806569e-07	-3.786990e-02
3.828521e-01	1.925765e-06	-4.065207e-02
3.789595e-01	3.306325e-06	-4.379507e-02
3.735580e-01	4.580950e-06	-4.568869e-02
3.687003e-01	5.706883e-06	-4.782408e-02
3.615014e-01	6.637058e-06	-4.865292e-02
3.518142e-01	7.308370e-06	-4.889506e-02
3.394388e-01	7.650563e-06	-4.778244e-02
2.828885e-01	6.820985e-06	3.982192e-02
2.952584e-01	6.804629e-06	4.103495e-02
3.093833e-01	6.764870e-06	4.163857e-02
3.235652e-01	6.672536e-06	4.196961e-02
3.361429e-01	6.501629e-06	4.111257e-02
3.488871e-01	6.230433e-06	4.031971e-02
3.596745e-01	5.846000e-06	3.819102e-02
3.707859e-01	5.340780e-06	3.622563e-02
3.810419e-01	4.718257e-06	3.247642e-02
3.919625e-01	3.993251e-06	2.863334e-02
4.026271e-01	3.185182e-06	2.168588e-02
4.136822e-01	2.316125e-06	1.419797e-02
4.244402e-01	1.406289e-06	1.352022e-03
4.345769e-01	4.824924e-07	-1.238182e-02
4.459754e-01	-4.360786e-07	-3.534978e-02
4.507639e-01	-1.318037e-06	-5.989728e-02
4.478068e-01	-2.148892e-06	-1.023601e-01
4.357355e-01	-2.894793e-06	-1.541094e-01
3.626114e-01	-3.562164e-06	-2.555057e-01
1.482115e-01	-4.106768e-06	-2.913956e-01
3.944612e-02	-4.577599e-06	7.755421e-02
2.434011e-01	-4.835726e-06	1.715070e-01
3.465627e-01	-4.947726e-06	1.225711e-01
3.831515e-01	-4.907630e-06	8.758112e-02
4.036681e-01	-4.718423e-06	5.363922e-02
4.117036e-01	-4.386202e-06	3.263334e-02
4.107410e-01	-3.917996e-06	1.170263e-02
4.089800e-01	-3.330986e-06	-1.302774e-03
4.056794e-01	-2.639959e-06	-1.392331e-02
4.011338e-01	-1.868778e-06	-2.160545e-02
3.967128e-01	-1.040603e-06	-2.898036e-02
3.917443e-01	-1.834103e-07	-3.338860e-02
3.876311e-01	6.764804e-07	-3.787140e-02
3.828680e-01	1.514718e-06	-4.065376e-02
3.789761e-01	2.310184e-06	-4.379699e-02
3.735756e-01	3.043889e-06	-4.569084e-02
3.687190e-01	3.692890e-06	-4.782650e-02
3.615212e-01	4.228512e-06	-4.865558e-02
3.518348e-01	4.613646e-06	-4.889792e-02
3.394594e-01	4.809603e-06	-4.778534e-02
2.828899e-01	4.198731e-06	3.982212e-02
2.952601e-01	4.203979e-06	4.103518e-02
3.093856e-01	4.217666e-06	4.163888e-02
3.235682e-01	4.230209e-06	4.197000e-02
3.361467e-01	4.231765e-06	4.111304e-02
3.488918e-01	4.210312e-06	4.032025e-02
3.596799e-01	4.147771e-06	3.819160e-02
3.707923e-01	4.016342e-06	3.622624e-02
3.810490e-01	3.786606e-06	3.247703e-02
3.919705e-01	3.438430e-06	2.863392e-02
4.026358e-01	2.976025e-06	2.168635e-02
4.136917e-01	2.427387e-06	1.419830e-02
4.244505e-01	1.834473e-06	1.352054e-03
4.345880e-01	1.241945e-06	-1.238213e-02
4.459874e-01	6.761372e-07	-3.535074e-02
4.507770e-01	1.555242e-07	-5.989903e-02
4.478213e-01	-3.205908e-07	-1.023634e-01
4.357517e-01	-7.403984e-07	-1.541151e-01
3.626286e-01	-1.112542e-06	-2.555179e-01
1.482234e-01	-1.413418e-06	-2.914190e-01
3.943838e-02	-1.669142e-06	7.753899e-02
2.433970e-01	-1.804214e-06	1.715041e-01
3.465629e-01	-1.855242e-06	1.225711e-01
3.831544e-01	-1.818607e-06	8.758176e-02
4.036727e-01	-1.690954e-06	5.363982e-02
4.117094e-01	-1.469305e-06	3.263379e-02
4.107476e-01	-1.149315e-06	1.170282e-02
4.089873e-01	-7.421232e-07	-1.302798e-03
4.056873e-01	-2.719629e-07	-1.392358e-02
4.011421e-01	2.181400e-07	-2.160590e-02
3.967215e-01	6.849972e-07	-2.898099e-02
3.917532e-01	1.099735e-06	-3.338936e-02
3.876404e-01	1.455809e-06	-3.787230e-02
3.828776e-01	1.765934e-06	-4.065478e-02
3.789862e-01	2.048517e-06	-4.379816e-02
3.735863e-01	2.315883e-06	-4.569215e-02
3.687303e-01	2.566015e-06	-4.782797e-02
3.615332e-01	2.784263e-06	-4.865719e-02
3.518472e-01	2.947544e-06	-4.889964e-02
3.394718e-01	3.031662e-06	-4.778709e-02
2.828876e-01	-3.331504e-04	3.982179e-02
2.952573e-01	-3.337414e-04	4.103479e-02
3.093825e-01	-3.356122e-04	4.163845e-02
3.235649e-01	-3.321838e-04	4.196957e-02
3.361433e-01	-3.217080e-04	4.111262e-02
3.488886e-01	-3.336621e-04	4.031989e-02
3.596776e-01	-2.806421e-04	3.819135e-02
3.707912e-01	-3.037166e-04	3.622614e-02
3.810499e-01	-2.173557e-04	3.247711e-02
3.919735e-01	-2.499613e-04	2.863414e-02
4.026407e-01	-1.314042e-04	2.168662e-02
4.136981e-01	-1.713196e-04	1.419852e-02
4.244576e-01	-2.806226e-05	1.352077e-03
4.345952e-01	-7.449189e-05	-1.238234e-02
4.459945e-01	8.736040e-05	-3.535130e-02
4.507842e-01	1.896046e-04	-5.989997e-02
4.478288e-01	2.370183e-04	-1.023651e-01
4.357598e-01	2.191825e-04	-1.541180e-01
3.626373e-01	2.104181e-04	-2.555240e-01
1.482295e-01	2.068735e-04	-2.914309e-01
3.943433e-02	2.067614e-04	7.753104e-02
2.433947e-01	2.101148e-04	1.715025e-01
3.465627e-01	2.186939e-04	1.225711e-01
3.831558e-01	2.363619e-04	8.758209e-02
4.036754e-01	1.887966e-04	5.364018e-02
4.117133e-01	8.642133e-05	3.263410e-02
4.107525e-01	-7.553880e-05	1.170296e-02
4.089928e-01	-2.919206e-05	-1.302815e-03
4.056927e-01	-1.725060e-04	-1.392377e-02
4.011467e-01	-1.326199e-04	-2.160615e-02
3.967247e-01	-2.511790e-04	-2.898123e-02
3.917549e-01	-2.185459e-04	-3.338950e-02
3.876408e-01	-3.048544e-04	-3.787234e-02
3.828773e-01	-2.817056e-04	-4.065474e-02
3.789857e-01	-3.346371e-04	-4.379810e-02
3.735861e-01	-3.225863e-04	-4.569213e-02
3.687308e-01	-3.329676e-04	-4.782803e-02
3.615343e-01	-3.363124e-04	-4.865735e-02
3.518488e-01	-3.343801e-04	-4.889987e-02
3.394736e-01	-3.337571e-04	-4.778734e-02
2.829897e-01	-6.106219e-09	3.983616e-02
2.954079e-01	-4.831612e-09	4.105572e-02
3.092997e-01	-6.656052e-09	4.162732e-02
3.231978e-01	-1.002858e-08	4.192195e-02
3.362189e-01	-1.354296e-08	4.112186e-02
3.480999e-01	-1.678522e-08	4.022873e-02
3.592695e-01	-1.929740e-08	3.814802e-02
3.698267e-01	-2.039376e-08	3.613191e-02
3.803391e-01	-1.983499e-08	3.241653e-02
3.908018e-01	-1.734944e-08	2.854855e-02
4.015603e-01	-1.400871e-08	2.162843e-02
4.123090e-01	-2.015809e-08	1.415084e-02
4.229476e-01	-1.899444e-08	1.347267e-03
4.329243e-01	-1.917717e-08	-1.233473e-02
4.412755e-01	-2.014677e-08	-3.497725e-02
4.476452e-01	-2.136828e-08	-5.948287e-02
4.469190e-01	-2.152989e-08	-1.021571e-01
4.366072e-01	-2.187156e-08	-1.544177e-01
3.631322e-01	-2.139835e-08	-2.558727e-01
1.483592e-01	-2.004758e-08	-2.916860e-01
3.956109e-02	-1.738014e-08	7.778026e-02
2.438864e-01	-1.415147e-08	1.718489e-01
3.474077e-01	-1.010447e-08	1.228699e-01
3.822443e-01	-5.598209e-09	8.737375e-02
4.005352e-01	-1.875542e-09	5.322292e-02
4.069933e-01	2.464419e-09	3.225997e-02
4.090809e-01	5.693298e-09	1.165533e-02
4.074824e-01	7.079395e-09	-1.298004e-03
4.043034e-01	6.203747e-09	-1.387608e-02
4.000662e-01	1.164421e-08	-2.154795e-02
3.955531e-01	9.844698e-09	-2.889564e-02
3.910444e-01	1.020992e-08	-3.332895e-02
3.866767e-01	1.295873e-08	-3.777814e-02
3.824698e-01	1.673437e-08	-4.061147e-02
3.781976e-01	1.990960e-08	-4.370702e-02
3.736623e-01	2.094473e-08	-4.570145e-02
3.683644e-01	1.988746e-08	-4.778050e-02
3.614523e-01	1.786002e-08	-4.864631e-02
3.520003e-01	1.636193e-08	-4.892092e-02
3.395769e-01	1.809247e-08	-4.780189e-02
2.828874e-01	3.331724e-04	3.982176e-02
2.952574e-01	3.337605e-04	4.103480e-02
3.093827e-01	3.356280e-04	4.163848e-02
3.235651e-01	3.321965e-04	4.196959e-02
3.361435e-01	3.217180e-04	4.111264e-02
3.488887e-01	3.336703e-04	4.031990e-02
3.596776e-01	2.806500e-04	3.819135e-02
3.707912e-01	3.037274e-04	3.622614e-02
3.810498e-01	2.173653e-04	3.247710e-02
3.919734e-01	2.499773e-04	2.863414e-02
4.026407e-01	1.314251e-04	2.168662e-02
4.136981e-01	1.713434e-04	1.419852e-02
4.244575e-01	2.808690e-05	1.352077e-03
4.345953e-01	7.451545e-05	-1.238234e-02
4.459946e-01	-8.733971e-05	-3.535131e-02
4.507842e-01	-1.895866e-04	-5.989998e-02
4.478288e-01	-2.370037e-04	-1.023651e-01
4.357598e-01	-2.191699e-04	-1.541180e-01
3.626372e-01	-2.104066e-04	-2.555239e-01
1.482293e-01	-2.068621e-04	-2.914307e-01
3.943453e-02	-2.067486e-04	7.753142e-02
2.433950e-01	-2.100995e-04	1.715027e-01
3.465630e-01	-2.186748e-04	1.225712e-01
3.831560e-01	-2.363382e-04	8.758214e-02
4.036756e-01	-1.887670e-04	5.364021e-02
4.117134e-01	-8.638696e-05	3.263411e-02
4.107526e-01	7.557731e-05	1.170296e-02
4.089928e-01	2.923141e-05	-1.302815e-03
4.056928e-01	1.725428e-04	-1.392377e-02
4.011468e-01	1.326511e-04	-2.160615e-02
3.967247e-01	2.512031e-04	-2.898123e-02
3.917550e-01	2.185640e-04	-3.338951e-02
3.876409e-01	3.048781e-04	-3.787235e-02
3.828774e-01	2.817289e-04	-4.065476e-02
3.789858e-01	3.346616e-04	-4.379811e-02
3.735861e-01	3.226108e-04	-4.569213e-02
3.687307e-01	3.329903e-04	-4.782802e-02
3.615342e-01	3.363318e-04	-4.865733e-02
3.518488e-01	3.343957e-04	-4.889986e-02
3.394739e-01	3.337694e-04	-4.778738e-02
2.828904e-01	-4.139684e-06	3.982219e-02
2.952604e-01	-4.150080e-06	4.103523e-02
3.093858e-01	-4.166362e-06	4.163890e-02
3.235684e-01	-4.179797e-06	4.197002e-02
3.361468e-01	-4.181924e-06	4.111305e-02
3.488918e-01	-4.159948e-06	4.032025e-02
3.596799e-01	-4.095244e-06	3.819160e-02
3.707922e-01	-3.960817e-06	3.622624e-02
3.810489e-01	-3.729504e-06	3.247703e-02
3.919703e-01	-3.383811e-06	2.863391e-02
4.026356e-01	-2.927058e-06	2.168634e-02
4.136916e-01	-2.378018e-06	1.419829e-02
4.244505e-01	-1.793958e-06	1.352054e-03
4.345881e-01	-1.209927e-06	-1.238213e-02
4.459875e-01	-6.521452e-07	-3.535074e-02
4.507771e-01	-1.389548e-07	-5.989904e-02
4.478215e-01	3.294741e-07	-1.023634e-01
4.357518e-01	7.431198e-07	-1.541151e-01
3.626287e-01	1.109725e-06	-2.555179e-01
1.482234e-01	1.406081e-06	-2.914190e-01
3.943851e-02	1.657963e-06	7.753925e-02
2.433973e-01	1.791082e-06	1.715043e-01
3.465631e-01	1.841560e-06	1.225712e-01
3.831546e-01	1.805828e-06	8.758182e-02
4.036729e-01	1.681542e-06	5.363985e-02
4.117095e-01	1.463498e-06	3.263380e-02
4.107477e-01	1.148118e-06	1.170282e-02
4.089873e-01	7.459479e-07	-1.302798e-03
4.056872e-01	2.803598e-07	-1.392357e-02
4.011419e-01	-2.152262e-07	-2.160589e-02
3.967213e-01	-6.847838e-07	-2.898098e-02
3.917532e-01	-1.106328e-06	-3.338936e-02
3.876405e-01	-1.470666e-06	-3.787231e-02
3.828776e-01	-1.786756e-06	-4.065478e-02
3.789863e-01	-2.070981e-06	-4.379817e-02
3.735862e-01	-2.335910e-06	-4.569215e-02
3.687302e-01	-2.582044e-06	-4.782795e-02
3.615330e-01	-2.797300e-06	-4.865716e-02
3.518468e-01	-2.959950e-06	-4.889959e-02
3.394713e-01	-3.048089e-06	-4.778701e-02
2.828891e-01	-6.720382e-06	3.982201e-02
2.952589e-01	-6.706169e-06	4.103501e-02
3.093836e-01	-6.667097e-06	4.163861e-02
3.235654e-01	-6.574415e-06	4.196964e-02
3.361430e-01	-6.402067e-06	4.111259e-02
3.488872e-01	-6.128831e-06	4.031972e-02
3.596745e-01	-5.744434e-06	3.819102e-02
3.707859e-01	-5.246322e-06	3.622562e-02
3.810418e-01	-4.633619e-06	3.247642e-02
3.919625e-01	-3.932178e-06	2.863335e-02
4.026272e-01	-3.150356e-06	2.168589e-02
4.136824e-01	-2.307627e-06	1.419798e-02
4.244405e-01	-1.422696e-06	1.352023e-03
4.345772e-01	-5.213734e-07	-1.238182e-02
4.459757e-01	3.778228e-07	-3.534981e-02
4.507642e-01	1.242153e-06	-5.989732e-02
4.478072e-01	2.058195e-06	-1.023602e-01
4.357358e-01	2.790467e-06	-1.541095e-01
3.626117e-01	3.445657e-06	-2.555060e-01