# vtk DataFile Version 2.0
OUTPUT by 3D-VPM
ASCII
DATASET UNSTRUCTURED_GRID
POINTS 820 double
9.510565e-01	0.000000e+00	-3.090170e-01
9.442611e-01	0.000000e+00	-3.078203e-01
9.267277e-01	0.000000e+00	-3.047010e-01
8.963175e-01	0.000000e+00	-2.991555e-01
8.562911e-01	0.000000e+00	-2.916579e-01
8.054250e-01	0.000000e+00	-2.817457e-01
7.470317e-01	0.000000e+00	-2.699633e-01
6.809074e-01	0.000000e+00	-2.559818e-01
6.100852e-01	0.000000e+00	-2.403847e-01
5.354138e-01	0.000000e+00	-2.229691e-01
4.593635e-01	0.000000e+00	-2.042585e-01
3.837764e-01	0.000000e+00	-1.841224e-01
3.103069e-01	0.000000e+00	-1.630077e-01
2.415927e-01	0.000000e+00	-1.409228e-01
1.782654e-01	0.000000e+00	-1.183331e-01
1.234349e-01	0.000000e+00	-9.558566e-02
7.662509e-02	0.000000e+00	-7.318920e-02
4.106998e-02	0.000000e+00	-5.193053e-02
1.528206e-02	0.000000e+00	-3.215886e-02
2.347037e-03	0.000000e+00	-1.488740e-02
0.000000e+00	0.000000e+00	0.000000e+00
1.064939e-02	0.000000e+00	1.066461e-02
3.126595e-02	0.000000e+00	1.703450e-02
6.375031e-02	0.000000e+00	1.787236e-02
1.050105e-01	0.000000e+00	1.417221e-02
1.560448e-01	0.000000e+00	4.777214e-03
2.137742e-01	0.000000e+00	-9.048270e-03
2.782849e-01	0.000000e+00	-2.799567e-02
3.468570e-01	0.000000e+00	-5.051783e-02
4.187060e-01	0.000000e+00	-7.662000e-02
4.916930e-01	0.000000e+00	-1.047585e-01
5.642168e-01	0.000000e+00	-1.343226e-01
6.348639e-01	0.000000e+00	-1.641238e-01
7.013280e-01	0.000000e+00	-1.931337e-01
7.630418e-01	0.000000e+00	-2.206893e-01
8.172084e-01	0.000000e+00	-2.454799e-01
8.641863e-01	0.000000e+00	-2.673591e-01
9.009752e-01	0.000000e+00	-2.848204e-01
9.288372e-01	0.000000e+00	-2.982085e-01
9.448555e-01	0.000000e+00	-3.059908e-01
9.510565e-01	0.000000e+00	-3.090170e-01
9.510565e-01	1.052632e+00	-3.090170e-01
9.442611e-01	1.052632e+00	-3.078203e-01
9.267277e-01	1.052632e+00	-3.047010e-01
8.963175e-01	1.052632e+00	-2.991555e-01
8.562911e-01	1.052632e+00	-2.916579e-01
8.054250e-01	1.052632e+00	-2.817457e-01
7.470317e-01	1.052632e+00	-2.699633e-01
6.809074e-01	1.052632e+00	-2.559818e-01
6.100852e-01	1.052632e+00	-2.403847e-01
5.354138e-01	1.052632e+00	-2.229691e-01
4.593635e-01	1.052632e+00	-2.042585e-01
3.837764e-01	1.052632e+00	-1.841224e-01
3.103069e-01	1.052632e+00	-1.630077e-01
2.415927e-01	1.052632e+00	-1.409228e-01
1.782654e-01	1.052632e+00	-1.183331e-01
1.234349e-01	1.052632e+00	-9.558566e-02
7.662509e-02	1.052632e+00	-7.318920e-02
4.106998e-02	1.052632e+00	-5.193053e-02
1.528206e-02	1.052632e+00	-3.215886e-02
2.347037e-03	1.052632e+00	-1.488740e-02
0.000000e+00	1.052632e+00	0.000000e+00
1.064939e-02	1.052632e+00	1.066461e-02
3.126595e-02	1.052632e+00	1.703450e-02
6.375031e-02	1.052632e+00	1.787236e-02
1.050105e-01	1.052632e+00	1.417221e-02
1.560448e-01	1.052632e+00	4.777214e-03
2.137742e-01	1.052632e+00	-9.048270e-03
2.782849e-01	1.052632e+00	-2.799567e-02
3.468570e-01	1.052632e+00	-5.051783e-02
4.187060e-01	1.052632e+00	-7.662000e-02
4.916930e-01	1.052632e+00	-1.047585e-01
5.642168e-01	1.052632e+00	-1.343226e-01
6.348639e-01	1.052632e+00	-1.641238e-01
7.013280e-01	1.052632e+00	-1.931337e-01
7.630418e-01	1.052632e+00	-2.206893e-01
8.172084e-01	1.052632e+00	-2.454799e-01
8.641863e-01	1.052632e+00	-2.673591e-01
9.009752e-01	1.052632e+00	-2.848204e-01
9.288372e-01	1.052632e+00	-2.982085e-01
9.448555e-01	1.052632e+00	-3.059908e-01
9.510565e-01	1.052632e+00	-3.090170e-01
9.510565e-01	2.105263e+00	-3.090170e-01
9.442611e-01	2.105263e+00	-3.078203e-01
9.267277e-01	2.105263e+00	-3.047010e-01
8.963175e-01	2.105263e+00	-2.991555e-01
8.562911e-01	2.105263e+00	-2.916579e-01
8.054250e-01	2.105263e+00	-2.817457e-01
7.470317e-01	2.105263e+00	-2.699633e-01
6.809074e-01	2.105263e+00	-2.559818e-01
6.100852e-01	2.105263e+00	-2.403847e-01
5.354138e-01	2.105263e+00	-2.229691e-01
4.593635e-01	2.105263e+00	-2.042585e-01
3.837764e-01	2.105263e+00	-1.841224e-01
3.103069e-01	2.105263e+00	-1.630077e-01
2.415927e-01	2.105263e+00	-1.409228e-01
1.782654e-01	2.105263e+00	-1.183331e-01
1.234349e-01	2.105263e+00	-9.558566e-02
7.662509e-02	2.105263e+00	-7.318920e-02
4.106998e-02	2.105263e+00	-5.193053e-02
1.528206e-02	2.105263e+00	-3.215886e-02
2.347037e-03	2.105263e+00	-1.488740e-02
0.000000e+00	2.105263e+00	0.000000e+00
1.064939e-02	2.105263e+00	1.066461e-02
3.126595e-02	2.105263e+00	1.703450e-02
6.375031e-02	2.105263e+00	1.787236e-02
1.050105e-01	2.105263e+00	1.417221e-02
1.560448e-01	2.105263e+00	4.777214e-03
2.137742e-01	2.105263e+00	-9.048270e-03
2.782849e-01	2.105263e+00	-2.799567e-02
3.468570e-01	2.105263e+00	-5.051783e-02
4.187060e-01	2.105263e+00	-7.662000e-02
4.916930e-01	2.105263e+00	-1.047585e-01
5.642168e-01	2.105263e+00	-1.343226e-01
6.348639e-01	2.105263e+00	-1.641238e-01
7.013280e-01	2.105263e+00	-1.931337e-01
7.630418e-01	2.105263e+00	-2.206893e-01
8.172084e-01	2.105263e+00	-2.454799e-01
8.641863e-01	2.105263e+00	-2.673591e-01
9.009752e-01	2.105263e+00	-2.848204e-01
9.288372e-01	2.105263e+00	-2.982085e-01
9.448555e-01	2.105263e+00	-3.059908e-01
9.510565e-01	2.105263e+00	-3.090170e-01
9.510565e-01	3.157895e+00	-3.090170e-01
9.442611e-01	3.157895e+00	-3.078203e-01
9.267277e-01	3.157895e+00	-3.047010e-01
8.963175e-01	3.157895e+00	-2.991555e-01
8.562911e-01	3.157895e+00	-2.916579e-01
8.054250e-01	3.157895e+00	-2.817457e-01
7.470317e-01	3.157895e+00	-2.699633e-01
6.809074e-01	3.157895e+00	-2.559818e-01
6.100852e-01	3.157895e+00	-2.403847e-01
5.354138e-01	3.157895e+00	-2.229691e-01
4.593635e-01	3.157895e+00	-2.042585e-01
3.837764e-01	3.157895e+00	-1.841224e-01
3.103069e-01	3.157895e+00	-1.630077e-01
2.415927e-01	3.157895e+00	-1.409228e-01
1.782654e-01	3.157895e+00	-1.183331e-01
1.234349e-01	3.157895e+00	-9.558566e-02
7.662509e-02	3.157895e+00	-7.318920e-02
4.106998e-02	3.157895e+00	-5.193053e-02
1.528206e-02	3.157895e+00	-3.215886e-02
2.347037e-03	3.157895e+00	-1.488740e-02
0.000000e+00	3.157895e+00	0.000000e+00
1.064939e-02	3.157895e+00	1.066461e-02
3.126595e-02	3.157895e+00	1.703450e-02
6.375031e-02	3.157895e+00	1.787236e-02
1.050105e-01	3.157895e+00	1.417221e-02
1.560448e-01	3.157895e+00	4.777214e-03
2.137742e-01	3.157895e+00	-9.048270e-03
2.782849e-01	3.157895e+00	-2.799567e-02
3.468570e-01	3.157895e+00	-5.051783e-02
4.187060e-01	3.157895e+00	-7.662000e-02
4.916930e-01	3.157895e+00	-1.047585e-01
5.642168e-01	3.157895e+00	-1.343226e-01
6.348639e-01	3.157895e+00	-1.641238e-01
7.013280e-01	3.157895e+00	-1.931337e-01
7.630418e-01	3.157895e+00	-2.206893e-01
8.172084e-01	3.157895e+00	-2.454799e-01
8.641863e-01	3.157895e+00	-2.673591e-01
9.009752e-01	3.157895e+00	-2.848204e-01
9.288372e-01	3.157895e+00	-2.982085e-01
9.448555e-01	3.157895e+00	-3.059908e-01
9.510565e-01	3.157895e+00	-3.090170e-01
9.510565e-01	4.210526e+00	-3.090170e-01
9.442611e-01	4.210526e+00	-3.078203e-01
9.267277e-01	4.210526e+00	-3.047010e-01
8.963175e-01	4.210526e+00	-2.991555e-01
8.562911e-01	4.210526e+00	-2.916579e-01
8.054250e-01	4.210526e+00	-2.817457e-01
7.470317e-01	4.210526e+00	-2.699633e-01
6.809074e-01	4.210526e+00	-2.559818e-01
6.100852e-01	4.210526e+00	-2.403847e-01
5.354138e-01	4.210526e+00	-2.229691e-01
4.593635e-01	4.210526e+00	-2.042585e-01
3.837764e-01	4.210526e+00	-1.841224e-01
3.103069e-01	4.210526e+00	-1.630077e-01
2.415927e-01	4.210526e+00	-1.409228e-01
1.782654e-01	4.210526e+00	-1.183331e-01
1.234349e-01	4.210526e+00	-9.558566e-02
7.662509e-02	4.210526e+00	-7.318920e-02
4.106998e-02	4.210526e+00	-5.193053e-02
1.528206e-02	4.210526e+00	-3.215886e-02
2.347037e-03	4.210526e+00	-1.488740e-02
0.000000e+00	4.210526e+00	0.000000e+00
1.064939e-02	4.210526e+00	1.066461e-02
3.126595e-02	4.210526e+00	1.703450e-02
6.375031e-02	4.210526e+00	1.787236e-02
1.050105e-01	4.210526e+00	1.417221e-02
1.560448e-01	4.210526e+00	4.777214e-03
2.137742e-01	4.210526e+00	-9.048270e-03
2.782849e-01	4.210526e+00	-2.799567e-02
3.468570e-01	4.210526e+00	-5.051783e-02
4.187060e-01	4.210526e+00	-7.662000e-02
4.916930e-01	4.210526e+00	-1.047585e-01
5.642168e-01	4.210526e+00	-1.343226e-01
6.348639e-01	4.210526e+00	-1.641238e-01
7.013280e-01	4.210526e+00	-1.931337e-01
7.630418e-01	4.210526e+00	-2.206893e-01
8.172084e-01	4.210526e+00	-2.454799e-01
8.641863e-01	4.210526e+00	-2.673591e-01
9.009752e-01	4.210526e+00	-2.848204e-01
9.288372e-01	4.210526e+00	-2.982085e-01
9.448555e-01	4.210526e+00	-3.059908e-01
9.510565e-01	4.210526e+00	-3.090170e-01
9.510565e-01	5.263158e+00	-3.090170e-01
9.442611e-01	5.263158e+00	-3.078203e-01
9.267277e-01	5.263158e+00	-3.047010e-01
8.963175e-01	5.263158e+00	-2.991555e-01
8.562911e-01	5.263158e+00	-2.916579e-01
8.054250e-01	5.263158e+00	-2.817457e-01
7.470317e-01	5.263158e+00	-2.699633e-01
6.809074e-01	5.263158e+00	-2.559818e-01
6.100852e-01	5.263158e+00	-2.403847e-01
5.354138e-01	5.263158e+00	-2.229691e-01
4.593635e-01	5.263158e+00	-2.042585e-01
3.837764e-01	5.263158e+00	-1.841224e-01
3.103069e-01	5.263158e+00	-1.630077e-01
2.415927e-01	5.263158e+00	-1.409228e-01
1.782654e-01	5.263158e+00	-1.183331e-01
1.234349e-01	5.263158e+00	-9.558566e-02
7.662509e-02	5.263158e+00	-7.318920e-02
4.106998e-02	5.263158e+00	-5.193053e-02
1.528206e-02	5.263158e+00	-3.215886e-02
2.347037e-03	5.263158e+00	-1.488740e-02
0.000000e+00	5.263158e+00	0.000000e+00
1.064939e-02	5.263158e+00	1.066461e-02
3.126595e-02	5.263158e+00	1.703450e-02
6.375031e-02	5.263158e+00	1.787236e-02
1.050105e-01	5.263158e+00	1.417221e-02
1.560448e-01	5.263158e+00	4.777214e-03
2.137742e-01	5.263158e+00	-9.048270e-03
2.782849e-01	5.263158e+00	-2.799567e-02
3.468570e-01	5.263158e+00	-5.051783e-02
4.187060e-01	5.263158e+00	-7.662000e-02
4.916930e-01	5.263158e+00	-1.047585e-01
5.642168e-01	5.263158e+00	-1.343226e-01
6.348639e-01	5.263158e+00	-1.641238e-01
7.013280e-01	5.263158e+00	-1.931337e-01
7.630418e-01	5.263158e+00	-2.206893e-01
8.172084e-01	5.263158e+00	-2.454799e-01
8.641863e-01	5.263158e+00	-2.673591e-01
9.009752e-01	5.263158e+00	-2.848204e-01
9.288372e-01	5.263158e+00	-2.982085e-01
9.448555e-01	5.263158e+00	-3.059908e-01
9.510565e-01	5.263158e+00	-3.090170e-01
9.510565e-01	6.315789e+00	-3.090170e-01
9.442611e-01	6.315789e+00	-3.078203e-01
[...]
CELL_DATA 760
VECTORS V double
8.414310e-01	-6.902463e-02	-1.481729e-01
8.655539e-01	-6.885105e-02	-1.539874e-01
8.835713e-01	-6.840132e-02	-1.611276e-01
8.953400e-01	-6.760697e-02	-1.677109e-01
8.978081e-01	-6.644612e-02	-1.749548e-01
8.991240e-01	-6.490113e-02	-1.814220e-01
8.920897e-01	-6.296169e-02	-1.886258e-01
8.847829e-01	-6.060375e-02	-1.948549e-01
8.704524e-01	-5.779885e-02	-2.030158e-01
8.548165e-01	-5.451447e-02	-2.103095e-01
8.295164e-01	-5.072512e-02	-2.209804e-01
7.986001e-01	-4.641663e-02	-2.295127e-01
7.512571e-01	-4.162195e-02	-2.414553e-01
6.892413e-01	-3.639224e-02	-2.458618e-01
6.026014e-01	-3.076541e-02	-2.500003e-01
4.719392e-01	-2.486423e-02	-2.258024e-01
2.702472e-01	-1.869667e-02	-1.615828e-01
-1.729965e-02	-1.242874e-02	1.326369e-02
-4.216750e-01	-5.861892e-03	5.630406e-01
-3.426405e-01	7.178050e-04	2.173389e+00
2.326815e+00	8.430000e-03	2.330140e+00
2.541531e+00	1.519400e-02	7.852557e-01
2.210441e+00	2.213947e-02	5.701329e-02
1.925448e+00	2.898616e-02	-1.726710e-01
1.720127e+00	3.597503e-02	-3.166616e-01
1.570361e+00	4.294100e-02	-3.760821e-01
1.435521e+00	4.987838e-02	-4.216257e-01
1.336713e+00	5.660867e-02	-4.390367e-01
1.250623e+00	6.301370e-02	-4.543411e-01
1.181687e+00	6.889561e-02	-4.555729e-01
1.121862e+00	7.413894e-02	-4.573233e-01
1.071608e+00	7.860659e-02	-4.520387e-01
1.027471e+00	8.223641e-02	-4.484654e-01
9.871990e-01	8.502069e-02	-4.407909e-01
9.499796e-01	8.701084e-02	-4.347789e-01
9.115290e-01	8.830477e-02	-4.245308e-01
8.743633e-01	8.903079e-02	-4.150018e-01
8.341899e-01	8.933794e-02	-4.008435e-01
7.910623e-01	8.938183e-02	-3.843286e-01
7.483117e-01	8.933613e-02	-3.651832e-01
8.268658e-01	-4.833861e-02	-1.456080e-01
8.473562e-01	-4.821432e-02	-1.507499e-01
8.618218e-01	-4.789582e-02	-1.571614e-01
8.705114e-01	-4.733206e-02	-1.630601e-01
8.702665e-01	-4.650040e-02	-1.695878e-01
8.688865e-01	-4.538201e-02	-1.753208e-01
8.588918e-01	-4.396623e-02	-1.816063e-01
8.480272e-01	-4.223806e-02	-1.867602e-01
8.293623e-01	-4.018271e-02	-1.934324e-01
8.083802e-01	-3.778501e-02	-1.988848e-01
7.765996e-01	-3.501526e-02	-2.068836e-01
7.379479e-01	-3.192381e-02	-2.120817e-01
6.816524e-01	-2.848812e-02	-2.190842e-01
6.086120e-01	-2.476324e-02	-2.171002e-01
5.088258e-01	-2.077509e-02	-2.110957e-01
3.608428e-01	-1.660671e-02	-1.726476e-01
1.374571e-01	-1.225987e-02	-8.218661e-02
-1.813955e-01	-7.847966e-03	1.390764e-01
-6.030807e-01	-3.231137e-03	8.052622e-01
-4.197964e-01	1.387734e-03	2.662794e+00
2.682282e+00	6.787178e-03	2.686115e+00
2.843924e+00	1.150260e-02	8.786857e-01
2.433144e+00	1.631611e-02	6.275741e-02
2.097261e+00	2.102480e-02	-1.880789e-01
1.860431e+00	2.578739e-02	-3.424905e-01
1.689606e+00	3.048421e-02	-4.046398e-01
1.539032e+00	3.510946e-02	-4.520279e-01
1.427784e+00	3.954500e-02	-4.689486e-01
1.330699e+00	4.371898e-02	-4.834323e-01
1.251889e+00	4.752377e-02	-4.826376e-01
1.182657e+00	5.084905e-02	-4.821062e-01
1.123329e+00	5.366603e-02	-4.738562e-01
1.070386e+00	5.592504e-02	-4.671966e-01
1.021736e+00	5.763051e-02	-4.562121e-01
9.765869e-01	5.882369e-02	-4.469563e-01
9.307587e-01	5.957541e-02	-4.334867e-01
8.867490e-01	5.997406e-02	-4.208805e-01
8.402935e-01	6.012042e-02	-4.037763e-01
7.917027e-01	6.011677e-02	-3.846397e-01
7.448130e-01	6.007346e-02	-3.634758e-01
8.205713e-01	-2.041109e-02	-1.444996e-01
8.397322e-01	-2.035926e-02	-1.493935e-01
8.527179e-01	-2.022890e-02	-1.555012e-01
8.598797e-01	-1.999289e-02	-1.610687e-01
8.580924e-01	-1.963431e-02	-1.672154e-01
8.551296e-01	-1.913647e-02	-1.725449e-01
8.435102e-01	-1.848965e-02	-1.783540e-01
8.309111e-01	-1.768849e-02	-1.829908e-01
8.103566e-01	-1.670592e-02	-1.889997e-01
7.869718e-01	-1.558575e-02	-1.936177e-01
7.529101e-01	-1.431375e-02	-2.005727e-01
7.116214e-01	-1.290469e-02	-2.045156e-01
6.518081e-01	-1.134865e-02	-2.094922e-01
5.746615e-01	-9.681774e-03	-2.049896e-01
4.698867e-01	-7.914160e-03	-1.949411e-01
3.151535e-01	-6.078263e-03	-1.507873e-01
8.317593e-02	-4.170814e-03	-4.973151e-02
-2.481910e-01	-2.239727e-03	1.902887e-01
-6.765965e-01	-2.241529e-04	9.034239e-01
-4.508353e-01	1.783996e-03	2.859676e+00
2.823374e+00	4.112953e-03	2.827409e+00
2.961642e+00	6.120802e-03	9.150570e-01
2.517763e+00	8.134152e-03	6.493995e-02
2.160555e+00	1.005787e-02	-1.937550e-01
1.910251e+00	1.194820e-02	-3.516619e-01
1.730208e+00	1.375159e-02	-4.143636e-01
1.572725e+00	1.546345e-02	-4.619238e-01
1.456076e+00	1.704315e-02	-4.782411e-01
1.354614e+00	1.847320e-02	-4.921202e-01
1.271665e+00	1.973913e-02	-4.902619e-01
1.198770e+00	2.080435e-02	-4.886745e-01
1.136460e+00	2.166463e-02	-4.793952e-01
1.080534e+00	2.230167e-02	-4.716261e-01
1.029157e+00	2.277327e-02	-4.595253e-01
9.815252e-01	2.307536e-02	-4.492164e-01
9.334826e-01	2.324004e-02	-4.347553e-01
8.875214e-01	2.330253e-02	-4.212471e-01
8.394015e-01	2.330031e-02	-4.033477e-01
7.894787e-01	2.326986e-02	-3.835592e-01
7.416796e-01	2.324307e-02	-3.619467e-01
8.181675e-01	-1.022178e-02	-1.440763e-01
8.367550e-01	-1.020074e-02	-1.488639e-01
8.489856e-01	-1.014445e-02	-1.548206e-01
8.553750e-01	-1.003863e-02	-1.602249e-01
8.527995e-01	-9.873432e-03	-1.661840e-01
8.489979e-01	-9.625547e-03	-1.713077e-01
8.365102e-01	-9.312847e-03	-1.768739e-01
8.226174e-01	-8.915367e-03	-1.811643e-01
8.009911e-01	-8.442022e-03	-1.868153e-01
7.769743e-01	-7.878105e-03	-1.911580e-01
7.415572e-01	-7.238658e-03	-1.975484e-01
6.984333e-01	-6.501085e-03	-2.007254e-01
6.368827e-01	-5.695553e-03	-2.046951e-01
5.575797e-01	-4.819374e-03	-1.988963e-01
4.501812e-01	-3.884579e-03	-1.867659e-01
2.919075e-01	-2.908601e-03	-1.396651e-01
5.546062e-02	-1.894751e-03	-3.316032e-02
-2.823442e-01	-8.611413e-04	2.164741e-01
-7.141895e-01	2.189763e-04	9.536199e-01
-4.666687e-01	1.279092e-03	2.960108e+00
2.894942e+00	2.537694e-03	2.899079e+00
3.020887e+00	3.601345e-03	9.333619e-01
2.559970e+00	4.660411e-03	6.602859e-02
2.191778e+00	5.663452e-03	-1.965551e-01
1.934563e+00	6.643012e-03	-3.561375e-01
1.749811e+00	7.563088e-03	-4.190582e-01
1.588829e+00	8.427491e-03	-4.666536e-01
1.469486e+00	9.224527e-03	-4.826453e-01
1.365827e+00	9.933265e-03	-4.961939e-01
1.281304e+00	1.055236e-02	-4.939779e-01
1.206769e+00	1.109089e-02	-4.919354e-01
1.142473e+00	1.152227e-02	-4.819318e-01
1.085229e+00	1.186040e-02	-4.736753e-01
1.032958e+00	1.209860e-02	-4.612228e-01
9.841910e-01	1.225870e-02	-4.504365e-01
9.351496e-01	1.233972e-02	-4.355317e-01
8.883111e-01	1.238369e-02	-4.216219e-01
8.394630e-01	1.239389e-02	-4.033773e-01
7.889798e-01	1.238706e-02	-3.833169e-01
7.407103e-01	1.237839e-02	-3.614737e-01
8.170396e-01	-5.656810e-03	-1.438777e-01
8.352001e-01	-5.645694e-03	-1.485872e-01
8.470205e-01	-5.614202e-03	-1.544622e-01
8.529695e-01	-5.554831e-03	-1.597743e-01
8.496386e-01	-5.458635e-03	-1.655681e-01
8.453986e-01	-5.318310e-03	-1.705815e-01
8.325261e-01	-5.146875e-03	-1.760315e-01
8.185115e-01	-4.927044e-03	-1.802600e-01
7.963556e-01	-4.661948e-03	-1.857342e-01
7.711733e-01	-4.325985e-03	-1.897308e-01
7.349141e-01	-3.934832e-03	-1.957787e-01
6.910549e-01	-3.498338e-03	-1.986049e-01
6.284531e-01	-3.026562e-03	-2.019858e-01
5.477566e-01	-2.605947e-03	-1.953922e-01
4.387955e-01	-2.062396e-03	-1.820424e-01
2.785097e-01	-1.454674e-03	-1.332548e-01
3.945713e-02	-8.450579e-04	-2.359171e-02
-3.022512e-01	-2.252875e-04	2.317369e-01
-7.357863e-01	4.226935e-04	9.824571e-01
-4.758425e-01	1.067530e-03	3.018298e+00
2.937048e+00	1.810968e-03	2.941245e+00
3.054990e+00	2.445916e-03	9.438987e-01
2.584143e+00	3.074521e-03	6.665207e-02
2.209669e+00	3.665505e-03	-1.981595e-01
1.948350e+00	4.235340e-03	-3.586756e-01
1.760761e+00	4.758910e-03	-4.216805e-01
1.597860e+00	5.244904e-03	-4.693061e-01
1.476934e+00	5.788983e-03	-4.850916e-01
1.371912e+00	6.193555e-03	-4.984047e-01
1.286273e+00	6.532249e-03	-4.958939e-01
1.210915e+00	6.813411e-03	-4.936257e-01
1.146293e+00	7.043092e-03	-4.835433e-01
1.088256e+00	7.240734e-03	-4.749966e-01
1.034927e+00	7.383255e-03	-4.621020e-01
9.854618e-01	7.481444e-03	-4.510181e-01
9.358655e-01	7.529946e-03	-4.358651e-01
8.888544e-01	7.553285e-03	-4.218798e-01
8.396028e-01	7.559703e-03	-4.034444e-01
7.887845e-01	7.555859e-03	-3.832220e-01
7.403522e-01	7.551600e-03	-3.612989e-01
8.163020e-01	-3.305399e-03	-1.437478e-01
8.342421e-01	-3.298603e-03	-1.484168e-01
8.457915e-01	-3.280628e-03	-1.542381e-01
8.513998e-01	-3.246302e-03	-1.594802e-01
8.479651e-01	-3.213715e-03	-1.652419e-01
8.435918e-01	-3.126981e-03	-1.702169e-01
8.304573e-01	-3.004437e-03	-1.755941e-01
8.157113e-01	-2.856485e-03	-1.796433e-01
7.928732e-01	-2.669201e-03	-1.849220e-01
7.674276e-01	-2.434528e-03	-1.888093e-01
7.307398e-01	-2.193219e-03	-1.946666e-01
6.863266e-01	-1.965874e-03	-1.972460e-01
6.244500e-01	-1.650550e-03	-2.006992e-01
5.433214e-01	-1.431344e-03	-1.938102e-01
4.314895e-01	-1.066029e-03	-1.790114e-01
2.694549e-01	-6.876503e-04	-1.289225e-01
2.920565e-02	-2.913490e-04	-1.746228e-02
-3.147666e-01	1.040613e-04	2.413325e-01
-7.498929e-01	5.162561e-04	1.001293e+00
-4.816801e-01	9.405740e-04	3.055326e+00
2.962477e+00	1.395738e-03	2.966710e+00
3.076420e+00	1.798465e-03	9.505199e-01
2.599206e+00	2.195320e-03	6.704058e-02
2.220514e+00	2.566160e-03	-1.991320e-01
1.956470e+00	2.916993e-03	-3.601705e-01
1.767090e+00	3.244462e-03	-4.231961e-01
1.604485e+00	3.659107e-03	-4.712520e-01
1.482589e+00	3.910115e-03	-4.869490e-01
1.375506e+00	4.162002e-03	-4.997102e-01
1.289125e+00	4.382673e-03	-4.969931e-01
1.213166e+00	4.550071e-03	-4.945431e-01
1.147929e+00	4.658767e-03	-4.842333e-01
1.089785e+00	4.757015e-03	-4.756639e-01
1.036444e+00	4.836861e-03	-4.627791e-01
9.865876e-01	4.890708e-03	-4.515334e-01
9.365259e-01	4.964053e-03	-4.361727e-01
8.890387e-01	4.966777e-03	-4.219672e-01
8.396008e-01	4.965238e-03	-4.034435e-01
7.886086e-01	4.961500e-03	-3.831365e-01
7.400580e-01	4.958253e-03	-3.611554e-01
8.158991e-01	-2.029717e-03	-1.436768e-01
8.337503e-01	-2.025668e-03	-1.483293e-01
8.451800e-01	-2.015438e-03	-1.541266e-01
8.513152e-01	-1.996762e-03	-1.594644e-01
8.471405e-01	-1.966540e-03	-1.650813e-01
8.417527e-01	-2.010364e-03	-1.698458e-01
8.283476e-01	-1.888022e-03	-1.751480e-01
8.137337e-01	-1.783025e-03	-1.792078e-01
7.906573e-01	-1.683748e-03	-1.844052e-01
7.649258e-01	-1.542308e-03	-1.881938e-01
7.287856e-01	-1.385921e-03	-1.941461e-01
6.838393e-01	-1.215220e-03	-1.965312e-01
6.209770e-01	-1.015351e-03	-1.995830e-01
5.391641e-01	-7.359637e-04	-1.923272e-01
4.266913e-01	-5.010900e-04	-1.770207e-01
2.642487e-01	-2.942567e-04	-1.264316e-01
2.253075e-02	-5.055494e-05	-1.347130e-02
-3.229104e-01	1.717513e-04	2.475764e-01
-7.588081e-01	4.313646e-04	1.013197e+00
-4.854131e-01	6.880950e-04	3.079005e+00
2.979212e+00	9.829707e-04	2.983470e+00
3.090115e+00	1.232991e-03	9.547512e-01
2.608828e+00	1.473465e-03	6.728878e-02
2.227514e+00	1.731465e-03	-1.997598e-01
1.961950e+00	1.951075e-03	-3.611792e-01
1.773589e+00	2.164255e-03	-4.247526e-01
1.607830e+00	2.361925e-03	-4.722344e-01
1.483913e+00	2.462866e-03	-4.873839e-01
1.378069e+00	2.607151e-03	-5.006413e-01
1.291169e+00	2.743314e-03	-4.977811e-01
1.214375e+00	2.856000e-03	-4.950359e-01
1.148934e+00	2.946286e-03	-4.846573e-01
1.090637e+00	3.044645e-03	-4.760359e-01
1.036864e+00	3.109970e-03	-4.629668e-01
9.874738e-01	3.230626e-03	-4.519389e-01
9.373982e-01	3.222178e-03	-4.365790e-01
8.888938e-01	3.216277e-03	-4.218985e-01
8.394549e-01	3.213354e-03	-4.033734e-01
7.884516e-01	3.210115e-03	-3.830602e-01
7.398548e-01	3.207826e-03	-3.610562e-01
8.156225e-01	-1.104567e-03	-1.436281e-01
8.334108e-01	-1.101525e-03	-1.482689e-01
8.447780e-01	-1.091987e-03	-1.540533e-01
8.501504e-01	-1.099160e-03	-1.592462e-01
8.483759e-01	-1.050377e-03	-1.653220e-01
8.420501e-01	-1.033657e-03	-1.699058e-01
8.269743e-01	-9.985277e-04	-1.748576e-01
8.128131e-01	-9.747720e-04	-1.790051e-01
7.896186e-01	-9.858430e-04	-1.841629e-01
7.635178e-01	-9.090393e-04	-1.878473e-01
7.264645e-01	-8.087703e-04	-1.935277e-01
6.813910e-01	-6.879611e-04	-1.958276e-01
6.178207e-01	-5.764459e-04	-1.985686e-01
5.356373e-01	-3.422624e-04	-1.910691e-01
4.242628e-01	-2.521562e-04	-1.760132e-01
2.612041e-01	-1.240205e-04	-1.249748e-01
1.919078e-02	1.328240e-05	-1.147431e-02
-3.269821e-01	1.553711e-04	2.506981e-01
-7.641618e-01	3.048659e-04	1.020345e+00
-4.876466e-01	4.538338e-04	3.093172e+00
2.989157e+00	6.252841e-04	2.993428e+00
3.097913e+00	7.709357e-04	9.571607e-01
2.615413e+00	9.141106e-04	6.745861e-02
2.232251e+00	1.047810e-03	-2.001846e-01
1.965163e+00	1.175493e-03	-3.617707e-01
1.774121e+00	1.295423e-03	-4.248800e-01
1.608940e+00	1.322576e-03	-4.725606e-01
1.486011e+00	1.434255e-03	-4.880731e-01
1.379162e+00	1.541374e-03	-5.010386e-01
1.292264e+00	1.597859e-03	-4.982036e-01
1.215708e+00	1.660946e-03	-4.955793e-01
1.150332e+00	1.801933e-03	-4.852470e-01
1.091980e+00	1.818053e-03	-4.766220e-01
1.039075e+00	1.854319e-03	-4.639537e-01
9.885170e-01	1.857998e-03	-4.524164e-01
9.362553e-01	1.831128e-03	-4.360466e-01
8.888289e-01	1.840394e-03	-4.218676e-01
8.394151e-01	1.865427e-03	-4.033543e-01
7.883366e-01	1.862667e-03	-3.830044e-01
7.397075e-01	1.861239e-03	-3.609843e-01
8.153886e-01	-1.374006e-03	-1.435869e-01
8.330004e-01	-1.374192e-03	-1.481959e-01
8.452071e-01	-1.375355e-03	-1.541316e-01
8.501062e-01	-1.358773e-03	-1.592379e-01
8.458838e-01	-1.319430e-03	-1.648364e-01
8.408385e-01	-1.274751e-03	-1.696614e-01
8.274505e-01	-1.142876e-03	-1.749583e-01
8.135691e-01	-1.202623e-03	-1.791716e-01
7.897489e-01	-9.809569e-04	-1.841933e-01
7.626003e-01	-1.028855e-03	-1.876216e-01
7.258968e-01	-6.714552e-04	-1.933765e-01
6.807376e-01	-7.593172e-04	-1.956398e-01
6.162241e-01	-3.243109e-04	-1.980554e-01
5.342351e-01	-3.874603e-04	-1.905689e-01
4.231752e-01	7.371701e-05	-1.755620e-01
2.593672e-01	4.128501e-04	-1.240960e-01
1.657017e-02	6.062846e-04	-9.907429e-03
-3.303638e-01	6.528677e-04	2.532909e-01
-7.670495e-01	6.998091e-04	1.024201e+00
-4.888783e-01	7.607280e-04	3.100985e+00
2.994741e+00	8.415641e-04	2.999021e+00
3.102799e+00	9.196310e-04	9.586704e-01
2.617731e+00	1.015772e-03	6.751840e-02
2.233981e+00	1.097265e-03	-2.003397e-01
1.966916e+00	1.031373e-03	-3.620934e-01
1.776009e+00	8.130910e-04	-4.253324e-01
1.609996e+00	4.959060e-04	-4.728706e-01
1.486947e+00	6.287285e-04	-4.883805e-01
1.380190e+00	3.117891e-04	-5.014119e-01
1.292679e+00	4.418835e-04	-4.983633e-01
1.216924e+00	1.480036e-04	-4.960751e-01
1.150967e+00	3.004226e-04	-4.855150e-01
1.091327e+00	4.439856e-05	-4.763369e-01
1.037460e+00	1.061760e-04	-4.632329e-01
9.871354e-01	-1.026659e-04	-4.517841e-01
9.370096e-01	-5.078863e-05	-4.363979e-01
8.896300e-01	-6.908458e-05	-4.222479e-01
8.402937e-01	-7.620700e-05	-4.037764e-01
7.882362e-01	-7.146912e-05	-3.829556e-01
7.396362e-01	-7.044364e-05	-3.609495e-01
8.156538e-01	3.651996e-05	-1.436336e-01
8.334958e-01	1.890072e-05	-1.482841e-01
8.441537e-01	1.731589e-05	-1.539395e-01
8.486912e-01	3.870666e-05	-1.589729e-01
8.466777e-01	3.636405e-05	-1.649911e-01
8.389093e-01	3.526589e-05	-1.692721e-01
8.260079e-01	3.380595e-05	-1.746533e-01
8.103884e-01	3.464566e-05	-1.784711e-01
7.873462e-01	7.754782e-05	-1.836329e-01
7.594294e-01	6.619990e-05	-1.868415e-01
7.229053e-01	5.828826e-05	-1.925796e-01
6.768998e-01	5.752319e-05	-1.945368e-01
6.124280e-01	-2.236984e-06	-1.968354e-01
5.300918e-01	1.117040e-06	-1.890910e-01
4.110941e-01	3.266269e-05	-1.705499e-01
2.511429e-01	3.418848e-07	-1.201610e-01
1.369508e-02	3.862801e-06	-8.188390e-03
-3.293810e-01	6.577716e-06	2.525374e-01
-7.670601e-01	7.963228e-06	1.024215e+00
-4.891604e-01	8.370274e-06	3.102774e+00
2.997027e+00	8.130767e-06	3.001310e+00
3.105740e+00	7.472458e-06	9.595791e-01
2.621080e+00	6.304491e-06	6.760478e-02
2.232213e+00	4.211991e-06	-2.001812e-01
1.959177e+00	3.655111e-05	-3.606688e-01
1.764825e+00	3.259492e-05	-4.226538e-01
1.606476e+00	-1.673148e-06	-4.718367e-01
1.483257e+00	4.927211e-05	-4.871683e-01
1.376842e+00	3.555108e-05	-5.001954e-01
1.290165e+00	2.628929e-05	-4.973940e-01
1.213910e+00	2.070217e-05	-4.948463e-01
1.149110e+00	-2.209191e-05	-4.847317e-01
1.089259e+00	-1.842189e-05	-4.754341e-01
1.037152e+00	-1.926897e-05	-4.630953e-01
9.857334e-01	-1.815979e-05	-4.511424e-01
9.369988e-01	-1.816671e-05	-4.363929e-01
8.882169e-01	-1.702172e-05	-4.215772e-01
8.392738e-01	-3.940153e-05	-4.032864e-01
7.886617e-01	-3.827997e-05	-3.831623e-01
7.398645e-01	-2.075800e-05	-3.610609e-01
8.183455e-01	1.456128e-03	-1.441077e-01
8.337124e-01	1.456485e-03	-1.483226e-01
8.444040e-01	1.458300e-03	-1.539851e-01
8.497087e-01	1.443581e-03	-1.591635e-01
8.459506e-01	1.406795e-03	-1.648494e-01
8.408830e-01	1.452364e-03	-1.696703e-01
8.274583e-01	1.277808e-03	-1.749599e-01
8.129292e-01	1.335610e-03	-1.790306e-01
7.893376e-01	1.064408e-03	-1.840974e-01
7.628528e-01	1.116022e-03	-1.876838e-01
7.260108e-01	7.673690e-04	-1.934069e-01
6.815293e-01	7.808887e-04	-1.958673e-01
6.170366e-01	3.498649e-04	-1.983166e-01
5.337360e-01	4.397073e-04	-1.903909e-01
4.231207e-01	-5.505696e-05	-1.755394e-01
2.599568e-01	-3.930783e-04	-1.243781e-01
1.643487e-02	-5.869666e-04	-9.826529e-03
-3.304745e-01	-6.088993e-04	2.533758e-01
-7.671045e-01	-6.855583e-04	1.024275e+00
-4.888814e-01	-7.468681e-04	3.101004e+00
2.994693e+00	-8.303459e-04	2.998973e+00
3.102714e+00	-8.827807e-04	9.586441e-01
2.617621e+00	-9.784101e-04	6.751556e-02
2.234830e+00	-1.092659e-03	-2.004159e-01
1.967422e+00	-1.030996e-03	-3.621867e-01
1.775320e+00	-7.846692e-04	-4.251673e-01
1.610311e+00	-4.751140e-04	-4.729632e-01
1.487435e+00	-6.440840e-04	-4.885408e-01
1.379891e+00	-3.392115e-04	-5.013034e-01
1.292491e+00	-4.033094e-04	-4.982911e-01
1.216321e+00	-1.236126e-04	-4.958292e-01
1.150457e+00	-2.247704e-04	-4.852999e-01
1.091366e+00	-1.614925e-05	-4.763541e-01
1.037463e+00	-1.235389e-04	-4.632340e-01
9.871542e-01	-2.338272e-05	-4.517927e-01
9.370287e-01	-5.126822e-05	-4.364069e-01
8.892142e-01	-2.186640e-05	-4.220505e-01
8.395107e-01	-1.225093e-05	-4.034002e-01
7.888550e-01	-1.644392e-05	-3.832562e-01
7.423196e-01	-1.741850e-05	-3.622590e-01
8.155940e-01	1.196544e-03	-1.436231e-01
8.333607e-01	1.211285e-03	-1.482600e-01
8.446868e-01	1.204103e-03	-1.540367e-01
8.500385e-01	1.198487e-03	-1.592253e-01
8.463483e-01	1.087189e-03	-1.649269e-01
8.413819e-01	1.063032e-03	-1.697710e-01
8.276302e-01	9.897982e-04	-1.749963e-01
8.135654e-01	9.717969e-04	-1.791707e-01
7.902223e-01	9.467586e-04	-1.843037e-01
7.633539e-01	8.679445e-04	-1.878070e-01
7.273155e-01	7.792762e-04	-1.937544e-01
6.823505e-01	7.088569e-04	-1.961033e-01
6.174042e-01	6.284293e-04	-1.984347e-01
5.356965e-01	4.794062e-04	-1.910902e-01
4.248284e-01	3.448666e-04	-1.762479e-01
2.611894e-01	2.378336e-04	-1.249678e-01
1.873592e-02	8.939865e-05	-1.120234e-02
-3.270760e-01	-6.103557e-05	2.507701e-01
-7.631650e-01	-2.169727e-04	1.019014e+00
-4.876177e-01	-3.711529e-04	3.092989e+00
2.990546e+00	-5.479637e-04	2.994819e+00
3.098837e+00	-6.979163e-04	9.574462e-01
2.614198e+00	-8.450299e-04	6.742727e-02
2.231416e+00	-9.815073e-04	-2.001097e-01
1.965699e+00	-1.145758e-03	-3.618695e-01
1.774432e+00	-1.263455e-03	-4.249545e-01
1.608256e+00	-1.371918e-03	-4.723596e-01
1.485353e+00	-1.502374e-03	-4.878568e-01
1.379886e+00	-1.586769e-03	-5.013016e-01
1.292913e+00	-1.651045e-03	-4.984534e-01
1.216168e+00	-1.704105e-03	-4.957668e-01
1.150405e+00	-1.780712e-03	-4.852779e-01
1.090740e+00	-1.802510e-03	-4.760806e-01
1.036904e+00	-1.808491e-03	-4.629845e-01
9.870235e-01	-1.830477e-03	-4.517329e-01
9.369287e-01	-1.851947e-03	-4.363603e-01
8.891639e-01	-1.769633e-03	-4.220267e-01
8.395188e-01	-1.780097e-03	-4.034041e-01
7.883719e-01	-1.779865e-03	-3.830215e-01
7.397153e-01	-1.796393e-03	-3.609881e-01
8.158717e-01	1.719261e-03	-1.436720e-01
8.336925e-01	1.708367e-03	-1.483190e-01
8.448192e-01	1.584775e-03	-1.540608e-01
8.529427e-01	1.677645e-03	-1.597693e-01
8.485106e-01	1.705322e-03	-1.653482e-01
8.426166e-01	1.715004e-03	-1.700201e-01
8.288202e-01	1.674178e-03	-1.752479e-01
8.135435e-01	1.612083e-03	-1.791659e-01
7.907509e-01	1.542165e-03	-1.844270e-01
7.650516e-01	1.421907e-03	-1.882247e-01
7.280922e-01	1.275671e-03	-1.939613e-01
6.835389e-01	1.191888e-03	-1.964449e-01
6.201969e-01	9.864040e-04	-1.993323e-01
5.379658e-01	7.891135e-04	-1.918997e-01