# vtk DataFile Version 2.0
OUTPUT by 3D-VPM
ASCII
DATASET UNSTRUCTURED_GRID
POINTS 820 double
9.510565e-01	0.000000e+00	-3.090170e-01
9.442611e-01	0.000000e+00	-3.078203e-01
9.267277e-01	0.000000e+00	-3.047010e-01
8.963175e-01	0.000000e+00	-2.991555e-01
8.562911e-01	0.000000e+00	-2.916579e-01
8.054250e-01	0.000000e+00	-2.817457e-01
7.470317e-01	0.000000e+00	-2.699633e-01
6.809074e-01	0.000000e+00	-2.559818e-01
6.100852e-01	0.000000e+00	-2.403847e-01
5.354138e-01	0.000000e+00	-2.229691e-01
4.593635e-01	0.000000e+00	-2.042585e-01
3.837764e-01	0.000000e+00	-1.841224e-01
3.103069e-01	0.000000e+00	-1.630077e-01
2.415927e-01	0.000000e+00	-1.409228e-01
1.782654e-01	0.000000e+00	-1.183331e-01
1.234349e-01	0.000000e+00	-9.558566e-02
7.662509e-02	0.000000e+00	-7.318920e-02
4.106998e-02	0.000000e+00	-5.193053e-02
1.528206e-02	0.000000e+00	-3.215886e-02
2.347037e-03	0.000000e+00	-1.488740e-02
0.000000e+00	0.000000e+00	0.000000e+00
1.064939e-02	0.000000e+00	1.066461e-02
3.126595e-02	0.000000e+00	1.703450e-02
6.375031e-02	0.000000e+00	1.787236e-02
1.050105e-01	0.000000e+00	1.417221e-02
1.560448e-01	0.000000e+00	4.777214e-03
2.137742e-01	0.000000e+00	-9.048270e-03
2.782849e-01	0.000000e+00	-2.799567e-02
3.468570e-01	0.000000e+00	-5.051783e-02
4.187060e-01	0.000000e+00	-7.662000e-02
4.916930e-01	0.000000e+00	-1.047585e-01
5.642168e-01	0.000000e+00	-1.343226e-01
6.348639e-01	0.000000e+00	-1.641238e-01
7.013280e-01	0.000000e+00	-1.931337e-01
7.630418e-01	0.000000e+00	-2.206893e-01
8.172084e-01	0.000000e+00	-2.454799e-01
8.641863e-01	0.000000e+00	-2.673591e-01
9.009752e-01	0.000000e+00	-2.848204e-01
9.288372e-01	0.000000e+00	-2.982085e-01
9.448555e-01	0.000000e+00	-3.059908e-01
9.510565e-01	0.000000e+00	-3.090170e-01
9.510565e-01	1.052632e+00	-3.090170e-01
9.442611e-01	1.052632e+00	-3.078203e-01
9.267277e-01	1.052632e+00	-3.047010e-01
8.963175e-01	1.052632e+00	-2.991555e-01
8.562911e-01	1.052632e+00	-2.916579e-01
8.054250e-01	1.052632e+00	-2.817457e-01
7.470317e-01	1.052632e+00	-2.699633e-01
6.809074e-01	1.052632e+00	-2.559818e-01
6.100852e-01	1.052632e+00	-2.403847e-01
5.354138e-01	1.052632e+00	-2.229691e-01
4.593635e-01	1.052632e+00	-2.042585e-01
3.837764e-01	1.052632e+00	-1.841224e-01
3.103069e-01	1.052632e+00	-1.630077e-01
2.415927e-01	1.052632e+00	-1.409228e-01
1.782654e-01	1.052632e+00	-1.183331e-01
1.234349e-01	1.052632e+00	-9.558566e-02
7.662509e-02	1.052632e+00	-7.318920e-02
4.106998e-02	1.052632e+00	-5.193053e-02
1.528206e-02	1.052632e+00	-3.215886e-02
2.347037e-03	1.052632e+00	-1.488740e-02
0.000000e+00	1.052632e+00	0.000000e+00
1.064939e-02	1.052632e+00	1.066461e-02
3.126595e-02	1.052632e+00	1.703450e-02
6.375031e-02	1.052632e+00	1.787236e-02
1.050105e-01	1.052632e+00	1.417221e-02
1.560448e-01	1.052632e+00	4.777214e-03
2.137742e-01	1.052632e+00	-9.048270e-03
2.782849e-01	1.052632e+00	-2.799567e-02
3.468570e-01	1.052632e+00	-5.051783e-02
4.187060e-01	1.052632e+00	-7.662000e-02
4.916930e-01	1.052632e+00	-1.047585e-01
5.642168e-01	1.052632e+00	-1.343226e-01
6.348639e-01	1.052632e+00	-1.641238e-01
7.013280e-01	1.052632e+00	-1.931337e-01
7.630418e-01	1.052632e+00	-2.206893e-01
8.172084e-01	1.052632e+00	-2.454799e-01
8.641863e-01	1.052632e+00	-2.673591e-01
9.009752e-01	1.052632e+00	-2.848204e-01
9.288372e-01	1.052632e+00	-2.982085e-01
9.448555e-01	1.052632e+00	-3.059908e-01
9.510565e-01	1.052632e+00	-3.090170e-01
9.510565e-01	2.105263e+00	-3.090170e-01
9.442611e-01	2.105263e+00	-3.078203e-01
9.267277e-01	2.105263e+00	-3.047010e-01
8.963175e-01	2.105263e+00	-2.991555e-01
8.562911e-01	2.105263e+00	-2.916579e-01
8.054250e-01	2.105263e+00	-2.817457e-01
7.470317e-01	2.105263e+00	-2.699633e-01
6.809074e-01	2.105263e+00	-2.559818e-01
6.100852e-01	2.105263e+00	-2.403847e-01
5.354138e-01	2.105263e+00	-2.229691e-01
4.593635e-01	2.105263e+00	-2.042585e-01
3.837764e-01	2.105263e+00	-1.841224e-01
3.103069e-01	2.105263e+00	-1.630077e-01
2.415927e-01	2.105263e+00	-1.409228e-01
1.782654e-01	2.105263e+00	-1.183331e-01
1.234349e-01	2.105263e+00	-9.558566e-02
7.662509e-02	2.105263e+00	-7.318920e-02
4.106998e-02	2.105263e+00	-5.193053e-02
1.528206e-02	2.105263e+00	-3.215886e-02
2.347037e-03	2.105263e+00	-1.488740e-02
0.000000e+00	2.105263e+00	0.000000e+00
1.064939e-02	2.105263e+00	1.066461e-02
3.126595e-02	2.105263e+00	1.703450e-02
6.375031e-02	2.105263e+00	1.787236e-02
1.050105e-01	2.105263e+00	1.417221e-02
1.560448e-01	2.105263e+00	4.777214e-03
2.137742e-01	2.105263e+00	-9.048270e-03
2.782849e-01	2.105263e+00	-2.799567e-02
3.468570e-01	2.105263e+00	-5.051783e-02
4.187060e-01	2.105263e+00	-7.662000e-02
4.916930e-01	2.105263e+00	-1.047585e-01
5.642168e-01	2.105263e+00	-1.343226e-01
6.348639e-01	2.105263e+00	-1.641238e-01
7.013280e-01	2.105263e+00	-1.931337e-01
7.630418e-01	2.105263e+00	-2.206893e-01
8.172084e-01	2.105263e+00	-2.454799e-01
8.641863e-01	2.105263e+00	-2.673591e-01
9.009752e-01	2.105263e+00	-2.848204e-01
9.288372e-01	2.105263e+00	-2.982085e-01
9.448555e-01	2.105263e+00	-3.059908e-01
9.510565e-01	2.105263e+00	-3.090170e-01
9.510565e-01	3.157895e+00	-3.090170e-01
9.442611e-01	3.157895e+00	-3.078203e-01
9.267277e-01	3.157895e+00	-3.047010e-01
8.963175e-01	3.157895e+00	-2.991555e-01
8.562911e-01	3.157895e+00	-2.916579e-01
8.054250e-01	3.157895e+00	-2.817457e-01
7.470317e-01	3.157895e+00	-2.699633e-01
6.809074e-01	3.157895e+00	-2.559818e-01
6.100852e-01	3.157895e+00	-2.403847e-01
5.354138e-01	3.157895e+00	-2.229691e-01
4.593635e-01	3.157895e+00	-2.042585e-01
3.837764e-01	3.157895e+00	-1.841224e-01
3.103069e-01	3.157895e+00	-1.630077e-01
2.415927e-01	3.157895e+00	-1.409228e-01
1.782654e-01	3.157895e+00	-1.183331e-01
1.234349e-01	3.157895e+00	-9.558566e-02
7.662509e-02	3.157895e+00	-7.318920e-02
4.106998e-02	3.157895e+00	-5.193053e-02
1.528206e-02	3.157895e+00	-3.215886e-02
2.347037e-03	3.157895e+00	-1.488740e-02
0.000000e+00	3.157895e+00	0.000000e+00
1.064939e-02	3.157895e+00	1.066461e-02
3.126595e-02	3.157895e+00	1.703450e-02
6.375031e-02	3.157895e+00	1.787236e-02
1.050105e-01	3.157895e+00	1.417221e-02
1.560448e-01	3.157895e+00	4.777214e-03
2.137742e-01	3.157895e+00	-9.048270e-03
2.782849e-01	3.157895e+00	-2.799567e-02
3.468570e-01	3.157895e+00	-5.051783e-02
4.187060e-01	3.157895e+00	-7.662000e-02
4.916930e-01	3.157895e+00	-1.047585e-01
5.642168e-01	3.157895e+00	-1.343226e-01
6.348639e-01	3.157895e+00	-1.641238e-01
7.013280e-01	3.157895e+00	-1.931337e-01
7.630418e-01	3.157895e+00	-2.206893e-01
8.172084e-01	3.157895e+00	-2.454799e-01
8.641863e-01	3.157895e+00	-2.673591e-01
9.009752e-01	3.157895e+00	-2.848204e-01
9.288372e-01	3.157895e+00	-2.982085e-01
9.448555e-01	3.157895e+00	-3.059908e-01
9.510565e-01	3.157895e+00	-3.090170e-01
9.510565e-01	4.210526e+00	-3.090170e-01
9.442611e-01	4.210526e+00	-3.078203e-01
9.267277e-01	4.210526e+00	-3.047010e-01
8.963175e-01	4.210526e+00	-2.991555e-01
8.562911e-01	4.210526e+00	-2.916579e-01
8.054250e-01	4.210526e+00	-2.817457e-01
7.470317e-01	4.210526e+00	-2.699633e-01
6.809074e-01	4.210526e+00	-2.559818e-01
6.100852e-01	4.210526e+00	-2.403847e-01
5.354138e-01	4.210526e+00	-2.229691e-01
4.593635e-01	4.210526e+00	-2.042585e-01
3.837764e-01	4.210526e+00	-1.841224e-01
3.103069e-01	4.210526e+00	-1.630077e-01
2.415927e-01	4.210526e+00	-1.409228e-01
1.782654e-01	4.210526e+00	-1.183331e-01
1.234349e-01	4.210526e+00	-9.558566e-02
7.662509e-02	4.210526e+00	-7.318920e-02
4.106998e-02	4.210526e+00	-5.193053e-02
1.528206e-02	4.210526e+00	-3.215886e-02
2.347037e-03	4.210526e+00	-1.488740e-02
0.000000e+00	4.210526e+00	0.000000e+00
1.064939e-02	4.210526e+00	1.066461e-02
3.126595e-02	4.210526e+00	1.703450e-02
6.375031e-02	4.210526e+00	1.787236e-02
1.050105e-01	4.210526e+00	1.417221e-02
1.560448e-01	4.210526e+00	4.777214e-03
2.137742e-01	4.210526e+00	-9.048270e-03
2.782849e-01	4.210526e+00	-2.799567e-02
3.468570e-01	4.210526e+00	-5.051783e-02
4.187060e-01	4.210526e+00	-7.662000e-02
4.916930e-01	4.210526e+00	-1.047585e-01
5.642168e-01	4.210526e+00	-1.343226e-01
6.348639e-01	4.210526e+00	-1.641238e-01
7.013280e-01	4.210526e+00	-1.931337e-01
7.630418e-01	4.210526e+00	-2.206893e-01
8.172084e-01	4.210526e+00	-2.454799e-01
8.641863e-01	4.210526e+00	-2.673591e-01
9.009752e-01	4.210526e+00	-2.848204e-01
9.288372e-01	4.210526e+00	-2.982085e-01
9.448555e-01	4.210526e+00	-3.059908e-01
9.510565e-01	4.210526e+00	-3.090170e-01
9.510565e-01	5.263158e+00	-3.090170e-01
9.442611e-01	5.263158e+00	-3.078203e-01
9.267277e-01	5.263158e+00	-3.047010e-01
8.963175e-01	5.263158e+00	-2.991555e-01
8.562911e-01	5.263158e+00	-2.916579e-01
8.054250e-01	5.263158e+00	-2.817457e-01
7.470317e-01	5.263158e+00	-2.699633e-01
6.809074e-01	5.263158e+00	-2.559818e-01
6.100852e-01	5.263158e+00	-2.403847e-01
5.354138e-01	5.263158e+00	-2.229691e-01
4.593635e-01	5.263158e+00	-2.042585e-01
3.837764e-01	5.263158e+00	-1.841224e-01
3.103069e-01	5.263158e+00	-1.630077e-01
2.415927e-01	5.263158e+00	-1.409228e-01
1.782654e-01	5.263158e+00	-1.183331e-01
1.234349e-01	5.263158e+00	-9.558566e-02
7.662509e-02	5.263158e+00	-7.318920e-02
4.106998e-02	5.263158e+00	-5.193053e-02
1.528206e-02	5.263158e+00	-3.215886e-02
2.347037e-03	5.263158e+00	-1.488740e-02
0.000000e+00	5.263158e+00	0.000000e+00
1.064939e-02	5.263158e+00	1.066461e-02
3.126595e-02	5.263158e+00	1.703450e-02
6.375031e-02	5.263158e+00	1.787236e-02
1.050105e-01	5.263158e+00	1.417221e-02
1.560448e-01	5.263158e+00	4.777214e-03
2.137742e-01	5.263158e+00	-9.048270e-03
2.782849e-01	5.263158e+00	-2.799567e-02
3.468570e-01	5.263158e+00	-5.051783e-02
4.187060e-01	5.263158e+00	-7.662000e-02
4.916930e-01	5.263158e+00	-1.047585e-01
5.642168e-01	5.263158e+00	-1.343226e-01
6.348639e-01	5.263158e+00	-1.641238e-01
7.013280e-01	5.263158e+00	-1.931337e-01
7.630418e-01	5.263158e+00	-2.206893e-01
8.172084e-01	5.263158e+00	-2.454799e-01
8.641863e-01	5.263158e+00	-2.673591e-01
9.009752e-01	5.263158e+00	-2.848204e-01
9.288372e-01	5.263158e+00	-2.982085e-01
9.448555e-01	5.263158e+00	-3.059908e-01
9.510565e-01	5.263158e+00	-3.090170e-01
9.510565e-01	6.315789e+00	-3.090170e-01
9.442611e-01	6.315789e+00	-3.078203e-01
[...]
CELL_DATA 760
VECTORS V double
8.414362e-01	-6.901727e-02	-1.481738e-01
8.655605e-01	-6.884371e-02	-1.539886e-01
8.835797e-01	-6.839404e-02	-1.611292e-01
8.953507e-01	-6.759981e-02	-1.677129e-01
8.978212e-01	-6.643913e-02	-1.749574e-01
8.991396e-01	-6.489438e-02	-1.814251e-01
8.921078e-01	-6.295527e-02	-1.886296e-01
8.848037e-01	-6.059777e-02	-1.948595e-01
8.704766e-01	-5.779345e-02	-2.030215e-01
8.547867e-01	-5.450970e-02	-2.103021e-01
8.295523e-01	-5.072988e-02	-2.209900e-01
7.987050e-01	-4.641291e-02	-2.295429e-01
7.513079e-01	-4.161869e-02	-2.414716e-01
6.892999e-01	-3.638953e-02	-2.458827e-01
6.026695e-01	-3.076339e-02	-2.500285e-01
4.720203e-01	-2.486299e-02	-2.258413e-01
2.703449e-01	-1.869628e-02	-1.616412e-01
-1.717785e-02	-1.242922e-02	1.317031e-02
-4.215401e-01	-5.863273e-03	5.628605e-01
-3.425838e-01	7.155388e-04	2.173030e+00
2.326562e+00	8.426727e-03	2.329886e+00
2.541326e+00	1.518988e-02	7.851923e-01
2.210299e+00	2.213451e-02	5.700962e-02
1.925346e+00	2.898042e-02	-1.726618e-01
1.720050e+00	3.596856e-02	-3.166474e-01
1.570301e+00	4.293386e-02	-3.760677e-01
1.435472e+00	4.987067e-02	-4.216113e-01
1.336671e+00	5.660057e-02	-4.390229e-01
1.250588e+00	6.300554e-02	-4.543284e-01
1.181667e+00	6.888732e-02	-4.555652e-01
1.121855e+00	7.412925e-02	-4.573207e-01
1.071604e+00	7.859539e-02	-4.520372e-01
1.027467e+00	8.222417e-02	-4.484637e-01
9.871958e-01	8.500770e-02	-4.407895e-01
9.499776e-01	8.699730e-02	-4.347780e-01
9.115283e-01	8.829085e-02	-4.245304e-01
8.743636e-01	8.901663e-02	-4.150020e-01
8.341913e-01	8.932365e-02	-4.008441e-01
7.910645e-01	8.936749e-02	-3.843297e-01
7.483144e-01	8.932179e-02	-3.651845e-01
8.268728e-01	-4.833423e-02	-1.456093e-01
8.473653e-01	-4.820995e-02	-1.507515e-01
8.618334e-01	-4.789151e-02	-1.571635e-01
8.705257e-01	-4.732784e-02	-1.630628e-01
8.702839e-01	-4.649630e-02	-1.695912e-01
8.689071e-01	-4.537809e-02	-1.753249e-01
8.589159e-01	-4.396254e-02	-1.816114e-01
8.480552e-01	-4.223467e-02	-1.867664e-01
8.293946e-01	-4.017968e-02	-1.934399e-01
8.084175e-01	-3.778240e-02	-1.988940e-01
7.766431e-01	-3.501758e-02	-2.068951e-01
7.379981e-01	-3.192196e-02	-2.120961e-01
6.817102e-01	-2.848662e-02	-2.191028e-01
6.086798e-01	-2.476214e-02	-2.171244e-01
5.089057e-01	-2.077447e-02	-2.111289e-01
3.609389e-01	-1.660663e-02	-1.726936e-01
1.375732e-01	-1.226037e-02	-8.225606e-02
-1.812510e-01	-7.849052e-03	1.389656e-01
-6.029211e-01	-3.232835e-03	8.050491e-01
-4.197294e-01	1.385432e-03	2.662369e+00
2.681983e+00	6.784183e-03	2.685816e+00
2.843682e+00	1.149902e-02	8.786109e-01
2.432976e+00	1.631195e-02	6.275307e-02
2.097140e+00	2.102010e-02	-1.880680e-01
1.860340e+00	2.578217e-02	-3.424738e-01
1.689535e+00	3.047853e-02	-4.046229e-01
1.538976e+00	3.510336e-02	-4.520114e-01
1.427739e+00	3.953860e-02	-4.689338e-01
1.330663e+00	4.371246e-02	-4.834191e-01
1.251859e+00	4.751709e-02	-4.826262e-01
1.182632e+00	5.084163e-02	-4.820962e-01
1.123309e+00	5.365780e-02	-4.738478e-01
1.070370e+00	5.591626e-02	-4.671896e-01
1.021724e+00	5.762134e-02	-4.562065e-01
9.765774e-01	5.881424e-02	-4.469520e-01
9.307521e-01	5.956578e-02	-4.334836e-01
8.867451e-01	5.996432e-02	-4.208786e-01
8.402920e-01	6.011063e-02	-4.037756e-01
7.917032e-01	6.010696e-02	-3.846400e-01
7.448151e-01	6.006366e-02	-3.634768e-01
8.205797e-01	-2.041075e-02	-1.445011e-01
8.397429e-01	-2.035957e-02	-1.493954e-01
8.527313e-01	-2.022862e-02	-1.555037e-01
8.598959e-01	-1.999272e-02	-1.610717e-01
8.581116e-01	-1.963427e-02	-1.672192e-01
8.551522e-01	-1.913661e-02	-1.725495e-01
8.435365e-01	-1.849002e-02	-1.783596e-01
8.309414e-01	-1.768916e-02	-1.829974e-01
8.103914e-01	-1.670695e-02	-1.890078e-01
7.870125e-01	-1.559295e-02	-1.936277e-01
7.529566e-01	-1.431500e-02	-2.005851e-01
7.116742e-01	-1.290585e-02	-2.045308e-01
6.518694e-01	-1.134979e-02	-2.095119e-01
5.747333e-01	-9.682965e-03	-2.050152e-01
4.699713e-01	-7.915450e-03	-1.949762e-01
3.152549e-01	-6.079688e-03	-1.508358e-01
8.329857e-02	-4.172404e-03	-4.980483e-02
-2.480383e-01	-2.241499e-03	1.901717e-01
-6.764279e-01	-2.261256e-04	9.031989e-01
-4.507646e-01	1.781818e-03	2.859227e+00
2.823059e+00	4.110538e-03	2.827093e+00
2.961385e+00	6.118185e-03	9.149778e-01
2.517584e+00	8.131340e-03	6.493535e-02
2.160427e+00	1.005488e-02	-1.937435e-01
1.910154e+00	1.194507e-02	-3.516441e-01
1.730133e+00	1.374835e-02	-4.143456e-01
1.572665e+00	1.546016e-02	-4.619062e-01
1.456028e+00	1.703989e-02	-4.782253e-01
1.354575e+00	1.847012e-02	-4.921061e-01
1.271634e+00	1.973649e-02	-4.902499e-01
1.198744e+00	2.080219e-02	-4.886640e-01
1.136439e+00	2.166189e-02	-4.793863e-01
1.080517e+00	2.229834e-02	-4.716188e-01
1.029144e+00	2.276962e-02	-4.595196e-01
9.815158e-01	2.307155e-02	-4.492121e-01
9.334763e-01	2.323614e-02	-4.347524e-01
8.875181e-01	2.329860e-02	-4.212455e-01
8.394009e-01	2.329640e-02	-4.033474e-01
7.894803e-01	2.326528e-02	-3.835600e-01
7.416828e-01	2.323914e-02	-3.619483e-01
8.182835e-01	-1.022184e-02	-1.440967e-01
8.367460e-01	-1.020079e-02	-1.488623e-01
8.489858e-01	-1.014450e-02	-1.548206e-01
8.553955e-01	-1.003868e-02	-1.602287e-01
8.528231e-01	-9.873488e-03	-1.661886e-01
8.490256e-01	-9.625615e-03	-1.713133e-01
8.365425e-01	-9.312904e-03	-1.768807e-01
8.226548e-01	-8.915399e-03	-1.811725e-01
8.011130e-01	-8.442006e-03	-1.868438e-01
7.770135e-01	-7.877960e-03	-1.911677e-01
7.415211e-01	-7.238246e-03	-1.975387e-01
6.984822e-01	-6.500272e-03	-2.007395e-01
6.369409e-01	-5.694494e-03	-2.047138e-01
5.576496e-01	-4.818798e-03	-1.989212e-01
4.502649e-01	-3.884603e-03	-1.868007e-01
2.920090e-01	-2.909018e-03	-1.397137e-01
5.558416e-02	-1.895325e-03	-3.323419e-02
-2.821899e-01	-8.614723e-04	2.163558e-01
-7.140187e-01	2.050373e-04	9.533919e-01
-4.665970e-01	1.280842e-03	2.959653e+00
2.894622e+00	2.523064e-03	2.898758e+00
3.020627e+00	3.601326e-03	9.332817e-01
2.559790e+00	4.659475e-03	6.602394e-02
2.191650e+00	5.661689e-03	-1.965435e-01
1.934467e+00	6.640588e-03	-3.561198e-01
1.749738e+00	7.560177e-03	-4.190406e-01
1.588772e+00	8.424199e-03	-4.666370e-01
1.469444e+00	9.213706e-03	-4.826315e-01
1.365799e+00	9.929596e-03	-4.961836e-01
1.281285e+00	1.054867e-02	-4.939708e-01
1.206743e+00	1.108726e-02	-4.919250e-01
1.142438e+00	1.151869e-02	-4.819171e-01
1.085201e+00	1.185688e-02	-4.736629e-01
1.032939e+00	1.209512e-02	-4.612141e-01
9.841774e-01	1.225526e-02	-4.504303e-01
9.351406e-01	1.233630e-02	-4.355275e-01
8.883065e-01	1.238028e-02	-4.216197e-01
8.394457e-01	1.239049e-02	-4.033690e-01
7.889596e-01	1.238366e-02	-3.833070e-01
7.408119e-01	1.237500e-02	-3.615233e-01
8.170481e-01	-5.657461e-03	-1.438792e-01
8.352108e-01	-5.645705e-03	-1.485892e-01
8.470339e-01	-5.614830e-03	-1.544647e-01
8.529857e-01	-5.555377e-03	-1.597773e-01
8.496581e-01	-5.459106e-03	-1.655719e-01
8.454212e-01	-5.318679e-03	-1.705860e-01
8.325518e-01	-5.147089e-03	-1.760369e-01
8.185408e-01	-4.927020e-03	-1.802665e-01
7.963879e-01	-4.661707e-03	-1.857417e-01
7.712087e-01	-4.319732e-03	-1.897395e-01
7.349519e-01	-3.934735e-03	-1.957887e-01
6.910990e-01	-3.498514e-03	-1.986176e-01
6.285173e-01	-3.026948e-03	-2.020065e-01
5.478444e-01	-2.606508e-03	-1.954236e-01
4.388964e-01	-2.063123e-03	-1.820842e-01
2.786217e-01	-1.455640e-03	-1.333084e-01
3.957892e-02	-8.461765e-04	-2.366453e-02
-3.018126e-01	-2.265504e-04	2.314006e-01
-7.355097e-01	4.212871e-04	9.820877e-01
-4.758259e-01	1.065986e-03	3.018192e+00
2.936915e+00	1.809265e-03	2.941112e+00
3.055196e+00	2.444076e-03	9.439624e-01
2.583908e+00	3.072540e-03	6.664603e-02
2.209505e+00	3.663382e-03	-1.981447e-01
1.948230e+00	4.233062e-03	-3.586536e-01
1.760671e+00	4.756511e-03	-4.216589e-01
1.597675e+00	5.242307e-03	-4.692518e-01
1.476887e+00	5.786101e-03	-4.850762e-01
1.371965e+00	6.190264e-03	-4.984238e-01
1.286243e+00	6.528363e-03	-4.958820e-01
1.210891e+00	6.808942e-03	-4.936158e-01
1.146273e+00	7.039123e-03	-4.835349e-01
1.088241e+00	7.237318e-03	-4.749899e-01
1.034916e+00	7.380086e-03	-4.620967e-01
9.854534e-01	7.478432e-03	-4.510143e-01
9.358601e-01	7.527037e-03	-4.358626e-01
8.888516e-01	7.550434e-03	-4.218784e-01
8.396024e-01	7.556853e-03	-4.034443e-01
7.887863e-01	7.553690e-03	-3.832228e-01
7.403555e-01	7.548788e-03	-3.613005e-01
8.163105e-01	-3.307483e-03	-1.437493e-01
8.342529e-01	-3.300685e-03	-1.484187e-01
8.458050e-01	-3.282704e-03	-1.542406e-01
8.514164e-01	-3.248365e-03	-1.594834e-01
8.479850e-01	-3.215689e-03	-1.652458e-01
8.436150e-01	-3.128978e-03	-1.702216e-01
8.304836e-01	-3.006463e-03	-1.755996e-01
8.157422e-01	-2.858549e-03	-1.796501e-01
7.929097e-01	-2.671326e-03	-1.849305e-01
7.674695e-01	-2.436883e-03	-1.888196e-01
7.307882e-01	-2.195834e-03	-1.946795e-01
6.863819e-01	-1.968844e-03	-1.972619e-01
6.245136e-01	-1.653864e-03	-2.007197e-01
5.433964e-01	-1.434235e-03	-1.938369e-01
4.315797e-01	-1.068441e-03	-1.790488e-01
2.695638e-01	-6.897915e-04	-1.289746e-01
2.933556e-02	-2.934746e-04	-1.753995e-02
-3.146050e-01	1.015505e-04	2.412085e-01
-7.497143e-01	5.272029e-04	1.001054e+00
-4.816051e-01	9.356834e-04	3.054851e+00
2.962142e+00	1.407057e-03	2.966375e+00
3.076148e+00	1.795031e-03	9.504360e-01
2.599016e+00	2.192669e-03	6.703570e-02
2.220378e+00	2.564218e-03	-1.991198e-01
1.956369e+00	2.915597e-03	-3.601518e-01
1.767010e+00	3.243469e-03	-4.231772e-01
1.604421e+00	3.658383e-03	-4.712333e-01
1.482537e+00	3.916885e-03	-4.869320e-01
1.375464e+00	4.161567e-03	-4.996951e-01
1.289092e+00	4.382161e-03	-4.969804e-01
1.213139e+00	4.549507e-03	-4.945322e-01
1.147908e+00	4.658262e-03	-4.842243e-01
1.089768e+00	4.756480e-03	-4.756563e-01
1.036430e+00	4.836317e-03	-4.627730e-01
9.865782e-01	4.890158e-03	-4.515291e-01
9.365200e-01	4.963399e-03	-4.361699e-01
8.890356e-01	4.966157e-03	-4.219658e-01
8.396003e-01	4.964631e-03	-4.034433e-01
7.886103e-01	4.960895e-03	-3.831374e-01
7.400613e-01	4.957647e-03	-3.611570e-01
8.159072e-01	-2.033243e-03	-1.436783e-01
8.337606e-01	-2.029154e-03	-1.483311e-01
8.451928e-01	-2.018830e-03	-1.541289e-01
8.513287e-01	-2.000004e-03	-1.594669e-01
8.471589e-01	-1.969590e-03	-1.650848e-01
8.417762e-01	-2.013173e-03	-1.698506e-01
8.283743e-01	-1.890639e-03	-1.751536e-01
8.137643e-01	-1.785415e-03	-1.792146e-01
7.906936e-01	-1.685889e-03	-1.844137e-01
7.649677e-01	-1.544273e-03	-1.882041e-01
7.288315e-01	-1.387726e-03	-1.941583e-01
6.838927e-01	-1.216882e-03	-1.965466e-01
6.210404e-01	-1.016944e-03	-1.996034e-01
5.392385e-01	-7.374230e-04	-1.923537e-01
4.267798e-01	-5.024854e-04	-1.770574e-01
2.643550e-01	-2.955002e-04	-1.264824e-01
2.265944e-02	-5.172854e-05	-1.354825e-02
-3.227503e-01	1.706347e-04	2.474536e-01
-7.586313e-01	4.303194e-04	1.012961e+00
-4.853389e-01	6.871208e-04	3.078534e+00
2.978881e+00	9.820793e-04	2.983138e+00
3.089846e+00	1.232174e-03	9.546683e-01
2.608642e+00	1.472806e-03	6.728397e-02
2.227380e+00	1.730834e-03	-1.997478e-01
1.961849e+00	1.950549e-03	-3.611607e-01
1.773510e+00	2.163797e-03	-4.247338e-01
1.607768e+00	2.361615e-03	-4.722162e-01
1.483864e+00	2.462670e-03	-4.873677e-01
1.378028e+00	2.607182e-03	-5.006266e-01
1.291136e+00	2.743538e-03	-4.977686e-01
1.214350e+00	2.856442e-03	-4.950259e-01
1.148915e+00	2.946969e-03	-4.846492e-01
1.090621e+00	3.045523e-03	-4.760289e-01
1.036852e+00	3.111069e-03	-4.629614e-01
9.874637e-01	3.231931e-03	-4.519343e-01
9.373913e-01	3.223660e-03	-4.365757e-01
8.888921e-01	3.217874e-03	-4.218976e-01
8.394551e-01	3.215001e-03	-4.033735e-01
7.884535e-01	3.211763e-03	-3.830611e-01
7.398581e-01	3.209460e-03	-3.610578e-01
8.156243e-01	-1.104519e-03	-1.436285e-01
8.334138e-01	-1.101471e-03	-1.482695e-01
8.447831e-01	-1.091924e-03	-1.540542e-01
8.501583e-01	-1.099028e-03	-1.592477e-01
8.483870e-01	-1.050306e-03	-1.653242e-01
8.420659e-01	-1.033522e-03	-1.699090e-01
8.269941e-01	-9.983595e-04	-1.748618e-01
8.128373e-01	-9.744987e-04	-1.790104e-01
7.896493e-01	-9.856289e-04	-1.841701e-01
7.635553e-01	-9.087655e-04	-1.878566e-01
7.265089e-01	-8.085252e-04	-1.935395e-01
6.814435e-01	-6.878103e-04	-1.958427e-01
6.178815e-01	-5.763622e-04	-1.985881e-01
5.357092e-01	-3.423162e-04	-1.910948e-01
4.243496e-01	-2.522244e-04	-1.760492e-01
2.613088e-01	-1.242217e-04	-1.250249e-01
1.931794e-02	1.296230e-05	-1.155034e-02
-3.268236e-01	1.549286e-04	2.505766e-01
-7.639872e-01	3.042935e-04	1.020112e+00
-4.875733e-01	4.531307e-04	3.092707e+00
2.988830e+00	6.244287e-04	2.993101e+00
3.097652e+00	7.699494e-04	9.570802e-01
2.615229e+00	9.129934e-04	6.745387e-02
2.232118e+00	1.046571e-03	-2.001727e-01
1.965065e+00	1.174163e-03	-3.617527e-01
1.774046e+00	1.293986e-03	-4.248620e-01
1.608881e+00	1.321004e-03	-4.725430e-01
1.485964e+00	1.432598e-03	-4.880576e-01
1.379126e+00	1.539615e-03	-5.010255e-01
1.292237e+00	1.596127e-03	-4.981929e-01
1.215687e+00	1.659189e-03	-4.955707e-01
1.150316e+00	1.800093e-03	-4.852403e-01
1.091968e+00	1.816298e-03	-4.766168e-01
1.039067e+00	1.852509e-03	-4.639503e-01
9.885138e-01	1.856238e-03	-4.524149e-01
9.362549e-01	1.829498e-03	-4.360465e-01
8.888297e-01	1.838766e-03	-4.218680e-01
8.394165e-01	1.863751e-03	-4.033549e-01
7.883379e-01	1.860998e-03	-3.830050e-01
7.397086e-01	1.859570e-03	-3.609848e-01
8.153958e-01	-1.368614e-03	-1.435882e-01
8.330098e-01	-1.368838e-03	-1.481976e-01
8.452169e-01	-1.370088e-03	-1.541333e-01
8.501199e-01	-1.353638e-03	-1.592405e-01
8.459019e-01	-1.314451e-03	-1.648399e-01
8.408604e-01	-1.269872e-03	-1.696658e-01
8.274751e-01	-1.138152e-03	-1.749635e-01
8.135992e-01	-1.197989e-03	-1.791782e-01
7.897852e-01	-9.763811e-04	-1.842018e-01
7.626417e-01	-1.024106e-03	-1.876318e-01
7.259442e-01	-6.662759e-04	-1.933891e-01
6.807933e-01	-7.532577e-04	-1.956558e-01
6.162904e-01	-3.166149e-04	-1.980767e-01
5.343118e-01	-3.788423e-04	-1.905963e-01
4.232660e-01	8.076495e-05	-1.755997e-01
2.594781e-01	4.176507e-04	-1.241490e-01
1.670401e-02	6.094018e-04	-9.987451e-03
-3.301973e-01	6.547455e-04	2.531632e-01
-7.668655e-01	7.006176e-04	1.023955e+00
-4.888011e-01	7.605863e-04	3.100495e+00
2.994396e+00	8.403764e-04	2.998676e+00
3.102519e+00	9.175401e-04	9.585839e-01
2.617536e+00	1.012657e-03	6.751338e-02
2.233841e+00	1.093242e-03	-2.003272e-01
1.966811e+00	1.026350e-03	-3.620742e-01
1.775927e+00	8.072128e-04	-4.253125e-01
1.609931e+00	4.583858e-04	-4.728515e-01
1.486895e+00	6.217448e-04	-4.883635e-01
1.380149e+00	3.049273e-04	-5.013968e-01
1.292646e+00	4.352156e-04	-4.983508e-01
1.216898e+00	1.414611e-04	-4.960646e-01
1.150948e+00	2.939145e-04	-4.855069e-01
1.091312e+00	3.786605e-05	-4.763302e-01
1.037448e+00	9.951585e-05	-4.632274e-01
9.871281e-01	-1.095347e-04	-4.517808e-01
9.370053e-01	-5.776079e-05	-4.363960e-01
8.896274e-01	-7.612850e-05	-4.222466e-01
8.402924e-01	-8.327987e-05	-4.037758e-01
7.882385e-01	-7.853505e-05	-3.829567e-01
7.396394e-01	-7.749346e-05	-3.609511e-01
8.156620e-01	4.079018e-05	-1.436351e-01
8.335061e-01	2.320414e-05	-1.482859e-01
8.441663e-01	2.158390e-05	-1.539418e-01
8.487064e-01	4.285538e-05	-1.589757e-01
8.466938e-01	4.041879e-05	-1.649942e-01
8.389296e-01	3.919420e-05	-1.692762e-01
8.260314e-01	3.758701e-05	-1.746582e-01
8.104146e-01	3.811165e-05	-1.784769e-01
7.873753e-01	8.093812e-05	-1.836397e-01
7.594590e-01	6.931334e-05	-1.868488e-01
7.229327e-01	6.110391e-05	-1.925869e-01
6.769189e-01	6.003027e-05	-1.945423e-01
6.124530e-01	-7.837967e-08	-1.968434e-01
5.301716e-01	2.937077e-06	-1.891195e-01
4.112424e-01	3.404585e-05	-1.706115e-01
2.513210e-01	1.479456e-06	-1.202462e-01
1.388583e-02	4.630463e-06	-8.302441e-03
-3.291626e-01	6.979526e-06	2.523699e-01
-7.668291e-01	7.991986e-06	1.023907e+00
-4.890655e-01	8.032257e-06	3.102172e+00
2.996605e+00	7.367926e-06	3.000887e+00
3.105394e+00	6.339870e-06	9.594720e-01
2.620834e+00	4.794693e-06	6.759845e-02
2.232033e+00	2.333592e-06	-2.001650e-01
1.959042e+00	3.418015e-05	-3.606440e-01
1.764158e+00	2.985186e-05	-4.224941e-01
1.606445e+00	-4.704452e-06	-4.718275e-01
1.483622e+00	4.588646e-05	-4.872882e-01
1.376810e+00	3.179514e-05	-5.001839e-01
1.290141e+00	2.219725e-05	-4.973848e-01
1.213891e+00	1.630172e-05	-4.948385e-01
1.149095e+00	-2.684496e-05	-4.847251e-01
1.089245e+00	-2.345870e-05	-4.754280e-01
1.037140e+00	-2.435806e-05	-4.630898e-01
9.857251e-01	-2.340141e-05	-4.511386e-01
9.369951e-01	-2.351133e-05	-4.363912e-01
8.882154e-01	-2.243245e-05	-4.215764e-01
8.392743e-01	-4.478997e-05	-4.032866e-01
7.886640e-01	-4.367718e-05	-3.831634e-01
7.398681e-01	-2.619986e-05	-3.610627e-01
8.183472e-01	1.463553e-03	-1.441079e-01
8.337231e-01	1.463934e-03	-1.483245e-01
8.444195e-01	1.465837e-03	-1.539879e-01
8.497276e-01	1.451325e-03	-1.591670e-01
8.459733e-01	1.414946e-03	-1.648538e-01
8.409096e-01	1.461198e-03	-1.696757e-01
8.274901e-01	1.288208e-03	-1.749667e-01
8.129647e-01	1.349535e-03	-1.790385e-01
7.893787e-01	1.081757e-03	-1.841070e-01
7.629018e-01	1.128260e-03	-1.876958e-01
7.260662e-01	7.744299e-04	-1.934216e-01
6.815937e-01	7.842093e-04	-1.958858e-01
6.171124e-01	3.495369e-04	-1.983409e-01
5.338242e-01	4.368144e-04	-1.904224e-01
4.232228e-01	-5.759746e-05	-1.755818e-01
2.600789e-01	-3.945045e-04	-1.244365e-01
1.658444e-02	-5.877322e-04	-9.915962e-03
-3.302890e-01	-6.093486e-04	2.532336e-01
-7.669001e-01	-6.857788e-04	1.024002e+00
-4.887956e-01	-7.470167e-04	3.100460e+00
2.994309e+00	-8.304484e-04	2.998588e+00
3.102401e+00	-8.829280e-04	9.585475e-01
2.617402e+00	-9.785233e-04	6.750992e-02
2.234669e+00	-1.092747e-03	-2.004015e-01
1.967300e+00	-1.031118e-03	-3.621642e-01
1.775226e+00	-7.851701e-04	-4.251448e-01
1.610236e+00	-4.452963e-04	-4.729412e-01
1.487373e+00	-6.462609e-04	-4.885204e-01
1.379841e+00	-3.433713e-04	-5.012850e-01
1.292451e+00	-4.099196e-04	-4.982755e-01
1.216287e+00	-1.328534e-04	-4.958154e-01
1.150430e+00	-2.730889e-04	-4.852883e-01
1.091346e+00	-2.765328e-05	-4.763454e-01
1.037448e+00	-1.339537e-04	-4.632272e-01
9.871428e-01	-3.277169e-05	-4.517875e-01
9.370213e-01	-6.011740e-05	-4.364034e-01
8.892103e-01	-3.042835e-05	-4.220487e-01
8.395099e-01	-2.067711e-05	-4.033998e-01
7.888553e-01	-2.482371e-05	-3.832564e-01
7.423160e-01	-2.579142e-05	-3.622573e-01
8.155980e-01	1.196413e-03	-1.436238e-01
8.333642e-01	1.211103e-03	-1.482606e-01
8.446889e-01	1.203915e-03	-1.540371e-01
8.500379e-01	1.198283e-03	-1.592251e-01
8.463420e-01	1.087030e-03	-1.649257e-01
8.413625e-01	1.062853e-03	-1.697671e-01
8.275740e-01	9.896866e-04	-1.749844e-01
8.134930e-01	9.716857e-04	-1.791548e-01
7.902764e-01	9.465367e-04	-1.843164e-01
7.635185e-01	8.677370e-04	-1.878475e-01
7.274596e-01	7.790925e-04	-1.937928e-01
6.824683e-01	7.086257e-04	-1.961372e-01
6.175160e-01	6.282727e-04	-1.984706e-01
5.358113e-01	4.793610e-04	-1.911312e-01
4.249536e-01	3.448933e-04	-1.762998e-01
2.613341e-01	2.378477e-04	-1.250370e-01
1.890493e-02	8.951130e-05	-1.130340e-02
-3.268720e-01	-6.082129e-05	2.506137e-01
-7.629432e-01	-2.166541e-04	1.018718e+00
-4.875241e-01	-3.707317e-04	3.092395e+00
2.990122e+00	-5.474247e-04	2.994395e+00
3.098491e+00	-6.972768e-04	9.573392e-01
2.613954e+00	-8.442916e-04	6.742098e-02
2.231235e+00	-9.806774e-04	-2.000935e-01
1.965555e+00	-1.144744e-03	-3.618429e-01
1.774312e+00	-1.262370e-03	-4.249259e-01
1.608154e+00	-1.370770e-03	-4.723296e-01
1.485259e+00	-1.501238e-03	-4.878261e-01
1.379797e+00	-1.585517e-03	-5.012689e-01
1.292825e+00	-1.649779e-03	-4.984195e-01
1.215629e+00	-1.702833e-03	-4.955472e-01
1.150342e+00	-1.779354e-03	-4.852513e-01
1.091246e+00	-1.801177e-03	-4.763016e-01
1.036922e+00	-1.807314e-03	-4.629926e-01
9.870407e-01	-1.829287e-03	-4.517408e-01
9.369408e-01	-1.850753e-03	-4.363659e-01
8.891724e-01	-1.768500e-03	-4.220307e-01
8.395254e-01	-1.778962e-03	-4.034072e-01
7.883772e-01	-1.778732e-03	-3.830241e-01
7.397199e-01	-1.795213e-03	-3.609903e-01
8.158818e-01	1.711583e-03	-1.436738e-01
8.337054e-01	1.700660e-03	-1.483213e-01
8.448355e-01	1.577006e-03	-1.540638e-01
8.529607e-01	1.669578e-03	-1.597726e-01
8.485328e-01	1.696745e-03	-1.653526e-01
8.426423e-01	1.705456e-03	-1.700253e-01
8.288510e-01	1.662962e-03	-1.752544e-01
8.135806e-01	1.597065e-03	-1.791741e-01
7.907933e-01	1.523525e-03	-1.844369e-01
7.651001e-01	1.407891e-03	-1.882367e-01
7.281479e-01	1.266093e-03	-1.939762e-01
6.836029e-01	1.184864e-03	-1.964633e-01
6.202702e-01	9.811539e-04	-1.993558e-01
5.380513e-01	7.851327e-04	-1.919302e-01