# vtk DataFile Version 2.0
OUTPUT by 3D-VPM
ASCII
DATASET UNSTRUCTURED_GRID
POINTS 820 double
9.510565e-01	0.000000e+00	-3.090170e-01
9.442611e-01	0.000000e+00	-3.078203e-01
9.267277e-01	0.000000e+00	-3.047010e-01
8.963175e-01	0.000000e+00	-2.991555e-01
8.562911e-01	0.000000e+00	-2.916579e-01
8.054250e-01	0.000000e+00	-2.817457e-01
7.470317e-01	0.000000e+00	-2.699633e-01
6.809074e-01	0.000000e+00	-2.559818e-01
6.100852e-01	0.000000e+00	-2.403847e-01
5.354138e-01	0.000000e+00	-2.229691e-01
4.593635e-01	0.000000e+00	-2.042585e-01
3.837764e-01	0.000000e+00	-1.841224e-01
3.103069e-01	0.000000e+00	-1.630077e-01
2.415927e-01	0.000000e+00	-1.409228e-01
1.782654e-01	0.000000e+00	-1.183331e-01
1.234349e-01	0.000000e+00	-9.558566e-02
7.662509e-02	0.000000e+00	-7.318920e-02
4.106998e-02	0.000000e+00	-5.193053e-02
1.528206e-02	0.000000e+00	-3.215886e-02
2.347037e-03	0.000000e+00	-1.488740e-02
0.000000e+00	0.000000e+00	0.000000e+00
1.064939e-02	0.000000e+00	1.066461e-02
3.126595e-02	0.000000e+00	1.703450e-02
6.375031e-02	0.000000e+00	1.787236e-02
1.050105e-01	0.000000e+00	1.417221e-02
1.560448e-01	0.000000e+00	4.777214e-03
2.137742e-01	0.000000e+00	-9.048270e-03
2.782849e-01	0.000000e+00	-2.799567e-02
3.468570e-01	0.000000e+00	-5.051783e-02
4.187060e-01	0.000000e+00	-7.662000e-02
4.916930e-01	0.000000e+00	-1.047585e-01
5.642168e-01	0.000000e+00	-1.343226e-01
6.348639e-01	0.000000e+00	-1.641238e-01
7.013280e-01	0.000000e+00	-1.931337e-01
7.630418e-01	0.000000e+00	-2.206893e-01
8.172084e-01	0.000000e+00	-2.454799e-01
8.641863e-01	0.000000e+00	-2.673591e-01
9.009752e-01	0.000000e+00	-2.848204e-01
9.288372e-01	0.000000e+00	-2.982085e-01
9.448555e-01	0.000000e+00	-3.059908e-01
9.510565e-01	0.000000e+00	-3.090170e-01
9.510565e-01	1.052632e+00	-3.090170e-01
9.442611e-01	1.052632e+00	-3.078203e-01
9.267277e-01	1.052632e+00	-3.047010e-01
8.963175e-01	1.052632e+00	-2.991555e-01
8.562911e-01	1.052632e+00	-2.916579e-01
8.054250e-01	1.052632e+00	-2.817457e-01
7.470317e-01	1.052632e+00	-2.699633e-01
6.809074e-01	1.052632e+00	-2.559818e-01
6.100852e-01	1.052632e+00	-2.403847e-01
5.354138e-01	1.052632e+00	-2.229691e-01
4.593635e-01	1.052632e+00	-2.042585e-01
3.837764e-01	1.052632e+00	-1.841224e-01
3.103069e-01	1.052632e+00	-1.630077e-01
2.415927e-01	1.052632e+00	-1.409228e-01
1.782654e-01	1.052632e+00	-1.183331e-01
1.234349e-01	1.052632e+00	-9.558566e-02
7.662509e-02	1.052632e+00	-7.318920e-02
4.106998e-02	1.052632e+00	-5.193053e-02
1.528206e-02	1.052632e+00	-3.215886e-02
2.347037e-03	1.052632e+00	-1.488740e-02
0.000000e+00	1.052632e+00	0.000000e+00
1.064939e-02	1.052632e+00	1.066461e-02
3.126595e-02	1.052632e+00	1.703450e-02
6.375031e-02	1.052632e+00	1.787236e-02
1.050105e-01	1.052632e+00	1.417221e-02
1.560448e-01	1.052632e+00	4.777214e-03
2.137742e-01	1.052632e+00	-9.048270e-03
2.782849e-01	1.052632e+00	-2.799567e-02
3.468570e-01	1.052632e+00	-5.051783e-02
4.187060e-01	1.052632e+00	-7.662000e-02
4.916930e-01	1.052632e+00	-1.047585e-01
5.642168e-01	1.052632e+00	-1.343226e-01
6.348639e-01	1.052632e+00	-1.641238e-01
7.013280e-01	1.052632e+00	-1.931337e-01
7.630418e-01	1.052632e+00	-2.206893e-01
8.172084e-01	1.052632e+00	-2.454799e-01
8.641863e-01	1.052632e+00	-2.673591e-01
9.009752e-01	1.052632e+00	-2.848204e-01
9.288372e-01	1.052632e+00	-2.982085e-01
9.448555e-01	1.052632e+00	-3.059908e-01
9.510565e-01	1.052632e+00	-3.090170e-01
9.510565e-01	2.105263e+00	-3.090170e-01
9.442611e-01	2.105263e+00	-3.078203e-01
9.267277e-01	2.105263e+00	-3.047010e-01
8.963175e-01	2.105263e+00	-2.991555e-01
8.562911e-01	2.105263e+00	-2.916579e-01
8.054250e-01	2.105263e+00	-2.817457e-01
7.470317e-01	2.105263e+00	-2.699633e-01
6.809074e-01	2.105263e+00	-2.559818e-01
6.100852e-01	2.105263e+00	-2.403847e-01
5.354138e-01	2.105263e+00	-2.229691e-01
4.593635e-01	2.105263e+00	-2.042585e-01
3.837764e-01	2.105263e+00	-1.841224e-01
3.103069e-01	2.105263e+00	-1.630077e-01
2.415927e-01	2.105263e+00	-1.409228e-01
1.782654e-01	2.105263e+00	-1.183331e-01
1.234349e-01	2.105263e+00	-9.558566e-02
7.662509e-02	2.105263e+00	-7.318920e-02
4.106998e-02	2.105263e+00	-5.193053e-02
1.528206e-02	2.105263e+00	-3.215886e-02
2.347037e-03	2.105263e+00	-1.488740e-02
0.000000e+00	2.105263e+00	0.000000e+00
1.064939e-02	2.105263e+00	1.066461e-02
3.126595e-02	2.105263e+00	1.703450e-02
6.375031e-02	2.105263e+00	1.787236e-02
1.050105e-01	2.105263e+00	1.417221e-02
1.560448e-01	2.105263e+00	4.777214e-03
2.137742e-01	2.105263e+00	-9.048270e-03
2.782849e-01	2.105263e+00	-2.799567e-02
3.468570e-01	2.105263e+00	-5.051783e-02
4.187060e-01	2.105263e+00	-7.662000e-02
4.916930e-01	2.105263e+00	-1.047585e-01
5.642168e-01	2.105263e+00	-1.343226e-01
6.348639e-01	2.105263e+00	-1.641238e-01
7.013280e-01	2.105263e+00	-1.931337e-01
7.630418e-01	2.105263e+00	-2.206893e-01
8.172084e-01	2.105263e+00	-2.454799e-01
8.641863e-01	2.105263e+00	-2.673591e-01
9.009752e-01	2.105263e+00	-2.848204e-01
9.288372e-01	2.105263e+00	-2.982085e-01
9.448555e-01	2.105263e+00	-3.059908e-01
9.510565e-01	2.105263e+00	-3.090170e-01
9.510565e-01	3.157895e+00	-3.090170e-01
9.442611e-01	3.157895e+00	-3.078203e-01
9.267277e-01	3.157895e+00	-3.047010e-01
8.963175e-01	3.157895e+00	-2.991555e-01
8.562911e-01	3.157895e+00	-2.916579e-01
8.054250e-01	3.157895e+00	-2.817457e-01
7.470317e-01	3.157895e+00	-2.699633e-01
6.809074e-01	3.157895e+00	-2.559818e-01
6.100852e-01	3.157895e+00	-2.403847e-01
5.354138e-01	3.157895e+00	-2.229691e-01
4.593635e-01	3.157895e+00	-2.042585e-01
3.837764e-01	3.157895e+00	-1.841224e-01
3.103069e-01	3.157895e+00	-1.630077e-01
2.415927e-01	3.157895e+00	-1.409228e-01
1.782654e-01	3.157895e+00	-1.183331e-01
1.234349e-01	3.157895e+00	-9.558566e-02
7.662509e-02	3.157895e+00	-7.318920e-02
4.106998e-02	3.157895e+00	-5.193053e-02
1.528206e-02	3.157895e+00	-3.215886e-02
2.347037e-03	3.157895e+00	-1.488740e-02
0.000000e+00	3.157895e+00	0.000000e+00
1.064939e-02	3.157895e+00	1.066461e-02
3.126595e-02	3.157895e+00	1.703450e-02
6.375031e-02	3.157895e+00	1.787236e-02
1.050105e-01	3.157895e+00	1.417221e-02
1.560448e-01	3.157895e+00	4.777214e-03
2.137742e-01	3.157895e+00	-9.048270e-03
2.782849e-01	3.157895e+00	-2.799567e-02
3.468570e-01	3.157895e+00	-5.051783e-02
4.187060e-01	3.157895e+00	-7.662000e-02
4.916930e-01	3.157895e+00	-1.047585e-01
5.642168e-01	3.157895e+00	-1.343226e-01
6.348639e-01	3.157895e+00	-1.641238e-01
7.013280e-01	3.157895e+00	-1.931337e-01
7.630418e-01	3.157895e+00	-2.206893e-01
8.172084e-01	3.157895e+00	-2.454799e-01
8.641863e-01	3.157895e+00	-2.673591e-01
9.009752e-01	3.157895e+00	-2.848204e-01
9.288372e-01	3.157895e+00	-2.982085e-01
9.448555e-01	3.157895e+00	-3.059908e-01
9.510565e-01	3.157895e+00	-3.090170e-01
9.510565e-01	4.210526e+00	-3.090170e-01
9.442611e-01	4.210526e+00	-3.078203e-01
9.267277e-01	4.210526e+00	-3.047010e-01
8.963175e-01	4.210526e+00	-2.991555e-01
8.562911e-01	4.210526e+00	-2.916579e-01
8.054250e-01	4.210526e+00	-2.817457e-01
7.470317e-01	4.210526e+00	-2.699633e-01
6.809074e-01	4.210526e+00	-2.559818e-01
6.100852e-01	4.210526e+00	-2.403847e-01
5.354138e-01	4.210526e+00	-2.229691e-01
4.593635e-01	4.210526e+00	-2.042585e-01
3.837764e-01	4.210526e+00	-1.841224e-01
3.103069e-01	4.210526e+00	-1.630077e-01
2.415927e-01	4.210526e+00	-1.409228e-01
1.782654e-01	4.210526e+00	-1.183331e-01
1.234349e-01	4.210526e+00	-9.558566e-02
7.662509e-02	4.210526e+00	-7.318920e-02
4.106998e-02	4.210526e+00	-5.193053e-02
1.528206e-02	4.210526e+00	-3.215886e-02
2.347037e-03	4.210526e+00	-1.488740e-02
0.000000e+00	4.210526e+00	0.000000e+00
1.064939e-02	4.210526e+00	1.066461e-02
3.126595e-02	4.210526e+00	1.703450e-02
6.375031e-02	4.210526e+00	1.787236e-02
1.050105e-01	4.210526e+00	1.417221e-02
1.560448e-01	4.210526e+00	4.777214e-03
2.137742e-01	4.210526e+00	-9.048270e-03
2.782849e-01	4.210526e+00	-2.799567e-02
3.468570e-01	4.210526e+00	-5.051783e-02
4.187060e-01	4.210526e+00	-7.662000e-02
4.916930e-01	4.210526e+00	-1.047585e-01
5.642168e-01	4.210526e+00	-1.343226e-01
6.348639e-01	4.210526e+00	-1.641238e-01
7.013280e-01	4.210526e+00	-1.931337e-01
7.630418e-01	4.210526e+00	-2.206893e-01
8.172084e-01	4.210526e+00	-2.454799e-01
8.641863e-01	4.210526e+00	-2.673591e-01
9.009752e-01	4.210526e+00	-2.848204e-01
9.288372e-01	4.210526e+00	-2.982085e-01
9.448555e-01	4.210526e+00	-3.059908e-01
9.510565e-01	4.210526e+00	-3.090170e-01
9.510565e-01	5.263158e+00	-3.090170e-01
9.442611e-01	5.263158e+00	-3.078203e-01
9.267277e-01	5.263158e+00	-3.047010e-01
8.963175e-01	5.263158e+00	-2.991555e-01
8.562911e-01	5.263158e+00	-2.916579e-01
8.054250e-01	5.263158e+00	-2.817457e-01
7.470317e-01	5.263158e+00	-2.699633e-01
6.809074e-01	5.263158e+00	-2.559818e-01
6.100852e-01	5.263158e+00	-2.403847e-01
5.354138e-01	5.263158e+00	-2.229691e-01
4.593635e-01	5.263158e+00	-2.042585e-01
3.837764e-01	5.263158e+00	-1.841224e-01
3.103069e-01	5.263158e+00	-1.630077e-01
2.415927e-01	5.263158e+00	-1.409228e-01
1.782654e-01	5.263158e+00	-1.183331e-01
1.234349e-01	5.263158e+00	-9.558566e-02
7.662509e-02	5.263158e+00	-7.318920e-02
4.106998e-02	5.263158e+00	-5.193053e-02
1.528206e-02	5.263158e+00	-3.215886e-02
2.347037e-03	5.263158e+00	-1.488740e-02
0.000000e+00	5.263158e+00	0.000000e+00
1.064939e-02	5.263158e+00	1.066461e-02
3.126595e-02	5.263158e+00	1.703450e-02
6.375031e-02	5.263158e+00	1.787236e-02
1.050105e-01	5.263158e+00	1.417221e-02
1.560448e-01	5.263158e+00	4.777214e-03
2.137742e-01	5.263158e+00	-9.048270e-03
2.782849e-01	5.263158e+00	-2.799567e-02
3.468570e-01	5.263158e+00	-5.051783e-02
4.187060e-01	5.263158e+00	-7.662000e-02
4.916930e-01	5.263158e+00	-1.047585e-01
5.642168e-01	5.263158e+00	-1.343226e-01
6.348639e-01	5.263158e+00	-1.641238e-01
7.013280e-01	5.263158e+00	-1.931337e-01
7.630418e-01	5.263158e+00	-2.206893e-01
8.172084e-01	5.263158e+00	-2.454799e-01
8.641863e-01	5.263158e+00	-2.673591e-01
9.009752e-01	5.263158e+00	-2.848204e-01
9.288372e-01	5.263158e+00	-2.982085e-01
9.448555e-01	5.263158e+00	-3.059908e-01
9.510565e-01	5.263158e+00	-3.090170e-01
9.510565e-01	6.315789e+00	-3.090170e-01
9.442611e-01	6.315789e+00	-3.078203e-01
[...]
CELL_DATA 760
VECTORS V double
8.414375e-01	-6.901517e-02	-1.481741e-01
8.655622e-01	-6.884161e-02	-1.539888e-01
8.835819e-01	-6.839195e-02	-1.611296e-01
8.953534e-01	-6.759773e-02	-1.677134e-01
8.978246e-01	-6.643706e-02	-1.749580e-01
8.991437e-01	-6.489234e-02	-1.814260e-01
8.921127e-01	-6.295326e-02	-1.886306e-01
8.848093e-01	-6.059580e-02	-1.948607e-01
8.704829e-01	-5.779154e-02	-2.030229e-01
8.547940e-01	-5.450787e-02	-2.103039e-01
8.295607e-01	-5.072815e-02	-2.209922e-01
7.987144e-01	-4.641135e-02	-2.295456e-01
7.513186e-01	-4.161732e-02	-2.414750e-01
6.893124e-01	-3.638838e-02	-2.458871e-01
6.026843e-01	-3.076247e-02	-2.500347e-01
4.720381e-01	-2.486232e-02	-2.258498e-01
2.703666e-01	-1.869590e-02	-1.616542e-01
-1.715008e-02	-1.242910e-02	1.314901e-02
-4.215090e-01	-5.863411e-03	5.628190e-01
-3.425706e-01	7.151510e-04	2.172946e+00
2.326502e+00	8.426061e-03	2.329827e+00
2.541278e+00	1.518898e-02	7.851774e-01
2.210265e+00	2.213338e-02	5.700875e-02
1.925321e+00	2.897909e-02	-1.726596e-01
1.720031e+00	3.596706e-02	-3.166440e-01
1.570287e+00	4.293216e-02	-3.760644e-01
1.435461e+00	4.986877e-02	-4.216081e-01
1.336662e+00	5.659848e-02	-4.390201e-01
1.250581e+00	6.300324e-02	-4.543260e-01
1.181662e+00	6.888481e-02	-4.555633e-01
1.121852e+00	7.412651e-02	-4.573191e-01
1.071602e+00	7.859246e-02	-4.520360e-01
1.027465e+00	8.222106e-02	-4.484628e-01
9.871944e-01	8.500445e-02	-4.407889e-01
9.499767e-01	8.699394e-02	-4.347776e-01
9.115278e-01	8.828740e-02	-4.245302e-01
8.743635e-01	8.901312e-02	-4.150019e-01
8.341915e-01	8.932011e-02	-4.008442e-01
7.910649e-01	8.936393e-02	-3.843299e-01
7.483149e-01	8.931823e-02	-3.651848e-01
8.268742e-01	-4.833293e-02	-1.456095e-01
8.473672e-01	-4.820865e-02	-1.507518e-01
8.618359e-01	-4.789022e-02	-1.571640e-01
8.705288e-01	-4.732656e-02	-1.630634e-01
8.702877e-01	-4.649504e-02	-1.695919e-01
8.689117e-01	-4.537685e-02	-1.753259e-01
8.589214e-01	-4.396133e-02	-1.816126e-01
8.480616e-01	-4.223350e-02	-1.867678e-01
8.294019e-01	-4.017857e-02	-1.934416e-01
8.084260e-01	-3.778135e-02	-1.988961e-01
7.766533e-01	-3.501663e-02	-2.068978e-01
7.380099e-01	-3.192111e-02	-2.120995e-01
6.817237e-01	-2.848589e-02	-2.191071e-01
6.086957e-01	-2.476156e-02	-2.171300e-01
5.089245e-01	-2.077405e-02	-2.111367e-01
3.609615e-01	-1.660637e-02	-1.727044e-01
1.376008e-01	-1.226028e-02	-8.227252e-02
-1.812165e-01	-7.849142e-03	1.389392e-01
-6.028830e-01	-3.233101e-03	8.049982e-01
-4.197134e-01	1.384995e-03	2.662267e+00
2.681912e+00	6.783554e-03	2.685744e+00
2.843623e+00	1.149823e-02	8.785928e-01
2.432935e+00	1.631100e-02	6.275202e-02
2.097110e+00	2.101898e-02	-1.880654e-01
1.860318e+00	2.578094e-02	-3.424697e-01
1.689518e+00	3.047716e-02	-4.046187e-01
1.538962e+00	3.510186e-02	-4.520073e-01
1.427728e+00	3.953696e-02	-4.689301e-01
1.330654e+00	4.371069e-02	-4.834158e-01
1.251851e+00	4.751521e-02	-4.826233e-01
1.182626e+00	5.083962e-02	-4.820936e-01
1.123304e+00	5.365569e-02	-4.738456e-01
1.070366e+00	5.591404e-02	-4.671878e-01
1.021721e+00	5.761904e-02	-4.562051e-01
9.765749e-01	5.881188e-02	-4.469509e-01
9.307502e-01	5.956338e-02	-4.334827e-01
8.867438e-01	5.996189e-02	-4.208780e-01
8.402913e-01	6.010819e-02	-4.037753e-01
7.917031e-01	6.010452e-02	-3.846399e-01
7.448153e-01	6.006122e-02	-3.634770e-01
8.205814e-01	-2.041044e-02	-1.445014e-01
8.397451e-01	-2.035926e-02	-1.493958e-01
8.527341e-01	-2.022831e-02	-1.555042e-01
8.598994e-01	-1.999243e-02	-1.610724e-01
8.581159e-01	-1.963399e-02	-1.672200e-01
8.551572e-01	-1.913635e-02	-1.725505e-01
8.435425e-01	-1.848978e-02	-1.783608e-01
8.309483e-01	-1.768895e-02	-1.829990e-01
8.103994e-01	-1.670678e-02	-1.890096e-01
7.870219e-01	-1.559284e-02	-1.936301e-01
7.529675e-01	-1.431492e-02	-2.005880e-01
7.116866e-01	-1.290581e-02	-2.045343e-01
6.518838e-01	-1.134980e-02	-2.095165e-01
5.747503e-01	-9.683031e-03	-2.050213e-01
4.699913e-01	-7.915576e-03	-1.949845e-01
3.152790e-01	-6.079877e-03	-1.508473e-01
8.332774e-02	-4.172658e-03	-4.982228e-02
-2.480016e-01	-2.241818e-03	1.901435e-01
-6.763872e-01	-2.265145e-04	9.031445e-01
-4.507475e-01	1.781360e-03	2.859119e+00
2.822982e+00	4.109998e-03	2.827016e+00
2.961323e+00	6.117577e-03	9.149584e-01
2.517540e+00	8.130663e-03	6.493420e-02
2.160395e+00	1.005414e-02	-1.937407e-01
1.910131e+00	1.194426e-02	-3.516398e-01
1.730115e+00	1.374749e-02	-4.143411e-01
1.572650e+00	1.545924e-02	-4.619019e-01
1.456016e+00	1.703893e-02	-4.782213e-01
1.354565e+00	1.846912e-02	-4.921026e-01
1.271626e+00	1.973543e-02	-4.902468e-01
1.198737e+00	2.080113e-02	-4.886613e-01
1.136433e+00	2.166082e-02	-4.793840e-01
1.080513e+00	2.229726e-02	-4.716169e-01
1.029140e+00	2.276853e-02	-4.595181e-01
9.815132e-01	2.307045e-02	-4.492110e-01
9.334745e-01	2.323504e-02	-4.347515e-01
8.875170e-01	2.329750e-02	-4.212450e-01
8.394004e-01	2.329530e-02	-4.033472e-01
7.894804e-01	2.326418e-02	-3.835600e-01
7.416833e-01	2.323805e-02	-3.619485e-01
8.182852e-01	-1.022178e-02	-1.440970e-01
8.367482e-01	-1.020074e-02	-1.488627e-01
8.489888e-01	-1.014445e-02	-1.548212e-01
8.553992e-01	-1.003864e-02	-1.602294e-01
8.528276e-01	-9.873454e-03	-1.661895e-01
8.490309e-01	-9.625601e-03	-1.713144e-01
8.365487e-01	-9.312905e-03	-1.768820e-01
8.226621e-01	-8.915418e-03	-1.811741e-01
8.011216e-01	-8.442046e-03	-1.868458e-01
7.770233e-01	-7.878020e-03	-1.911701e-01
7.415322e-01	-7.238314e-03	-1.975417e-01
6.984950e-01	-6.500372e-03	-2.007432e-01
6.369559e-01	-5.694619e-03	-2.047186e-01
5.576672e-01	-4.818955e-03	-1.989275e-01
4.502857e-01	-3.884795e-03	-1.868093e-01
2.920341e-01	-2.909242e-03	-1.397256e-01
5.561449e-02	-1.895603e-03	-3.325232e-02
-2.821520e-01	-8.617834e-04	2.163268e-01
-7.139768e-01	2.046915e-04	9.533359e-01
-4.665793e-01	1.280460e-03	2.959541e+00
2.894543e+00	2.522641e-03	2.898679e+00
3.020563e+00	3.600867e-03	9.332618e-01
2.559745e+00	4.658980e-03	6.602278e-02
2.191617e+00	5.661204e-03	-1.965406e-01
1.934442e+00	6.640051e-03	-3.561153e-01
1.749719e+00	7.559607e-03	-4.190360e-01
1.588757e+00	8.423603e-03	-4.666325e-01
1.469431e+00	9.213084e-03	-4.826274e-01
1.365788e+00	9.928945e-03	-4.961799e-01
1.281277e+00	1.054800e-02	-4.939677e-01
1.206737e+00	1.108656e-02	-4.919223e-01
1.142433e+00	1.151797e-02	-4.819149e-01
1.085196e+00	1.185616e-02	-4.736610e-01
1.032935e+00	1.209439e-02	-4.612125e-01
9.841748e-01	1.225452e-02	-4.504291e-01
9.351388e-01	1.233557e-02	-4.355266e-01
8.883054e-01	1.237954e-02	-4.216192e-01
8.394452e-01	1.238975e-02	-4.033687e-01
7.889595e-01	1.238292e-02	-3.833070e-01
7.408124e-01	1.237426e-02	-3.615235e-01
8.170500e-01	-5.657578e-03	-1.438795e-01
8.352133e-01	-5.645823e-03	-1.485896e-01
8.470371e-01	-5.614957e-03	-1.544653e-01
8.529896e-01	-5.555511e-03	-1.597780e-01
8.496630e-01	-5.459250e-03	-1.655728e-01
8.454269e-01	-5.318838e-03	-1.705872e-01
8.325583e-01	-5.147260e-03	-1.760383e-01
8.185483e-01	-4.927197e-03	-1.802681e-01
7.963965e-01	-4.661894e-03	-1.857437e-01
7.712186e-01	-4.319925e-03	-1.897420e-01
7.349633e-01	-3.934947e-03	-1.957918e-01
6.911122e-01	-3.498743e-03	-1.986214e-01
6.285325e-01	-3.027183e-03	-2.020114e-01
5.478623e-01	-2.606750e-03	-1.954300e-01
4.389176e-01	-2.063369e-03	-1.820930e-01
2.786473e-01	-1.455915e-03	-1.333206e-01
3.961000e-02	-8.464657e-04	-2.368311e-02
-3.017742e-01	-2.268515e-04	2.313711e-01
-7.354671e-01	4.209735e-04	9.820308e-01
-4.758079e-01	1.065659e-03	3.018079e+00
2.936834e+00	1.808925e-03	2.941031e+00
3.055130e+00	2.443724e-03	9.439421e-01
2.583863e+00	3.072177e-03	6.664486e-02
2.209472e+00	3.663007e-03	-1.981418e-01
1.948205e+00	4.232682e-03	-3.586489e-01
1.760651e+00	4.756135e-03	-4.216542e-01
1.597659e+00	5.241932e-03	-4.692472e-01
1.476874e+00	5.785710e-03	-4.850720e-01
1.371955e+00	6.189858e-03	-4.984200e-01
1.286234e+00	6.527952e-03	-4.958788e-01
1.210884e+00	6.808518e-03	-4.936129e-01
1.146268e+00	7.038686e-03	-4.835325e-01
1.088236e+00	7.236868e-03	-4.749879e-01
1.034912e+00	7.379618e-03	-4.620951e-01
9.854507e-01	7.477956e-03	-4.510131e-01
9.358583e-01	7.526558e-03	-4.358618e-01
8.888504e-01	7.549953e-03	-4.218779e-01
8.396020e-01	7.556372e-03	-4.034441e-01
7.887864e-01	7.553215e-03	-3.832229e-01
7.403561e-01	7.548315e-03	-3.613008e-01
8.163126e-01	-3.308459e-03	-1.437497e-01
8.342557e-01	-3.301667e-03	-1.484192e-01
8.458085e-01	-3.283700e-03	-1.542412e-01
8.514206e-01	-3.249383e-03	-1.594841e-01
8.479900e-01	-3.216717e-03	-1.652468e-01
8.436208e-01	-3.130034e-03	-1.702228e-01
8.304901e-01	-3.007546e-03	-1.756010e-01
8.157498e-01	-2.859643e-03	-1.796518e-01
7.929185e-01	-2.672413e-03	-1.849326e-01
7.674796e-01	-2.437968e-03	-1.888221e-01
7.307998e-01	-2.196875e-03	-1.946826e-01
6.863951e-01	-1.969799e-03	-1.972657e-01
6.245288e-01	-1.654757e-03	-2.007246e-01
5.434142e-01	-1.435043e-03	-1.938432e-01
4.316011e-01	-1.069168e-03	-1.790576e-01
2.695896e-01	-6.904478e-04	-1.289870e-01
2.936644e-02	-2.940384e-04	-1.755841e-02
-3.145665e-01	1.010660e-04	2.411790e-01
-7.496717e-01	5.267995e-04	1.000997e+00
-4.815872e-01	9.353601e-04	3.054737e+00
2.962061e+00	1.406827e-03	2.966294e+00
3.076082e+00	1.794884e-03	9.504157e-01
2.598970e+00	2.192609e-03	6.703452e-02
2.220345e+00	2.564224e-03	-1.991168e-01
1.956344e+00	2.915710e-03	-3.601473e-01
1.766991e+00	3.243676e-03	-4.231726e-01
1.604406e+00	3.658673e-03	-4.712287e-01
1.482524e+00	3.917270e-03	-4.869277e-01
1.375454e+00	4.162035e-03	-4.996914e-01
1.289083e+00	4.382686e-03	-4.969771e-01
1.213132e+00	4.550096e-03	-4.945294e-01
1.147902e+00	4.658919e-03	-4.842219e-01
1.089763e+00	4.757157e-03	-4.756542e-01
1.036426e+00	4.836997e-03	-4.627712e-01
9.865754e-01	4.890833e-03	-4.515278e-01
9.365181e-01	4.964038e-03	-4.361690e-01
8.890345e-01	4.966795e-03	-4.219652e-01
8.395999e-01	4.965270e-03	-4.034431e-01
7.886106e-01	4.961537e-03	-3.831375e-01
7.400619e-01	4.958292e-03	-3.611573e-01
8.159101e-01	-2.043044e-03	-1.436788e-01
8.337642e-01	-2.039063e-03	-1.483318e-01
8.451972e-01	-2.029073e-03	-1.541297e-01
8.513333e-01	-2.010974e-03	-1.594678e-01
8.471645e-01	-1.981887e-03	-1.650859e-01
8.417828e-01	-2.027310e-03	-1.698519e-01
8.283813e-01	-1.935994e-03	-1.751551e-01
8.137719e-01	-1.797894e-03	-1.792162e-01
7.907020e-01	-1.695624e-03	-1.844156e-01
7.649769e-01	-1.551850e-03	-1.882063e-01
7.288412e-01	-1.393689e-03	-1.941609e-01
6.839039e-01	-1.221616e-03	-1.965498e-01
6.210536e-01	-1.020728e-03	-1.996076e-01
5.392540e-01	-7.404286e-04	-1.923592e-01
4.267985e-01	-5.048716e-04	-1.770652e-01
2.643776e-01	-2.973477e-04	-1.264932e-01
2.268681e-02	-5.311415e-05	-1.356462e-02
-3.227160e-01	1.696572e-04	2.474273e-01
-7.585931e-01	4.297292e-04	1.012910e+00
-4.853228e-01	6.868963e-04	3.078432e+00
2.978809e+00	9.822723e-04	2.983066e+00
3.089788e+00	1.232736e-03	9.546503e-01
2.608602e+00	1.473784e-03	6.728293e-02
2.227352e+00	1.732218e-03	-1.997452e-01
1.961828e+00	1.952414e-03	-3.611568e-01
1.773494e+00	2.166210e-03	-4.247298e-01
1.607755e+00	2.364688e-03	-4.722124e-01
1.483853e+00	2.466567e-03	-4.873643e-01
1.378020e+00	2.612141e-03	-5.006235e-01
1.291129e+00	2.749863e-03	-4.977660e-01
1.214345e+00	2.864631e-03	-4.950237e-01
1.148910e+00	2.957919e-03	-4.846472e-01
1.090617e+00	3.061429e-03	-4.760271e-01
1.036849e+00	3.133354e-03	-4.629598e-01
9.874604e-01	3.249564e-03	-4.519328e-01
9.373888e-01	3.237554e-03	-4.365746e-01
8.888909e-01	3.230423e-03	-4.218971e-01
8.394548e-01	3.227001e-03	-4.033733e-01
7.884539e-01	3.223595e-03	-3.830613e-01
7.398591e-01	3.221278e-03	-3.610583e-01
8.156446e-01	-1.104129e-03	-1.436320e-01
8.334430e-01	-1.101083e-03	-1.482747e-01
8.448243e-01	-1.091540e-03	-1.540617e-01
8.502154e-01	-1.098633e-03	-1.592584e-01
8.484566e-01	-1.049935e-03	-1.653377e-01
8.426746e-01	-1.033151e-03	-1.700318e-01
8.269273e-01	-9.979931e-04	-1.748477e-01
8.123525e-01	-9.741227e-04	-1.789036e-01
7.895923e-01	-9.852769e-04	-1.841568e-01
7.635159e-01	-9.084093e-04	-1.878469e-01
7.264833e-01	-8.081880e-04	-1.935327e-01
6.814276e-01	-6.874962e-04	-1.958381e-01
6.178725e-01	-5.760698e-04	-1.985852e-01
5.357061e-01	-3.420564e-04	-1.910937e-01
4.243520e-01	-2.519697e-04	-1.760502e-01
2.613160e-01	-1.239659e-04	-1.250284e-01
1.933009e-02	1.319161e-05	-1.155760e-02
-3.268056e-01	1.551336e-04	2.505628e-01
-7.639654e-01	3.044748e-04	1.020083e+00
-4.875638e-01	4.532891e-04	3.092647e+00
2.988788e+00	6.245603e-04	2.993059e+00
3.097622e+00	7.700565e-04	9.570707e-01
2.615210e+00	9.130747e-04	6.745337e-02
2.232108e+00	1.046626e-03	-2.001717e-01
1.965061e+00	1.174156e-03	-3.617520e-01
1.774047e+00	1.293952e-03	-4.248624e-01
1.608888e+00	1.320925e-03	-4.725451e-01
1.485978e+00	1.432489e-03	-4.880620e-01
1.379148e+00	1.539463e-03	-5.010332e-01
1.292269e+00	1.595966e-03	-4.982053e-01
1.215737e+00	1.659002e-03	-4.955914e-01
1.150408e+00	1.799860e-03	-4.852792e-01
1.092114e+00	1.816064e-03	-4.766804e-01
1.039096e+00	1.852244e-03	-4.639631e-01
9.883759e-01	1.855965e-03	-4.523518e-01
9.361545e-01	1.829238e-03	-4.359997e-01
8.887831e-01	1.838495e-03	-4.218459e-01
8.393920e-01	1.863460e-03	-4.033432e-01
7.883274e-01	1.860706e-03	-3.829999e-01
7.397071e-01	1.859278e-03	-3.609841e-01
8.153989e-01	-1.356756e-03	-1.435888e-01
8.330138e-01	-1.356872e-03	-1.481983e-01
8.452210e-01	-1.357785e-03	-1.541341e-01
8.501250e-01	-1.340610e-03	-1.592415e-01
8.459080e-01	-1.300103e-03	-1.648411e-01
8.408671e-01	-1.253681e-03	-1.696671e-01
8.274820e-01	-1.090789e-03	-1.749650e-01
8.136069e-01	-1.183547e-03	-1.791799e-01
7.897939e-01	-9.647640e-04	-1.842038e-01
7.626512e-01	-1.014750e-03	-1.876341e-01
7.259545e-01	-6.586641e-04	-1.933919e-01
6.808050e-01	-7.470387e-04	-1.956592e-01
6.163043e-01	-3.115285e-04	-1.980812e-01
5.343279e-01	-3.747090e-04	-1.906020e-01
4.232847e-01	8.409577e-05	-1.756075e-01
2.595012e-01	4.202675e-04	-1.241601e-01
1.673248e-02	6.113541e-04	-1.000447e-02
-3.301617e-01	6.560896e-04	2.531359e-01
-7.668261e-01	7.013706e-04	1.023903e+00
-4.887844e-01	7.607733e-04	3.100389e+00
2.994322e+00	8.399138e-04	2.998601e+00
3.102459e+00	9.165056e-04	9.585652e-01
2.617494e+00	1.011000e-03	6.751230e-02
2.233811e+00	1.090978e-03	-2.003245e-01
1.966788e+00	1.023383e-03	-3.620699e-01
1.775909e+00	8.034834e-04	-4.253082e-01
1.609917e+00	4.537592e-04	-4.728473e-01
1.486884e+00	6.160918e-04	-4.883597e-01
1.380139e+00	2.980484e-04	-5.013935e-01
1.292639e+00	4.268060e-04	-4.983480e-01
1.216892e+00	1.310455e-04	-4.960621e-01
1.150943e+00	2.806285e-04	-4.855047e-01
1.091307e+00	1.953868e-05	-4.763281e-01
1.037444e+00	7.474180e-05	-4.632256e-01
9.871249e-01	-1.297051e-04	-4.517793e-01
9.370029e-01	-7.420365e-05	-4.363948e-01
8.896255e-01	-9.123157e-05	-4.222458e-01
8.402913e-01	-9.783554e-05	-4.037753e-01
7.882388e-01	-9.292426e-05	-3.829569e-01
7.396404e-01	-9.186935e-05	-3.609516e-01
8.156640e-01	4.989566e-05	-1.436354e-01
8.335088e-01	3.236265e-05	-1.482864e-01
8.441698e-01	3.087729e-05	-1.539424e-01
8.487108e-01	5.242445e-05	-1.589766e-01
8.466989e-01	5.052142e-05	-1.649952e-01
8.389362e-01	5.023015e-05	-1.692775e-01
8.260393e-01	5.036334e-05	-1.746599e-01
8.104240e-01	5.471328e-05	-1.784789e-01
7.873866e-01	1.011680e-04	-1.836424e-01
7.594721e-01	8.489491e-05	-1.868520e-01
7.229481e-01	7.219519e-05	-1.925910e-01
6.769367e-01	6.848200e-05	-1.945474e-01
6.124731e-01	6.565560e-06	-1.968498e-01
5.301947e-01	8.207441e-06	-1.891277e-01
4.112696e-01	3.817045e-05	-1.706227e-01
2.513538e-01	4.646740e-06	-1.202619e-01
1.392532e-02	6.955795e-06	-8.326051e-03
-3.291138e-01	8.545738e-06	2.523325e-01
-7.667752e-01	8.827134e-06	1.023835e+00
-4.890428e-01	8.172948e-06	3.102028e+00
2.996503e+00	6.716283e-06	3.000785e+00
3.105310e+00	4.992974e-06	9.594461e-01
2.620775e+00	2.714514e-06	6.759692e-02
2.231989e+00	-5.078448e-07	-2.001611e-01
1.959009e+00	3.051419e-05	-3.606378e-01
1.764131e+00	2.524034e-05	-4.224877e-01
1.606422e+00	-1.038394e-05	-4.718210e-01
1.483604e+00	3.890184e-05	-4.872823e-01
1.376795e+00	2.320986e-05	-5.001785e-01
1.290128e+00	1.163549e-05	-4.973800e-01
1.213880e+00	3.536629e-06	-4.948344e-01
1.149087e+00	-7.839088e-05	-4.847216e-01
1.089238e+00	-3.775853e-05	-4.754251e-01
1.037134e+00	-3.741824e-05	-4.630873e-01
9.857213e-01	-3.536880e-05	-4.511369e-01
9.369929e-01	-3.479778e-05	-4.363902e-01
8.882141e-01	-3.334899e-05	-4.215758e-01
8.392738e-01	-5.551876e-05	-4.032864e-01
7.886641e-01	-5.435247e-05	-3.831635e-01
7.398687e-01	-3.688215e-05	-3.610630e-01
8.183414e-01	1.464310e-03	-1.441069e-01
8.337161e-01	1.464689e-03	-1.483232e-01
8.444091e-01	1.466586e-03	-1.539860e-01
8.497118e-01	1.452064e-03	-1.591641e-01
8.459491e-01	1.415672e-03	-1.648491e-01
8.408693e-01	1.461890e-03	-1.696676e-01
8.274099e-01	1.288892e-03	-1.749497e-01
8.128667e-01	1.350179e-03	-1.790169e-01
7.894033e-01	1.082418e-03	-1.841127e-01
7.630312e-01	1.128889e-03	-1.877276e-01
7.261698e-01	7.750248e-04	-1.934492e-01
6.816650e-01	7.847805e-04	-1.959063e-01
6.171708e-01	3.500683e-04	-1.983597e-01
5.338780e-01	4.372759e-04	-1.904415e-01
4.232760e-01	-5.718210e-05	-1.756038e-01
2.601353e-01	-3.941540e-04	-1.244635e-01
1.664735e-02	-5.874502e-04	-9.953572e-03
-3.302151e-01	-6.091217e-04	2.531769e-01
-7.668211e-01	-6.855958e-04	1.023896e+00
-4.887629e-01	-7.468946e-04	3.100253e+00
2.994162e+00	-8.303953e-04	2.998441e+00
3.102278e+00	-8.829493e-04	9.585093e-01
2.617312e+00	-9.786013e-04	6.750758e-02
2.234599e+00	-1.092880e-03	-2.003952e-01
1.967241e+00	-1.031265e-03	-3.621534e-01
1.775174e+00	-7.853923e-04	-4.251322e-01
1.610186e+00	-4.455297e-04	-4.729264e-01
1.487321e+00	-6.465213e-04	-4.885034e-01
1.379785e+00	-3.436784e-04	-5.012647e-01
1.292391e+00	-4.102616e-04	-4.982523e-01
1.215770e+00	-1.332171e-04	-4.956046e-01
1.150387e+00	-2.734870e-04	-4.852700e-01
1.091870e+00	-2.808294e-05	-4.765738e-01
1.037477e+00	-1.343688e-04	-4.632403e-01
9.871683e-01	-3.317726e-05	-4.517992e-01
9.370389e-01	-6.053763e-05	-4.364116e-01
8.892217e-01	-3.085834e-05	-4.220541e-01
8.395169e-01	-2.111220e-05	-4.034032e-01
7.888588e-01	-2.526045e-05	-3.832581e-01
7.423159e-01	-2.622800e-05	-3.622572e-01
8.156004e-01	1.189436e-03	-1.436242e-01
8.333673e-01	1.204077e-03	-1.482612e-01
8.446930e-01	1.196761e-03	-1.540378e-01
8.500429e-01	1.190845e-03	-1.592261e-01
8.463481e-01	1.079077e-03	-1.649268e-01
8.413697e-01	1.053961e-03	-1.697685e-01
8.275826e-01	9.790529e-04	-1.749862e-01
8.135027e-01	9.571557e-04	-1.791569e-01
7.902880e-01	9.283136e-04	-1.843190e-01
7.635325e-01	8.540605e-04	-1.878510e-01
7.274757e-01	7.697787e-04	-1.937971e-01
6.824869e-01	7.017838e-04	-1.961425e-01
6.175376e-01	6.230763e-04	-1.984776e-01
5.358362e-01	4.753747e-04	-1.911401e-01
4.249826e-01	3.418564e-04	-1.763118e-01
2.613693e-01	2.355763e-04	-1.250539e-01
1.894709e-02	8.790257e-05	-1.132861e-02
-3.268206e-01	-6.185055e-05	2.505743e-01
-7.628866e-01	-2.171366e-04	1.018643e+00
-4.875000e-01	-3.707018e-04	3.092242e+00
2.990013e+00	-5.468126e-04	2.994286e+00
3.098402e+00	-6.961511e-04	9.573116e-01
2.613891e+00	-8.426173e-04	6.741936e-02
2.231190e+00	-9.784125e-04	-2.000894e-01
1.965520e+00	-1.141829e-03	-3.618364e-01
1.774284e+00	-1.258691e-03	-4.249191e-01
1.608131e+00	-1.366171e-03	-4.723229e-01
1.485240e+00	-1.495518e-03	-4.878199e-01
1.379781e+00	-1.578331e-03	-5.012632e-01
1.292811e+00	-1.640761e-03	-4.984145e-01
1.215618e+00	-1.691736e-03	-4.955427e-01
1.150333e+00	-1.729567e-03	-4.852475e-01
1.091239e+00	-1.788719e-03	-4.762985e-01
1.036917e+00	-1.796139e-03	-4.629902e-01
9.870368e-01	-1.819216e-03	-4.517390e-01
9.369381e-01	-1.841361e-03	-4.363646e-01
8.891708e-01	-1.759488e-03	-4.220299e-01
8.395246e-01	-1.770119e-03	-4.034069e-01
7.883773e-01	-1.769943e-03	-3.830241e-01
7.397205e-01	-1.786418e-03	-3.609907e-01
8.158844e-01	1.710200e-03	-1.436742e-01
8.337087e-01	1.699266e-03	-1.483219e-01
8.448397e-01	1.575652e-03	-1.540645e-01
8.529654e-01	1.668181e-03	-1.597735e-01
8.485387e-01	1.695306e-03	-1.653537e-01
8.426491e-01	1.703949e-03	-1.700267e-01
8.288591e-01	1.661428e-03	-1.752561e-01
8.135903e-01	1.595508e-03	-1.791762e-01
7.908042e-01	1.521945e-03	-1.844395e-01
7.651125e-01	1.406313e-03	-1.882397e-01
7.281620e-01	1.264532e-03	-1.939799e-01
6.836191e-01	1.183321e-03	-1.964679e-01
6.202886e-01	9.796450e-04	-1.993618e-01
5.380727e-01	7.836431e-04	-1.919379e-01