# vtk DataFile Version 2.0
OUTPUT by 3D-VPM
ASCII
DATASET UNSTRUCTURED_GRID
POINTS 820 double
9.510565e-01	0.000000e+00	-3.090170e-01
9.442611e-01	0.000000e+00	-3.078203e-01
9.267277e-01	0.000000e+00	-3.047010e-01
8.963175e-01	0.000000e+00	-2.991555e-01
8.562911e-01	0.000000e+00	-2.916579e-01
8.054250e-01	0.000000e+00	-2.817457e-01
7.470317e-01	0.000000e+00	-2.699633e-01
6.809074e-01	0.000000e+00	-2.559818e-01
6.100852e-01	0.000000e+00	-2.403847e-01
5.354138e-01	0.000000e+00	-2.229691e-01
4.593635e-01	0.000000e+00	-2.042585e-01
3.837764e-01	0.000000e+00	-1.841224e-01
3.103069e-01	0.000000e+00	-1.630077e-01
2.415927e-01	0.000000e+00	-1.409228e-01
1.782654e-01	0.000000e+00	-1.183331e-01
1.234349e-01	0.000000e+00	-9.558566e-02
7.662509e-02	0.000000e+00	-7.318920e-02
4.106998e-02	0.000000e+00	-5.193053e-02
1.528206e-02	0.000000e+00	-3.215886e-02
2.347037e-03	0.000000e+00	-1.488740e-02
0.000000e+00	0.000000e+00	0.000000e+00
1.064939e-02	0.000000e+00	1.066461e-02
3.126595e-02	0.000000e+00	1.703450e-02
6.375031e-02	0.000000e+00	1.787236e-02
1.050105e-01	0.000000e+00	1.417221e-02
1.560448e-01	0.000000e+00	4.777214e-03
2.137742e-01	0.000000e+00	-9.048270e-03
2.782849e-01	0.000000e+00	-2.799567e-02
3.468570e-01	0.000000e+00	-5.051783e-02
4.187060e-01	0.000000e+00	-7.662000e-02
4.916930e-01	0.000000e+00	-1.047585e-01
5.642168e-01	0.000000e+00	-1.343226e-01
6.348639e-01	0.000000e+00	-1.641238e-01
7.013280e-01	0.000000e+00	-1.931337e-01
7.630418e-01	0.000000e+00	-2.206893e-01
8.172084e-01	0.000000e+00	-2.454799e-01
8.641863e-01	0.000000e+00	-2.673591e-01
9.009752e-01	0.000000e+00	-2.848204e-01
9.288372e-01	0.000000e+00	-2.982085e-01
9.448555e-01	0.000000e+00	-3.059908e-01
9.510565e-01	0.000000e+00	-3.090170e-01
9.510565e-01	1.052632e+00	-3.090170e-01
9.442611e-01	1.052632e+00	-3.078203e-01
9.267277e-01	1.052632e+00	-3.047010e-01
8.963175e-01	1.052632e+00	-2.991555e-01
8.562911e-01	1.052632e+00	-2.916579e-01
8.054250e-01	1.052632e+00	-2.817457e-01
7.470317e-01	1.052632e+00	-2.699633e-01
6.809074e-01	1.052632e+00	-2.559818e-01
6.100852e-01	1.052632e+00	-2.403847e-01
5.354138e-01	1.052632e+00	-2.229691e-01
4.593635e-01	1.052632e+00	-2.042585e-01
3.837764e-01	1.052632e+00	-1.841224e-01
3.103069e-01	1.052632e+00	-1.630077e-01
2.415927e-01	1.052632e+00	-1.409228e-01
1.782654e-01	1.052632e+00	-1.183331e-01
1.234349e-01	1.052632e+00	-9.558566e-02
7.662509e-02	1.052632e+00	-7.318920e-02
4.106998e-02	1.052632e+00	-5.193053e-02
1.528206e-02	1.052632e+00	-3.215886e-02
2.347037e-03	1.052632e+00	-1.488740e-02
0.000000e+00	1.052632e+00	0.000000e+00
1.064939e-02	1.052632e+00	1.066461e-02
3.126595e-02	1.052632e+00	1.703450e-02
6.375031e-02	1.052632e+00	1.787236e-02
1.050105e-01	1.052632e+00	1.417221e-02
1.560448e-01	1.052632e+00	4.777214e-03
2.137742e-01	1.052632e+00	-9.048270e-03
2.782849e-01	1.052632e+00	-2.799567e-02
3.468570e-01	1.052632e+00	-5.051783e-02
4.187060e-01	1.052632e+00	-7.662000e-02
4.916930e-01	1.052632e+00	-1.047585e-01
5.642168e-01	1.052632e+00	-1.343226e-01
6.348639e-01	1.052632e+00	-1.641238e-01
7.013280e-01	1.052632e+00	-1.931337e-01
7.630418e-01	1.052632e+00	-2.206893e-01
8.172084e-01	1.052632e+00	-2.454799e-01
8.641863e-01	1.052632e+00	-2.673591e-01
9.009752e-01	1.052632e+00	-2.848204e-01
9.288372e-01	1.052632e+00	-2.982085e-01
9.448555e-01	1.052632e+00	-3.059908e-01
9.510565e-01	1.052632e+00	-3.090170e-01
9.510565e-01	2.105263e+00	-3.090170e-01
9.442611e-01	2.105263e+00	-3.078203e-01
9.267277e-01	2.105263e+00	-3.047010e-01
8.963175e-01	2.105263e+00	-2.991555e-01
8.562911e-01	2.105263e+00	-2.916579e-01
8.054250e-01	2.105263e+00	-2.817457e-01
7.470317e-01	2.105263e+00	-2.699633e-01
6.809074e-01	2.105263e+00	-2.559818e-01
6.100852e-01	2.105263e+00	-2.403847e-01
5.354138e-01	2.105263e+00	-2.229691e-01
4.593635e-01	2.105263e+00	-2.042585e-01
3.837764e-01	2.105263e+00	-1.841224e-01
3.103069e-01	2.105263e+00	-1.630077e-01
2.415927e-01	2.105263e+00	-1.409228e-01
1.782654e-01	2.105263e+00	-1.183331e-01
1.234349e-01	2.105263e+00	-9.558566e-02
7.662509e-02	2.105263e+00	-7.318920e-02
4.106998e-02	2.105263e+00	-5.193053e-02
1.528206e-02	2.105263e+00	-3.215886e-02
2.347037e-03	2.105263e+00	-1.488740e-02
0.000000e+00	2.105263e+00	0.000000e+00
1.064939e-02	2.105263e+00	1.066461e-02
3.126595e-02	2.105263e+00	1.703450e-02
6.375031e-02	2.105263e+00	1.787236e-02
1.050105e-01	2.105263e+00	1.417221e-02
1.560448e-01	2.105263e+00	4.777214e-03
2.137742e-01	2.105263e+00	-9.048270e-03
2.782849e-01	2.105263e+00	-2.799567e-02
3.468570e-01	2.105263e+00	-5.051783e-02
4.187060e-01	2.105263e+00	-7.662000e-02
4.916930e-01	2.105263e+00	-1.047585e-01
5.642168e-01	2.105263e+00	-1.343226e-01
6.348639e-01	2.105263e+00	-1.641238e-01
7.013280e-01	2.105263e+00	-1.931337e-01
7.630418e-01	2.105263e+00	-2.206893e-01
8.172084e-01	2.105263e+00	-2.454799e-01
8.641863e-01	2.105263e+00	-2.673591e-01
9.009752e-01	2.105263e+00	-2.848204e-01
9.288372e-01	2.105263e+00	-2.982085e-01
9.448555e-01	2.105263e+00	-3.059908e-01
9.510565e-01	2.105263e+00	-3.090170e-01
9.510565e-01	3.157895e+00	-3.090170e-01
9.442611e-01	3.157895e+00	-3.078203e-01
9.267277e-01	3.157895e+00	-3.047010e-01
8.963175e-01	3.157895e+00	-2.991555e-01
8.562911e-01	3.157895e+00	-2.916579e-01
8.054250e-01	3.157895e+00	-2.817457e-01
7.470317e-01	3.157895e+00	-2.699633e-01
6.809074e-01	3.157895e+00	-2.559818e-01
6.100852e-01	3.157895e+00	-2.403847e-01
5.354138e-01	3.157895e+00	-2.229691e-01
4.593635e-01	3.157895e+00	-2.042585e-01
3.837764e-01	3.157895e+00	-1.841224e-01
3.103069e-01	3.157895e+00	-1.630077e-01
2.415927e-01	3.157895e+00	-1.409228e-01
1.782654e-01	3.157895e+00	-1.183331e-01
1.234349e-01	3.157895e+00	-9.558566e-02
7.662509e-02	3.157895e+00	-7.318920e-02
4.106998e-02	3.157895e+00	-5.193053e-02
1.528206e-02	3.157895e+00	-3.215886e-02
2.347037e-03	3.157895e+00	-1.488740e-02
0.000000e+00	3.157895e+00	0.000000e+00
1.064939e-02	3.157895e+00	1.066461e-02
3.126595e-02	3.157895e+00	1.703450e-02
6.375031e-02	3.157895e+00	1.787236e-02
1.050105e-01	3.157895e+00	1.417221e-02
1.560448e-01	3.157895e+00	4.777214e-03
2.137742e-01	3.157895e+00	-9.048270e-03
2.782849e-01	3.157895e+00	-2.799567e-02
3.468570e-01	3.157895e+00	-5.051783e-02
4.187060e-01	3.157895e+00	-7.662000e-02
4.916930e-01	3.157895e+00	-1.047585e-01
5.642168e-01	3.157895e+00	-1.343226e-01
6.348639e-01	3.157895e+00	-1.641238e-01
7.013280e-01	3.157895e+00	-1.931337e-01
7.630418e-01	3.157895e+00	-2.206893e-01
8.172084e-01	3.157895e+00	-2.454799e-01
8.641863e-01	3.157895e+00	-2.673591e-01
9.009752e-01	3.157895e+00	-2.848204e-01
9.288372e-01	3.157895e+00	-2.982085e-01
9.448555e-01	3.157895e+00	-3.059908e-01
9.510565e-01	3.157895e+00	-3.090170e-01
9.510565e-01	4.210526e+00	-3.090170e-01
9.442611e-01	4.210526e+00	-3.078203e-01
9.267277e-01	4.210526e+00	-3.047010e-01
8.963175e-01	4.210526e+00	-2.991555e-01
8.562911e-01	4.210526e+00	-2.916579e-01
8.054250e-01	4.210526e+00	-2.817457e-01
7.470317e-01	4.210526e+00	-2.699633e-01
6.809074e-01	4.210526e+00	-2.559818e-01
6.100852e-01	4.210526e+00	-2.403847e-01
5.354138e-01	4.210526e+00	-2.229691e-01
4.593635e-01	4.210526e+00	-2.042585e-01
3.837764e-01	4.210526e+00	-1.841224e-01
3.103069e-01	4.210526e+00	-1.630077e-01
2.415927e-01	4.210526e+00	-1.409228e-01
1.782654e-01	4.210526e+00	-1.183331e-01
1.234349e-01	4.210526e+00	-9.558566e-02
7.662509e-02	4.210526e+00	-7.318920e-02
4.106998e-02	4.210526e+00	-5.193053e-02
1.528206e-02	4.210526e+00	-3.215886e-02
2.347037e-03	4.210526e+00	-1.488740e-02
0.000000e+00	4.210526e+00	0.000000e+00
1.064939e-02	4.210526e+00	1.066461e-02
3.126595e-02	4.210526e+00	1.703450e-02
6.375031e-02	4.210526e+00	1.787236e-02
1.050105e-01	4.210526e+00	1.417221e-02
1.560448e-01	4.210526e+00	4.777214e-03
2.137742e-01	4.210526e+00	-9.048270e-03
2.782849e-01	4.210526e+00	-2.799567e-02
3.468570e-01	4.210526e+00	-5.051783e-02
4.187060e-01	4.210526e+00	-7.662000e-02
4.916930e-01	4.210526e+00	-1.047585e-01
5.642168e-01	4.210526e+00	-1.343226e-01
6.348639e-01	4.210526e+00	-1.641238e-01
7.013280e-01	4.210526e+00	-1.931337e-01
7.630418e-01	4.210526e+00	-2.206893e-01
8.172084e-01	4.210526e+00	-2.454799e-01
8.641863e-01	4.210526e+00	-2.673591e-01
9.009752e-01	4.210526e+00	-2.848204e-01
9.288372e-01	4.210526e+00	-2.982085e-01
9.448555e-01	4.210526e+00	-3.059908e-01
9.510565e-01	4.210526e+00	-3.090170e-01
9.510565e-01	5.263158e+00	-3.090170e-01
9.442611e-01	5.263158e+00	-3.078203e-01
9.267277e-01	5.263158e+00	-3.047010e-01
8.963175e-01	5.263158e+00	-2.991555e-01
8.562911e-01	5.263158e+00	-2.916579e-01
8.054250e-01	5.263158e+00	-2.817457e-01
7.470317e-01	5.263158e+00	-2.699633e-01
6.809074e-01	5.263158e+00	-2.559818e-01
6.100852e-01	5.263158e+00	-2.403847e-01
5.354138e-01	5.263158e+00	-2.229691e-01
4.593635e-01	5.263158e+00	-2.042585e-01
3.837764e-01	5.263158e+00	-1.841224e-01
3.103069e-01	5.263158e+00	-1.630077e-01
2.415927e-01	5.263158e+00	-1.409228e-01
1.782654e-01	5.263158e+00	-1.183331e-01
1.234349e-01	5.263158e+00	-9.558566e-02
7.662509e-02	5.263158e+00	-7.318920e-02
4.106998e-02	5.263158e+00	-5.193053e-02
1.528206e-02	5.263158e+00	-3.215886e-02
2.347037e-03	5.263158e+00	-1.488740e-02
0.000000e+00	5.263158e+00	0.000000e+00
1.064939e-02	5.263158e+00	1.066461e-02
3.126595e-02	5.263158e+00	1.703450e-02
6.375031e-02	5.263158e+00	1.787236e-02
1.050105e-01	5.263158e+00	1.417221e-02
1.560448e-01	5.263158e+00	4.777214e-03
2.137742e-01	5.263158e+00	-9.048270e-03
2.782849e-01	5.263158e+00	-2.799567e-02
3.468570e-01	5.263158e+00	-5.051783e-02
4.187060e-01	5.263158e+00	-7.662000e-02
4.916930e-01	5.263158e+00	-1.047585e-01
5.642168e-01	5.263158e+00	-1.343226e-01
6.348639e-01	5.263158e+00	-1.641238e-01
7.013280e-01	5.263158e+00	-1.931337e-01
7.630418e-01	5.263158e+00	-2.206893e-01
8.172084e-01	5.263158e+00	-2.454799e-01
8.641863e-01	5.263158e+00	-2.673591e-01
9.009752e-01	5.263158e+00	-2.848204e-01
9.288372e-01	5.263158e+00	-2.982085e-01
9.448555e-01	5.263158e+00	-3.059908e-01
9.510565e-01	5.263158e+00	-3.090170e-01
9.510565e-01	6.315789e+00	-3.090170e-01
9.442611e-01	6.315789e+00	-3.078203e-01
[...]
CELL_DATA 760
VECTORS V double
8.414226e-01	-6.903492e-02	-1.481714e-01
8.655434e-01	-6.886133e-02	-1.539855e-01
8.835580e-01	-6.841157e-02	-1.611252e-01
8.953234e-01	-6.761717e-02	-1.677078e-01
8.977878e-01	-6.645624e-02	-1.749508e-01
8.990996e-01	-6.491114e-02	-1.814171e-01
8.920611e-01	-6.297155e-02	-1.886197e-01
8.847500e-01	-6.061340e-02	-1.948477e-01
8.704150e-01	-5.780821e-02	-2.030071e-01
8.547742e-01	-5.452338e-02	-2.102991e-01
8.294683e-01	-5.073343e-02	-2.209676e-01
7.985454e-01	-4.642415e-02	-2.294970e-01
7.511949e-01	-4.162850e-02	-2.414352e-01
6.891687e-01	-3.639766e-02	-2.458359e-01
6.025157e-01	-3.076958e-02	-2.499647e-01
4.718355e-01	-2.486710e-02	-2.257528e-01
2.701207e-01	-1.869819e-02	-1.615072e-01
-1.745849e-02	-1.242892e-02	1.338547e-02
-4.218520e-01	-5.860731e-03	5.632769e-01
-3.427152e-01	7.202447e-04	2.173863e+00
2.327149e+00	8.433864e-03	2.330474e+00
2.541802e+00	1.519905e-02	7.853392e-01
2.210628e+00	2.214567e-02	5.701811e-02
1.925581e+00	2.899345e-02	-1.726829e-01
1.720225e+00	3.598338e-02	-3.166797e-01
1.570436e+00	4.295037e-02	-3.761000e-01
1.435578e+00	4.988878e-02	-4.216425e-01
1.336757e+00	5.662010e-02	-4.390511e-01
1.250655e+00	6.302617e-02	-4.543530e-01
1.181711e+00	6.890915e-02	-4.555822e-01
1.121879e+00	7.415353e-02	-4.573304e-01
1.071620e+00	7.862221e-02	-4.520438e-01
1.027479e+00	8.225296e-02	-4.484689e-01
9.872038e-01	8.503803e-02	-4.407931e-01
9.499818e-01	8.702879e-02	-4.347799e-01
9.115291e-01	8.832319e-02	-4.245308e-01
8.743616e-01	8.904951e-02	-4.150010e-01
8.341868e-01	8.935684e-02	-4.008420e-01
7.910582e-01	8.940081e-02	-3.843266e-01
7.483069e-01	8.935514e-02	-3.651809e-01
8.268569e-01	-4.834439e-02	-1.456065e-01
8.473447e-01	-4.822009e-02	-1.507478e-01
8.618071e-01	-4.790156e-02	-1.571587e-01
8.704931e-01	-4.733774e-02	-1.630567e-01
8.702442e-01	-4.650600e-02	-1.695835e-01
8.688598e-01	-4.538751e-02	-1.753154e-01
8.588605e-01	-4.397159e-02	-1.815997e-01
8.479907e-01	-4.224325e-02	-1.867522e-01
8.293199e-01	-4.018766e-02	-1.934225e-01
8.083311e-01	-3.778964e-02	-1.988727e-01
7.765424e-01	-3.501942e-02	-2.068683e-01
7.378815e-01	-3.192748e-02	-2.120626e-01
6.815757e-01	-2.849116e-02	-2.190595e-01
6.085218e-01	-2.476555e-02	-2.170680e-01
5.087192e-01	-2.077661e-02	-2.110515e-01
3.607146e-01	-1.660740e-02	-1.725863e-01
1.373019e-01	-1.225970e-02	-8.209380e-02
-1.815887e-01	-7.846935e-03	1.392246e-01
-6.032940e-01	-3.229240e-03	8.055470e-01
-4.198857e-01	1.390467e-03	2.663361e+00
2.682680e+00	6.790849e-03	2.686513e+00
2.844245e+00	1.150706e-02	8.787851e-01
2.433367e+00	1.632134e-02	6.276316e-02
2.097420e+00	2.103076e-02	-1.880932e-01
1.860551e+00	2.579405e-02	-3.425125e-01
1.689698e+00	3.049155e-02	-4.046619e-01
1.539105e+00	3.511746e-02	-4.520492e-01
1.427842e+00	3.955364e-02	-4.689677e-01
1.330746e+00	4.372826e-02	-4.834491e-01
1.251926e+00	4.753367e-02	-4.826521e-01
1.182687e+00	5.085952e-02	-4.821187e-01
1.123353e+00	5.367707e-02	-4.738666e-01
1.070405e+00	5.593656e-02	-4.672051e-01
1.021751e+00	5.764242e-02	-4.562188e-01
9.765979e-01	5.883589e-02	-4.469614e-01
9.307660e-01	5.958782e-02	-4.334901e-01
8.867530e-01	5.998659e-02	-4.208824e-01
8.402947e-01	6.013302e-02	-4.037769e-01
7.917014e-01	6.012939e-02	-3.846391e-01
7.448099e-01	6.008609e-02	-3.634743e-01
8.205608e-01	-2.041104e-02	-1.444978e-01
8.397190e-01	-2.035920e-02	-1.493912e-01
8.527015e-01	-2.022883e-02	-1.554982e-01
8.598596e-01	-1.999278e-02	-1.610649e-01
8.580683e-01	-1.963415e-02	-1.672107e-01
8.551010e-01	-1.913626e-02	-1.725392e-01
8.434768e-01	-1.848935e-02	-1.783469e-01
8.308723e-01	-1.768811e-02	-1.829822e-01
8.103117e-01	-1.670538e-02	-1.889892e-01
7.869192e-01	-1.558508e-02	-1.936048e-01
7.528494e-01	-1.431292e-02	-2.005566e-01
7.115518e-01	-1.290372e-02	-2.044956e-01
6.517272e-01	-1.134748e-02	-2.094662e-01
5.745665e-01	-9.680399e-03	-2.049557e-01
4.697745e-01	-7.912562e-03	-1.948946e-01
3.150185e-01	-6.076428e-03	-1.507227e-01
8.301264e-02	-4.168731e-03	-4.963388e-02
-2.483940e-01	-2.237393e-03	1.904444e-01
-6.768206e-01	-2.215562e-04	9.037232e-01
-4.509293e-01	1.786854e-03	2.860272e+00
2.823793e+00	4.116114e-03	2.827828e+00
2.961980e+00	6.124222e-03	9.151616e-01
2.517998e+00	8.137828e-03	6.494602e-02
2.160723e+00	1.006179e-02	-1.937701e-01
1.910377e+00	1.195235e-02	-3.516851e-01
1.730306e+00	1.375595e-02	-4.143870e-01
1.572802e+00	1.546800e-02	-4.619464e-01
1.456138e+00	1.704788e-02	-4.782613e-01
1.354663e+00	1.847806e-02	-4.921380e-01
1.271704e+00	1.974414e-02	-4.902771e-01
1.198801e+00	2.080942e-02	-4.886875e-01
1.136485e+00	2.166974e-02	-4.794059e-01
1.080554e+00	2.230676e-02	-4.716346e-01
1.029171e+00	2.277835e-02	-4.595319e-01
9.815355e-01	2.308042e-02	-4.492212e-01
9.334890e-01	2.324506e-02	-4.347583e-01
8.875243e-01	2.330752e-02	-4.212485e-01
8.394015e-01	2.330527e-02	-4.033477e-01
7.894761e-01	2.327481e-02	-3.835580e-01
7.416752e-01	2.324801e-02	-3.619446e-01
8.181569e-01	-1.021967e-02	-1.440744e-01
8.367419e-01	-1.019862e-02	-1.488615e-01
8.489690e-01	-1.014233e-02	-1.548176e-01
8.553546e-01	-1.003651e-02	-1.602210e-01
8.527751e-01	-9.871311e-03	-1.661793e-01
8.489688e-01	-9.623398e-03	-1.713019e-01
8.364762e-01	-9.310692e-03	-1.768667e-01
8.225774e-01	-8.913200e-03	-1.811555e-01
8.009449e-01	-8.439837e-03	-1.868046e-01
7.769213e-01	-7.875915e-03	-1.911450e-01
7.414960e-01	-7.236490e-03	-1.975321e-01
6.983624e-01	-6.498877e-03	-2.007051e-01
6.368003e-01	-5.693318e-03	-2.046686e-01
5.574830e-01	-4.817085e-03	-1.988618e-01
4.500671e-01	-3.882231e-03	-1.867186e-01
2.917704e-01	-2.906199e-03	-1.395995e-01
5.529475e-02	-1.892342e-03	-3.306114e-02
-2.825505e-01	-8.587914e-04	2.166323e-01
-7.144172e-01	2.209506e-04	9.539240e-01
-4.667642e-01	1.295650e-03	2.960714e+00
2.895367e+00	2.537829e-03	2.899505e+00
3.021231e+00	3.602611e-03	9.334683e-01
2.560209e+00	4.662277e-03	6.603475e-02
2.191950e+00	5.665703e-03	-1.965704e-01
1.934691e+00	6.645526e-03	-3.561611e-01
1.749911e+00	7.565755e-03	-4.190820e-01
1.588907e+00	8.430262e-03	-4.666765e-01
1.469548e+00	9.227393e-03	-4.826659e-01
1.365877e+00	9.936179e-03	-4.962120e-01
1.281344e+00	1.055533e-02	-4.939933e-01
1.206801e+00	1.109390e-02	-4.919484e-01
1.142498e+00	1.152530e-02	-4.819423e-01
1.085248e+00	1.186345e-02	-4.736836e-01
1.032973e+00	1.210166e-02	-4.612293e-01
9.842010e-01	1.226177e-02	-4.504411e-01
9.351557e-01	1.234277e-02	-4.355345e-01
8.883138e-01	1.238674e-02	-4.216231e-01
8.394627e-01	1.239695e-02	-4.033771e-01
7.889773e-01	1.239012e-02	-3.833156e-01
7.407058e-01	1.238145e-02	-3.614715e-01
8.170293e-01	-5.651889e-03	-1.438759e-01
8.351869e-01	-5.640768e-03	-1.485849e-01
8.470040e-01	-5.609263e-03	-1.544592e-01
8.529493e-01	-5.549885e-03	-1.597705e-01
8.496138e-01	-5.453694e-03	-1.655632e-01
8.453695e-01	-5.313399e-03	-1.705756e-01
8.324924e-01	-5.142042e-03	-1.760244e-01
8.184723e-01	-4.922343e-03	-1.802514e-01
7.963103e-01	-4.657419e-03	-1.857237e-01
7.711209e-01	-4.321623e-03	-1.897179e-01
7.348532e-01	-3.930674e-03	-1.957624e-01
6.909843e-01	-3.494387e-03	-1.985846e-01
6.283710e-01	-3.022863e-03	-2.019594e-01
5.476598e-01	-2.602511e-03	-1.953577e-01
4.386814e-01	-2.059197e-03	-1.819951e-01
2.783735e-01	-1.451611e-03	-1.331897e-01
3.929479e-02	-8.422006e-04	-2.349465e-02
-3.024444e-01	-2.226260e-04	2.318850e-01
-7.363181e-01	4.251587e-04	9.831671e-01
-4.759759e-01	1.069803e-03	3.019144e+00
2.936860e+00	1.813017e-03	2.941057e+00
3.055400e+00	2.447763e-03	9.440254e-01
2.584409e+00	3.076155e-03	6.665893e-02
2.209853e+00	3.666919e-03	-1.981760e-01
1.948484e+00	4.236524e-03	-3.587003e-01
1.760863e+00	4.759788e-03	-4.217050e-01
1.597940e+00	5.245515e-03	-4.693296e-01
1.476997e+00	5.789362e-03	-4.851124e-01
1.371963e+00	6.193690e-03	-4.984230e-01
1.286314e+00	6.532114e-03	-4.959095e-01
1.210948e+00	6.813045e-03	-4.936390e-01
1.146319e+00	7.042512e-03	-4.835542e-01
1.088276e+00	7.240023e-03	-4.750053e-01
1.034942e+00	7.382465e-03	-4.621087e-01
9.854721e-01	7.480606e-03	-4.510228e-01
9.358717e-01	7.529083e-03	-4.358680e-01
8.888576e-01	7.552423e-03	-4.218813e-01
8.396029e-01	7.558848e-03	-4.034445e-01
7.887821e-01	7.555005e-03	-3.832208e-01
7.403480e-01	7.550746e-03	-3.612969e-01
8.162906e-01	-3.263143e-03	-1.437458e-01
8.342279e-01	-3.270121e-03	-1.484143e-01
8.457743e-01	-3.250863e-03	-1.542350e-01
8.513794e-01	-3.214394e-03	-1.594764e-01
8.479413e-01	-3.152722e-03	-1.652373e-01
8.435646e-01	-3.100158e-03	-1.702114e-01
8.304267e-01	-2.983067e-03	-1.755876e-01
8.156756e-01	-2.839230e-03	-1.796355e-01
7.928316e-01	-2.655081e-03	-1.849123e-01
7.673795e-01	-2.422797e-03	-1.887974e-01
7.306840e-01	-2.183475e-03	-1.946518e-01
6.862618e-01	-1.957814e-03	-1.972274e-01
6.243748e-01	-1.643762e-03	-2.006751e-01
5.432322e-01	-1.425652e-03	-1.937783e-01
4.313816e-01	-1.061209e-03	-1.789666e-01
2.693240e-01	-6.835506e-04	-1.288598e-01
2.904838e-02	-2.878313e-04	-1.736824e-02
-3.149629e-01	1.071449e-04	2.414830e-01
-7.501099e-01	5.192530e-04	1.001583e+00
-4.817711e-01	9.285525e-04	3.055903e+00
2.962881e+00	1.399634e-03	2.967115e+00
3.076746e+00	1.800769e-03	9.506207e-01
2.599430e+00	2.196508e-03	6.704638e-02
2.220674e+00	2.566393e-03	-1.991463e-01
1.956588e+00	2.916286e-03	-3.601921e-01
1.767179e+00	3.242789e-03	-4.232176e-01
1.604556e+00	3.656371e-03	-4.712727e-01
1.482645e+00	3.906052e-03	-4.869673e-01
1.375549e+00	4.156394e-03	-4.997259e-01
1.289158e+00	4.375186e-03	-4.970061e-01
1.213192e+00	4.540224e-03	-4.945538e-01
1.147949e+00	4.645895e-03	-4.842419e-01
1.089801e+00	4.740454e-03	-4.756710e-01
1.036457e+00	4.815394e-03	-4.627848e-01
9.865964e-01	4.861419e-03	-4.515374e-01
9.365316e-01	4.922942e-03	-4.361753e-01
8.890415e-01	4.932034e-03	-4.219686e-01
8.396008e-01	4.933877e-03	-4.034435e-01
7.886061e-01	4.930540e-03	-3.831353e-01
7.400535e-01	4.941434e-03	-3.611531e-01
8.182002e-01	-2.031770e-03	-1.440821e-01
8.341231e-01	-2.027737e-03	-1.483956e-01
8.450443e-01	-2.017554e-03	-1.541019e-01
8.504353e-01	-1.998953e-03	-1.592996e-01
8.473353e-01	-1.968830e-03	-1.651192e-01
8.423734e-01	-2.012787e-03	-1.699711e-01
8.284600e-01	-1.890566e-03	-1.751717e-01
8.137969e-01	-1.785760e-03	-1.792217e-01
7.906863e-01	-1.686778e-03	-1.844119e-01
7.649308e-01	-1.545712e-03	-1.881950e-01
7.287727e-01	-1.389952e-03	-1.941426e-01
6.838083e-01	-1.220355e-03	-1.965223e-01
6.209279e-01	-1.022255e-03	-1.995672e-01
5.390968e-01	-7.441165e-04	-1.923032e-01
4.266034e-01	-5.082644e-04	-1.769842e-01
2.641368e-01	-3.003149e-04	-1.263780e-01
2.239050e-02	-5.624454e-05	-1.338745e-02
-3.230888e-01	1.666573e-04	2.477131e-01
-7.590073e-01	4.282739e-04	1.013463e+00
-4.854969e-01	6.875127e-04	3.079536e+00
2.979583e+00	9.848518e-04	2.983841e+00
3.090410e+00	1.236123e-03	9.548424e-01
2.609028e+00	1.508444e-03	6.729393e-02
2.227651e+00	1.737897e-03	-1.997721e-01
1.962046e+00	1.958404e-03	-3.611969e-01
1.773656e+00	2.172179e-03	-4.247687e-01
1.607873e+00	2.398705e-03	-4.722472e-01
1.483937e+00	2.471155e-03	-4.873917e-01
1.378075e+00	2.615054e-03	-5.006434e-01
1.291156e+00	2.750769e-03	-4.977761e-01
1.214340e+00	2.863070e-03	-4.950217e-01
1.148875e+00	2.953064e-03	-4.846322e-01
1.090543e+00	3.051255e-03	-4.759947e-01
1.036699e+00	3.116435e-03	-4.628928e-01
9.871743e-01	3.236964e-03	-4.518019e-01
9.372721e-01	3.228413e-03	-4.365202e-01
8.891280e-01	3.222439e-03	-4.220096e-01
8.395874e-01	3.219475e-03	-4.034371e-01
7.889174e-01	3.216224e-03	-3.832865e-01
7.420164e-01	3.213934e-03	-3.621111e-01
8.156137e-01	-1.153362e-03	-1.436266e-01
8.334003e-01	-1.136470e-03	-1.482671e-01
8.447650e-01	-1.128019e-03	-1.540509e-01
8.501344e-01	-1.137038e-03	-1.592432e-01
8.483569e-01	-1.116832e-03	-1.653183e-01
8.420272e-01	-1.065291e-03	-1.699012e-01
8.269485e-01	-1.023850e-03	-1.748521e-01
8.127844e-01	-9.949882e-04	-1.789988e-01
7.895860e-01	-1.001596e-03	-1.841553e-01
7.634828e-01	-9.209471e-04	-1.878387e-01
7.264312e-01	-8.173159e-04	-1.935188e-01
6.813645e-01	-6.616325e-04	-1.958200e-01
6.177876e-01	-5.809831e-04	-1.985579e-01
5.355536e-01	-3.457112e-04	-1.910393e-01
4.241209e-01	-2.548312e-04	-1.759544e-01
2.610446e-01	-1.258738e-04	-1.248985e-01
1.901346e-02	1.227643e-05	-1.136829e-02
-3.272392e-01	1.552237e-04	2.508953e-01
-7.645005e-01	3.056136e-04	1.020798e+00
-4.877921e-01	4.554711e-04	3.094095e+00
2.989735e+00	6.279496e-04	2.994008e+00
3.099971e+00	7.744833e-04	9.577965e-01
2.615431e+00	9.185325e-04	6.745908e-02
2.231810e+00	1.053040e-03	-2.001450e-01
1.965310e+00	1.181451e-03	-3.617978e-01
1.774747e+00	1.301918e-03	-4.250300e-01
1.608975e+00	1.329201e-03	-4.725706e-01
1.485679e+00	1.440240e-03	-4.879639e-01
1.379195e+00	1.547461e-03	-5.010504e-01
1.292288e+00	1.608022e-03	-4.982125e-01
1.215726e+00	1.676311e-03	-4.955865e-01
1.150347e+00	1.821960e-03	-4.852532e-01
1.091992e+00	1.842695e-03	-4.766273e-01
1.039083e+00	1.884551e-03	-4.639576e-01
9.885221e-01	1.896442e-03	-4.524187e-01
9.362576e-01	1.881645e-03	-4.360477e-01
8.888290e-01	1.884644e-03	-4.218677e-01
8.394133e-01	1.906358e-03	-4.033534e-01
7.883332e-01	1.903162e-03	-3.830027e-01
7.397028e-01	1.887559e-03	-3.609820e-01
8.153654e-01	-1.386603e-03	-1.435829e-01
8.329713e-01	-1.386658e-03	-1.481907e-01
8.451736e-01	-1.387306e-03	-1.541254e-01
8.500655e-01	-1.369373e-03	-1.592303e-01
8.458355e-01	-1.327591e-03	-1.648270e-01
8.407831e-01	-1.249685e-03	-1.696502e-01
8.273883e-01	-1.152470e-03	-1.749451e-01
8.134967e-01	-1.214772e-03	-1.791556e-01
7.896661e-01	-9.942484e-04	-1.841740e-01
7.625107e-01	-1.042222e-03	-1.875996e-01
7.253864e-01	-6.840147e-04	-1.932405e-01
6.806356e-01	-7.702520e-04	-1.956105e-01
6.166033e-01	-3.330801e-04	-1.981773e-01
5.341398e-01	-3.950043e-04	-1.905349e-01
4.230613e-01	6.609434e-05	-1.755148e-01
2.592246e-01	4.075980e-04	-1.240277e-01
1.639349e-02	6.050132e-04	-9.801787e-03
-3.305870e-01	6.548334e-04	2.534620e-01
-7.672980e-01	7.033146e-04	1.024533e+00
-4.889828e-01	7.650340e-04	3.101648e+00
2.995206e+00	8.471507e-04	2.999486e+00
3.103172e+00	9.272084e-04	9.587855e-01
2.617985e+00	9.948147e-04	6.752495e-02
2.234156e+00	1.108072e-03	-2.003554e-01
1.967037e+00	1.044346e-03	-3.621157e-01
1.776088e+00	8.632470e-04	-4.253511e-01
1.610031e+00	4.846007e-04	-4.728810e-01
1.486964e+00	6.476346e-04	-4.883859e-01
1.380251e+00	3.322466e-04	-5.014342e-01
1.292783e+00	4.635864e-04	-4.984034e-01
1.217013e+00	1.702506e-04	-4.961113e-01
1.151026e+00	3.221479e-04	-4.855398e-01
1.091368e+00	6.398561e-05	-4.763550e-01
1.037491e+00	1.204318e-04	-4.632466e-01
9.871561e-01	-9.691148e-05	-4.517935e-01
9.370226e-01	-3.898839e-05	-4.364040e-01
8.896370e-01	-5.345111e-05	-4.222512e-01
8.402952e-01	-5.950768e-05	-4.037772e-01
7.882305e-01	-5.447994e-05	-3.829528e-01
7.396268e-01	-5.341270e-05	-3.609449e-01
8.156230e-01	-2.071981e-04	-1.436282e-01
8.334461e-01	-2.353065e-04	-1.482752e-01
8.440734e-01	-1.808284e-04	-1.539248e-01
8.485778e-01	-1.279658e-04	-1.589516e-01
8.458848e-01	-1.052827e-04	-1.648366e-01
8.389885e-01	-8.499191e-05	-1.692881e-01
8.265305e-01	-6.797377e-05	-1.747637e-01
8.104116e-01	-5.121518e-05	-1.784762e-01
7.873298e-01	4.935422e-06	-1.836291e-01
7.593848e-01	4.818397e-06	-1.868305e-01
7.228403e-01	6.445642e-06	-1.925623e-01
6.768228e-01	-1.815399e-05	-1.945147e-01
6.123474e-01	-3.755429e-05	-1.968095e-01
5.299902e-01	-2.702214e-05	-1.890547e-01
4.109175e-01	1.104079e-05	-1.704767e-01
2.508688e-01	-1.563526e-05	-1.200299e-01
1.336163e-02	-6.869095e-06	-7.989015e-03
-3.297678e-01	6.763256e-07	2.528339e-01
-7.674676e-01	6.807189e-06	1.024759e+00
-4.893278e-01	1.181212e-05	3.103836e+00
2.997774e+00	1.693835e-05	3.002058e+00
3.106355e+00	2.109744e-05	9.597691e-01
2.621516e+00	2.511631e-05	6.761602e-02
2.232528e+00	2.852288e-05	-2.002094e-01
1.960178e+00	6.718099e-05	-3.608530e-01
1.764925e+00	7.036261e-05	-4.226779e-01
1.606103e+00	4.465545e-05	-4.717273e-01
1.483352e+00	1.062073e-04	-4.871997e-01
1.376910e+00	1.040238e-04	-5.002204e-01
1.290210e+00	1.042142e-04	-4.974116e-01
1.213928e+00	1.093676e-04	-4.948537e-01
1.149091e+00	8.076691e-05	-4.847237e-01
1.089172e+00	1.016978e-04	-4.753965e-01
1.036965e+00	1.208737e-04	-4.630116e-01
9.856839e-01	1.449286e-04	-4.511198e-01
9.371883e-01	1.706260e-04	-4.364812e-01
8.883367e-01	2.005837e-04	-4.216341e-01
8.393178e-01	2.118293e-04	-4.033075e-01
7.886776e-01	2.903565e-04	-3.831700e-01
7.398662e-01	2.798068e-04	-3.610618e-01
8.200827e-01	1.464514e-03	-1.444136e-01
8.302490e-01	1.464874e-03	-1.477064e-01
8.416187e-01	1.466565e-03	-1.534772e-01
8.482869e-01	1.451215e-03	-1.588972e-01
8.449764e-01	1.413076e-03	-1.646596e-01
8.401441e-01	1.426941e-03	-1.695212e-01
8.268691e-01	1.289022e-03	-1.748353e-01
8.124439e-01	1.351668e-03	-1.789237e-01
7.889255e-01	1.110469e-03	-1.840013e-01
7.624908e-01	1.135389e-03	-1.875947e-01
7.256847e-01	7.863302e-04	-1.933200e-01
6.812240e-01	7.992584e-04	-1.957796e-01
6.167399e-01	3.680411e-04	-1.982212e-01
5.334365e-01	4.583239e-04	-1.902841e-01
4.228077e-01	-3.692793e-05	-1.754096e-01
2.596126e-01	-3.779953e-04	-1.242134e-01
1.604176e-02	-5.757915e-04	-9.591491e-03
-3.309439e-01	-6.015051e-04	2.537356e-01
-7.676118e-01	-6.531801e-04	1.024952e+00
-4.890935e-01	-7.473962e-04	3.102350e+00
2.995659e+00	-8.347243e-04	2.999940e+00
3.103530e+00	-8.905380e-04	9.588963e-01
2.618222e+00	-9.883906e-04	6.753106e-02
2.235301e+00	-1.104264e-03	-2.004581e-01
1.967815e+00	-1.044220e-03	-3.622590e-01
1.775669e+00	-8.343423e-04	-4.252509e-01
1.610639e+00	-4.911146e-04	-4.730594e-01
1.487759e+00	-6.609308e-04	-4.886473e-01
1.380226e+00	-3.565891e-04	-5.014250e-01
1.292851e+00	-4.213769e-04	-4.984296e-01
1.216721e+00	-1.431048e-04	-4.959925e-01
1.150916e+00	-2.447832e-04	-4.854935e-01
1.091904e+00	-2.943030e-05	-4.765886e-01
1.038108e+00	-1.269805e-04	-4.635221e-01
9.879494e-01	-1.564020e-05	-4.521566e-01
9.380481e-01	-4.780674e-05	-4.368816e-01
8.906308e-01	-2.112333e-05	-4.227229e-01
8.426372e-01	-1.197101e-05	-4.049025e-01
7.927551e-01	-1.623194e-05	-3.851510e-01
7.380111e-01	-1.722089e-05	-3.601565e-01
8.155626e-01	1.523135e-03	-1.436176e-01
8.333192e-01	1.548399e-03	-1.482526e-01
8.446349e-01	1.485259e-03	-1.540272e-01
8.499766e-01	1.448417e-03	-1.592137e-01
8.462760e-01	1.312382e-03	-1.649128e-01
8.412983e-01	1.267056e-03	-1.697541e-01
8.275385e-01	1.208135e-03	-1.749769e-01
8.130825e-01	1.133225e-03	-1.790644e-01
7.901759e-01	1.087324e-03	-1.842929e-01
7.636632e-01	9.896230e-04	-1.878831e-01
7.272636e-01	8.839695e-04	-1.937406e-01
6.822841e-01	7.982158e-04	-1.960843e-01
6.173204e-01	7.036263e-04	-1.984078e-01
5.355949e-01	5.415429e-04	-1.910540e-01
4.247067e-01	3.947752e-04	-1.761974e-01
2.610422e-01	2.762917e-04	-1.248974e-01
1.856714e-02	1.167042e-04	-1.110143e-02
-3.278885e-01	-4.445823e-05	2.513931e-01
-7.636808e-01	-2.112421e-04	1.019703e+00
-4.873267e-01	-3.760794e-04	3.091143e+00
2.990938e+00	-5.653075e-04	2.995212e+00
3.099216e+00	-7.262193e-04	9.575633e-01
2.614512e+00	-8.847739e-04	6.743537e-02
2.231650e+00	-1.032844e-03	-2.001307e-01
1.965872e+00	-1.209524e-03	-3.619013e-01
1.774562e+00	-1.340248e-03	-4.249857e-01
1.608356e+00	-1.462785e-03	-4.723889e-01
1.485430e+00	-1.608393e-03	-4.878820e-01
1.379939e+00	-1.709459e-03	-5.013208e-01
1.292931e+00	-1.792029e-03	-4.984607e-01
1.216161e+00	-1.865411e-03	-4.957643e-01
1.150464e+00	-1.964998e-03	-4.853026e-01
1.090873e+00	-2.013842e-03	-4.761389e-01
1.037017e+00	-2.050056e-03	-4.630351e-01
9.871007e-01	-2.091576e-03	-4.517682e-01
9.369856e-01	-2.135477e-03	-4.363868e-01
8.892047e-01	-2.080748e-03	-4.220460e-01
8.395444e-01	-2.124280e-03	-4.034164e-01
7.883831e-01	-2.201178e-03	-3.830270e-01
7.397148e-01	-2.189564e-03	-3.609879e-01
8.158428e-01	2.166927e-03	-1.436669e-01
8.336551e-01	2.162453e-03	-1.483124e-01
8.447731e-01	2.155483e-03	-1.540524e-01
8.528885e-01	2.055627e-03	-1.597591e-01
8.484522e-01	2.022326e-03	-1.653369e-01
8.419555e-01	1.984106e-03	-1.698867e-01
8.289390e-01	1.902631e-03	-1.752730e-01
8.141464e-01	1.805260e-03	-1.792987e-01
7.908739e-01	1.677892e-03	-1.844557e-01
7.651602e-01	1.559571e-03	-1.882514e-01
7.281888e-01	1.391107e-03	-1.939871e-01
6.836274e-01	1.286934e-03	-1.964703e-01
6.202793e-01	1.063438e-03	-1.993588e-01
5.380432e-01	8.520641e-04	-1.919273e-01