# vtk DataFile Version 2.0
OUTPUT by 3D-VPM
ASCII
DATASET UNSTRUCTURED_GRID
POINTS 820 double
9.510565e-01	0.000000e+00	-3.090170e-01
9.442611e-01	0.000000e+00	-3.078203e-01
9.267277e-01	0.000000e+00	-3.047010e-01
8.963175e-01	0.000000e+00	-2.991555e-01
8.562911e-01	0.000000e+00	-2.916579e-01
8.054250e-01	0.000000e+00	-2.817457e-01
7.470317e-01	0.000000e+00	-2.699633e-01
6.809074e-01	0.000000e+00	-2.559818e-01
6.100852e-01	0.000000e+00	-2.403847e-01
5.354138e-01	0.000000e+00	-2.229691e-01
4.593635e-01	0.000000e+00	-2.042585e-01
3.837764e-01	0.000000e+00	-1.841224e-01
3.103069e-01	0.000000e+00	-1.630077e-01
2.415927e-01	0.000000e+00	-1.409228e-01
1.782654e-01	0.000000e+00	-1.183331e-01
1.234349e-01	0.000000e+00	-9.558566e-02
7.662509e-02	0.000000e+00	-7.318920e-02
4.106998e-02	0.000000e+00	-5.193053e-02
1.528206e-02	0.000000e+00	-3.215886e-02
2.347037e-03	0.000000e+00	-1.488740e-02
0.000000e+00	0.000000e+00	0.000000e+00
1.064939e-02	0.000000e+00	1.066461e-02
3.126595e-02	0.000000e+00	1.703450e-02
6.375031e-02	0.000000e+00	1.787236e-02
1.050105e-01	0.000000e+00	1.417221e-02
1.560448e-01	0.000000e+00	4.777214e-03
2.137742e-01	0.000000e+00	-9.048270e-03
2.782849e-01	0.000000e+00	-2.799567e-02
3.468570e-01	0.000000e+00	-5.051783e-02
4.187060e-01	0.000000e+00	-7.662000e-02
4.916930e-01	0.000000e+00	-1.047585e-01
5.642168e-01	0.000000e+00	-1.343226e-01
6.348639e-01	0.000000e+00	-1.641238e-01
7.013280e-01	0.000000e+00	-1.931337e-01
7.630418e-01	0.000000e+00	-2.206893e-01
8.172084e-01	0.000000e+00	-2.454799e-01
8.641863e-01	0.000000e+00	-2.673591e-01
9.009752e-01	0.000000e+00	-2.848204e-01
9.288372e-01	0.000000e+00	-2.982085e-01
9.448555e-01	0.000000e+00	-3.059908e-01
9.510565e-01	0.000000e+00	-3.090170e-01
9.510565e-01	1.052632e+00	-3.090170e-01
9.442611e-01	1.052632e+00	-3.078203e-01
9.267277e-01	1.052632e+00	-3.047010e-01
8.963175e-01	1.052632e+00	-2.991555e-01
8.562911e-01	1.052632e+00	-2.916579e-01
8.054250e-01	1.052632e+00	-2.817457e-01
7.470317e-01	1.052632e+00	-2.699633e-01
6.809074e-01	1.052632e+00	-2.559818e-01
6.100852e-01	1.052632e+00	-2.403847e-01
5.354138e-01	1.052632e+00	-2.229691e-01
4.593635e-01	1.052632e+00	-2.042585e-01
3.837764e-01	1.052632e+00	-1.841224e-01
3.103069e-01	1.052632e+00	-1.630077e-01
2.415927e-01	1.052632e+00	-1.409228e-01
1.782654e-01	1.052632e+00	-1.183331e-01
1.234349e-01	1.052632e+00	-9.558566e-02
7.662509e-02	1.052632e+00	-7.318920e-02
4.106998e-02	1.052632e+00	-5.193053e-02
1.528206e-02	1.052632e+00	-3.215886e-02
2.347037e-03	1.052632e+00	-1.488740e-02
0.000000e+00	1.052632e+00	0.000000e+00
1.064939e-02	1.052632e+00	1.066461e-02
3.126595e-02	1.052632e+00	1.703450e-02
6.375031e-02	1.052632e+00	1.787236e-02
1.050105e-01	1.052632e+00	1.417221e-02
1.560448e-01	1.052632e+00	4.777214e-03
2.137742e-01	1.052632e+00	-9.048270e-03
2.782849e-01	1.052632e+00	-2.799567e-02
3.468570e-01	1.052632e+00	-5.051783e-02
4.187060e-01	1.052632e+00	-7.662000e-02
4.916930e-01	1.052632e+00	-1.047585e-01
5.642168e-01	1.052632e+00	-1.343226e-01
6.348639e-01	1.052632e+00	-1.641238e-01
7.013280e-01	1.052632e+00	-1.931337e-01
7.630418e-01	1.052632e+00	-2.206893e-01
8.172084e-01	1.052632e+00	-2.454799e-01
8.641863e-01	1.052632e+00	-2.673591e-01
9.009752e-01	1.052632e+00	-2.848204e-01
9.288372e-01	1.052632e+00	-2.982085e-01
9.448555e-01	1.052632e+00	-3.059908e-01
9.510565e-01	1.052632e+00	-3.090170e-01
9.510565e-01	2.105263e+00	-3.090170e-01
9.442611e-01	2.105263e+00	-3.078203e-01
9.267277e-01	2.105263e+00	-3.047010e-01
8.963175e-01	2.105263e+00	-2.991555e-01
8.562911e-01	2.105263e+00	-2.916579e-01
8.054250e-01	2.105263e+00	-2.817457e-01
7.470317e-01	2.105263e+00	-2.699633e-01
6.809074e-01	2.105263e+00	-2.559818e-01
6.100852e-01	2.105263e+00	-2.403847e-01
5.354138e-01	2.105263e+00	-2.229691e-01
4.593635e-01	2.105263e+00	-2.042585e-01
3.837764e-01	2.105263e+00	-1.841224e-01
3.103069e-01	2.105263e+00	-1.630077e-01
2.415927e-01	2.105263e+00	-1.409228e-01
1.782654e-01	2.105263e+00	-1.183331e-01
1.234349e-01	2.105263e+00	-9.558566e-02
7.662509e-02	2.105263e+00	-7.318920e-02
4.106998e-02	2.105263e+00	-5.193053e-02
1.528206e-02	2.105263e+00	-3.215886e-02
2.347037e-03	2.105263e+00	-1.488740e-02
0.000000e+00	2.105263e+00	0.000000e+00
1.064939e-02	2.105263e+00	1.066461e-02
3.126595e-02	2.105263e+00	1.703450e-02
6.375031e-02	2.105263e+00	1.787236e-02
1.050105e-01	2.105263e+00	1.417221e-02
1.560448e-01	2.105263e+00	4.777214e-03
2.137742e-01	2.105263e+00	-9.048270e-03
2.782849e-01	2.105263e+00	-2.799567e-02
3.468570e-01	2.105263e+00	-5.051783e-02
4.187060e-01	2.105263e+00	-7.662000e-02
4.916930e-01	2.105263e+00	-1.047585e-01
5.642168e-01	2.105263e+00	-1.343226e-01
6.348639e-01	2.105263e+00	-1.641238e-01
7.013280e-01	2.105263e+00	-1.931337e-01
7.630418e-01	2.105263e+00	-2.206893e-01
8.172084e-01	2.105263e+00	-2.454799e-01
8.641863e-01	2.105263e+00	-2.673591e-01
9.009752e-01	2.105263e+00	-2.848204e-01
9.288372e-01	2.105263e+00	-2.982085e-01
9.448555e-01	2.105263e+00	-3.059908e-01
9.510565e-01	2.105263e+00	-3.090170e-01
9.510565e-01	3.157895e+00	-3.090170e-01
9.442611e-01	3.157895e+00	-3.078203e-01
9.267277e-01	3.157895e+00	-3.047010e-01
8.963175e-01	3.157895e+00	-2.991555e-01
8.562911e-01	3.157895e+00	-2.916579e-01
8.054250e-01	3.157895e+00	-2.817457e-01
7.470317e-01	3.157895e+00	-2.699633e-01
6.809074e-01	3.157895e+00	-2.559818e-01
6.100852e-01	3.157895e+00	-2.403847e-01
5.354138e-01	3.157895e+00	-2.229691e-01
4.593635e-01	3.157895e+00	-2.042585e-01
3.837764e-01	3.157895e+00	-1.841224e-01
3.103069e-01	3.157895e+00	-1.630077e-01
2.415927e-01	3.157895e+00	-1.409228e-01
1.782654e-01	3.157895e+00	-1.183331e-01
1.234349e-01	3.157895e+00	-9.558566e-02
7.662509e-02	3.157895e+00	-7.318920e-02
4.106998e-02	3.157895e+00	-5.193053e-02
1.528206e-02	3.157895e+00	-3.215886e-02
2.347037e-03	3.157895e+00	-1.488740e-02
0.000000e+00	3.157895e+00	0.000000e+00
1.064939e-02	3.157895e+00	1.066461e-02
3.126595e-02	3.157895e+00	1.703450e-02
6.375031e-02	3.157895e+00	1.787236e-02
1.050105e-01	3.157895e+00	1.417221e-02
1.560448e-01	3.157895e+00	4.777214e-03
2.137742e-01	3.157895e+00	-9.048270e-03
2.782849e-01	3.157895e+00	-2.799567e-02
3.468570e-01	3.157895e+00	-5.051783e-02
4.187060e-01	3.157895e+00	-7.662000e-02
4.916930e-01	3.157895e+00	-1.047585e-01
5.642168e-01	3.157895e+00	-1.343226e-01
6.348639e-01	3.157895e+00	-1.641238e-01
7.013280e-01	3.157895e+00	-1.931337e-01
7.630418e-01	3.157895e+00	-2.206893e-01
8.172084e-01	3.157895e+00	-2.454799e-01
8.641863e-01	3.157895e+00	-2.673591e-01
9.009752e-01	3.157895e+00	-2.848204e-01
9.288372e-01	3.157895e+00	-2.982085e-01
9.448555e-01	3.157895e+00	-3.059908e-01
9.510565e-01	3.157895e+00	-3.090170e-01
9.510565e-01	4.210526e+00	-3.090170e-01
9.442611e-01	4.210526e+00	-3.078203e-01
9.267277e-01	4.210526e+00	-3.047010e-01
8.963175e-01	4.210526e+00	-2.991555e-01
8.562911e-01	4.210526e+00	-2.916579e-01
8.054250e-01	4.210526e+00	-2.817457e-01
7.470317e-01	4.210526e+00	-2.699633e-01
6.809074e-01	4.210526e+00	-2.559818e-01
6.100852e-01	4.210526e+00	-2.403847e-01
5.354138e-01	4.210526e+00	-2.229691e-01
4.593635e-01	4.210526e+00	-2.042585e-01
3.837764e-01	4.210526e+00	-1.841224e-01
3.103069e-01	4.210526e+00	-1.630077e-01
2.415927e-01	4.210526e+00	-1.409228e-01
1.782654e-01	4.210526e+00	-1.183331e-01
1.234349e-01	4.210526e+00	-9.558566e-02
7.662509e-02	4.210526e+00	-7.318920e-02
4.106998e-02	4.210526e+00	-5.193053e-02
1.528206e-02	4.210526e+00	-3.215886e-02
2.347037e-03	4.210526e+00	-1.488740e-02
0.000000e+00	4.210526e+00	0.000000e+00
1.064939e-02	4.210526e+00	1.066461e-02
3.126595e-02	4.210526e+00	1.703450e-02
6.375031e-02	4.210526e+00	1.787236e-02
1.050105e-01	4.210526e+00	1.417221e-02
1.560448e-01	4.210526e+00	4.777214e-03
2.137742e-01	4.210526e+00	-9.048270e-03
2.782849e-01	4.210526e+00	-2.799567e-02
3.468570e-01	4.210526e+00	-5.051783e-02
4.187060e-01	4.210526e+00	-7.662000e-02
4.916930e-01	4.210526e+00	-1.047585e-01
5.642168e-01	4.210526e+00	-1.343226e-01
6.348639e-01	4.210526e+00	-1.641238e-01
7.013280e-01	4.210526e+00	-1.931337e-01
7.630418e-01	4.210526e+00	-2.206893e-01
8.172084e-01	4.210526e+00	-2.454799e-01
8.641863e-01	4.210526e+00	-2.673591e-01
9.009752e-01	4.210526e+00	-2.848204e-01
9.288372e-01	4.210526e+00	-2.982085e-01
9.448555e-01	4.210526e+00	-3.059908e-01
9.510565e-01	4.210526e+00	-3.090170e-01
9.510565e-01	5.263158e+00	-3.090170e-01
9.442611e-01	5.263158e+00	-3.078203e-01
9.267277e-01	5.263158e+00	-3.047010e-01
8.963175e-01	5.263158e+00	-2.991555e-01
8.562911e-01	5.263158e+00	-2.916579e-01
8.054250e-01	5.263158e+00	-2.817457e-01
7.470317e-01	5.263158e+00	-2.699633e-01
6.809074e-01	5.263158e+00	-2.559818e-01
6.100852e-01	5.263158e+00	-2.403847e-01
5.354138e-01	5.263158e+00	-2.229691e-01
4.593635e-01	5.263158e+00	-2.042585e-01
3.837764e-01	5.263158e+00	-1.841224e-01
3.103069e-01	5.263158e+00	-1.630077e-01
2.415927e-01	5.263158e+00	-1.409228e-01
1.782654e-01	5.263158e+00	-1.183331e-01
1.234349e-01	5.263158e+00	-9.558566e-02
7.662509e-02	5.263158e+00	-7.318920e-02
4.106998e-02	5.263158e+00	-5.193053e-02
1.528206e-02	5.263158e+00	-3.215886e-02
2.347037e-03	5.263158e+00	-1.488740e-02
0.000000e+00	5.263158e+00	0.000000e+00
1.064939e-02	5.263158e+00	1.066461e-02
3.126595e-02	5.263158e+00	1.703450e-02
6.375031e-02	5.263158e+00	1.787236e-02
1.050105e-01	5.263158e+00	1.417221e-02
1.560448e-01	5.263158e+00	4.777214e-03
2.137742e-01	5.263158e+00	-9.048270e-03
2.782849e-01	5.263158e+00	-2.799567e-02
3.468570e-01	5.263158e+00	-5.051783e-02
4.187060e-01	5.263158e+00	-7.662000e-02
4.916930e-01	5.263158e+00	-1.047585e-01
5.642168e-01	5.263158e+00	-1.343226e-01
6.348639e-01	5.263158e+00	-1.641238e-01
7.013280e-01	5.263158e+00	-1.931337e-01
7.630418e-01	5.263158e+00	-2.206893e-01
8.172084e-01	5.263158e+00	-2.454799e-01
8.641863e-01	5.263158e+00	-2.673591e-01
9.009752e-01	5.263158e+00	-2.848204e-01
9.288372e-01	5.263158e+00	-2.982085e-01
9.448555e-01	5.263158e+00	-3.059908e-01
9.510565e-01	5.263158e+00	-3.090170e-01
9.510565e-01	6.315789e+00	-3.090170e-01
9.442611e-01	6.315789e+00	-3.078203e-01
[...]
CELL_DATA 760
VECTORS V double
8.414341e-01	-6.902060e-02	-1.481735e-01
8.655578e-01	-6.884704e-02	-1.539881e-01
8.835762e-01	-6.839736e-02	-1.611285e-01
8.953462e-01	-6.760310e-02	-1.677121e-01
8.978156e-01	-6.644238e-02	-1.749563e-01
8.991329e-01	-6.489758e-02	-1.814238e-01
8.920999e-01	-6.295840e-02	-1.886279e-01
8.847944e-01	-6.060081e-02	-1.948575e-01
8.704660e-01	-5.779637e-02	-2.030190e-01
8.547746e-01	-5.451248e-02	-2.102991e-01
8.295385e-01	-5.073248e-02	-2.209863e-01
7.986895e-01	-4.641523e-02	-2.295384e-01
7.512900e-01	-4.162072e-02	-2.414658e-01
6.892789e-01	-3.639123e-02	-2.458752e-01
6.026447e-01	-3.076472e-02	-2.500182e-01
4.719904e-01	-2.486394e-02	-2.258269e-01
2.703085e-01	-1.869683e-02	-1.616195e-01
-1.722369e-02	-1.242937e-02	1.320545e-02
-4.215912e-01	-5.863017e-03	5.629287e-01
-3.426054e-01	7.161853e-04	2.173167e+00
2.326658e+00	8.427813e-03	2.329983e+00
2.541405e+00	1.519133e-02	7.852166e-01
2.210353e+00	2.213633e-02	5.701102e-02
1.925385e+00	2.898259e-02	-1.726653e-01
1.720079e+00	3.597107e-02	-3.166528e-01
1.570323e+00	4.293670e-02	-3.760730e-01
1.435489e+00	4.987384e-02	-4.216163e-01
1.336684e+00	5.660407e-02	-4.390273e-01
1.250598e+00	6.300936e-02	-4.543321e-01
1.181675e+00	6.889146e-02	-4.555682e-01
1.121861e+00	7.413372e-02	-4.573231e-01
1.071609e+00	7.860016e-02	-4.520390e-01
1.027470e+00	8.222920e-02	-4.484651e-01
9.871980e-01	8.501296e-02	-4.407905e-01
9.499790e-01	8.700274e-02	-4.347787e-01
9.115290e-01	8.829642e-02	-4.245308e-01
8.743638e-01	8.902229e-02	-4.150020e-01
8.341910e-01	8.932936e-02	-4.008440e-01
7.910638e-01	8.937321e-02	-3.843293e-01
7.483134e-01	8.932752e-02	-3.651841e-01
8.268703e-01	-4.833627e-02	-1.456088e-01
8.473620e-01	-4.821199e-02	-1.507509e-01
8.618291e-01	-4.789353e-02	-1.571627e-01
8.705203e-01	-4.732983e-02	-1.630618e-01
8.702773e-01	-4.649826e-02	-1.695899e-01
8.688993e-01	-4.538001e-02	-1.753234e-01
8.589068e-01	-4.396440e-02	-1.816095e-01
8.480445e-01	-4.223646e-02	-1.867640e-01
8.293823e-01	-4.018138e-02	-1.934370e-01
8.084032e-01	-3.778399e-02	-1.988905e-01
7.766264e-01	-3.501902e-02	-2.068907e-01
7.379788e-01	-3.192323e-02	-2.120906e-01
6.816880e-01	-2.848769e-02	-2.190956e-01
6.086537e-01	-2.476300e-02	-2.171151e-01
5.088748e-01	-2.077509e-02	-2.111161e-01
3.609017e-01	-1.660699e-02	-1.726758e-01
1.375282e-01	-1.226047e-02	-8.222913e-02
-1.813071e-01	-7.848888e-03	1.390087e-01
-6.029832e-01	-3.232404e-03	8.051320e-01
-4.197555e-01	1.386124e-03	2.662535e+00
2.682100e+00	6.785173e-03	2.685933e+00
2.843776e+00	1.150026e-02	8.786402e-01
2.433042e+00	1.631344e-02	6.275477e-02
2.097187e+00	2.102183e-02	-1.880723e-01
1.860376e+00	2.578413e-02	-3.424804e-01
1.689563e+00	3.048071e-02	-4.046295e-01
1.538998e+00	3.510576e-02	-4.520179e-01
1.427757e+00	3.954121e-02	-4.689396e-01
1.330677e+00	4.371527e-02	-4.834243e-01
1.251871e+00	4.752010e-02	-4.826308e-01
1.182642e+00	5.084481e-02	-4.821002e-01
1.123317e+00	5.366116e-02	-4.738512e-01
1.070376e+00	5.591976e-02	-4.671924e-01
1.021729e+00	5.762496e-02	-4.562088e-01
9.765814e-01	5.881795e-02	-4.469538e-01
9.307549e-01	5.956955e-02	-4.334849e-01
8.867468e-01	5.996812e-02	-4.208794e-01
8.402928e-01	6.011445e-02	-4.037760e-01
7.917032e-01	6.011079e-02	-3.846400e-01
7.448144e-01	6.006749e-02	-3.634765e-01
8.205767e-01	-2.041112e-02	-1.445006e-01
8.397390e-01	-2.035994e-02	-1.493947e-01
8.527264e-01	-2.022898e-02	-1.555028e-01
8.598899e-01	-1.999307e-02	-1.610706e-01
8.581044e-01	-1.963459e-02	-1.672178e-01
8.551437e-01	-1.913691e-02	-1.725478e-01
8.435266e-01	-1.849028e-02	-1.783574e-01
8.309298e-01	-1.768939e-02	-1.829949e-01
8.103781e-01	-1.670711e-02	-1.890047e-01
7.869969e-01	-1.559306e-02	-1.936239e-01
7.529387e-01	-1.431504e-02	-2.005804e-01
7.116538e-01	-1.290584e-02	-2.045249e-01
6.518457e-01	-1.134971e-02	-2.095043e-01
5.747055e-01	-9.682811e-03	-2.050053e-01
4.699385e-01	-7.915214e-03	-1.949626e-01
3.152155e-01	-6.079369e-03	-1.508170e-01
8.325087e-02	-4.171999e-03	-4.977632e-02
-2.480978e-01	-2.241008e-03	1.902173e-01
-6.764937e-01	-2.255443e-04	9.032867e-01
-4.507922e-01	1.782489e-03	2.859403e+00
2.823182e+00	4.111312e-03	2.827217e+00
2.961486e+00	6.119049e-03	9.150088e-01
2.517655e+00	8.132292e-03	6.493716e-02
2.160477e+00	1.005592e-02	-1.937481e-01
1.910192e+00	1.194619e-02	-3.516511e-01
1.730163e+00	1.374955e-02	-4.143527e-01
1.572689e+00	1.546142e-02	-4.619132e-01
1.456047e+00	1.704122e-02	-4.782316e-01
1.354590e+00	1.847151e-02	-4.921117e-01
1.271646e+00	1.973793e-02	-4.902547e-01
1.198754e+00	2.080366e-02	-4.886682e-01
1.136447e+00	2.166339e-02	-4.793898e-01
1.080524e+00	2.229985e-02	-4.716217e-01
1.029149e+00	2.277115e-02	-4.595219e-01
9.815196e-01	2.307308e-02	-4.492139e-01
9.334789e-01	2.323767e-02	-4.347536e-01
8.875196e-01	2.330011e-02	-4.212462e-01
8.394013e-01	2.329791e-02	-4.033476e-01
7.894799e-01	2.326679e-02	-3.835598e-01
7.416817e-01	2.324064e-02	-3.619477e-01
8.182804e-01	-1.022161e-02	-1.440962e-01
8.367419e-01	-1.020057e-02	-1.488616e-01
8.489806e-01	-1.014427e-02	-1.548197e-01
8.553891e-01	-1.003845e-02	-1.602275e-01
8.528155e-01	-9.873241e-03	-1.661871e-01
8.490167e-01	-9.625350e-03	-1.713115e-01
8.365322e-01	-9.312621e-03	-1.768786e-01
8.226427e-01	-8.915093e-03	-1.811698e-01
8.010990e-01	-8.441674e-03	-1.868405e-01
7.769977e-01	-7.877605e-03	-1.911638e-01
7.415030e-01	-7.237868e-03	-1.975339e-01
6.984612e-01	-6.499841e-03	-2.007335e-01
6.369166e-01	-5.694007e-03	-2.047060e-01
5.576211e-01	-4.818237e-03	-1.989110e-01
4.502313e-01	-3.883963e-03	-1.867867e-01
2.919688e-01	-2.908304e-03	-1.396944e-01
5.553545e-02	-1.894585e-03	-3.320506e-02
-2.822506e-01	-8.609124e-04	2.164023e-01
-7.140858e-01	2.194920e-04	9.534815e-01
-4.666252e-01	1.280440e-03	2.959832e+00
2.894748e+00	2.522324e-03	2.898885e+00
3.020730e+00	3.600227e-03	9.333134e-01
2.559861e+00	4.658618e-03	6.602579e-02
2.191701e+00	5.661301e-03	-1.965482e-01
1.934506e+00	6.640566e-03	-3.561270e-01
1.749768e+00	7.560382e-03	-4.190479e-01
1.588796e+00	8.424557e-03	-4.666441e-01
1.469463e+00	9.214170e-03	-4.826379e-01
1.365814e+00	9.930148e-03	-4.961894e-01
1.281298e+00	1.054930e-02	-4.939758e-01
1.206754e+00	1.108793e-02	-4.919293e-01
1.142447e+00	1.151940e-02	-4.819207e-01
1.085207e+00	1.185761e-02	-4.736659e-01
1.032944e+00	1.209586e-02	-4.612165e-01
9.841814e-01	1.225600e-02	-4.504321e-01
9.351433e-01	1.233705e-02	-4.355287e-01
8.883080e-01	1.238104e-02	-4.216204e-01
8.394461e-01	1.239124e-02	-4.033692e-01
7.889592e-01	1.238442e-02	-3.833068e-01
7.408110e-01	1.237575e-02	-3.615228e-01
8.170449e-01	-5.656762e-03	-1.438786e-01
8.352067e-01	-5.645007e-03	-1.485884e-01
8.470287e-01	-5.614138e-03	-1.544637e-01
8.529793e-01	-5.554697e-03	-1.597761e-01
8.496503e-01	-5.458439e-03	-1.655703e-01
8.454121e-01	-5.318026e-03	-1.705842e-01
8.325413e-01	-5.146462e-03	-1.760347e-01
8.185286e-01	-4.926431e-03	-1.802638e-01
7.963740e-01	-4.661152e-03	-1.857385e-01
7.711925e-01	-4.319202e-03	-1.897356e-01
7.349330e-01	-3.934219e-03	-1.957837e-01
6.910772e-01	-3.498010e-03	-1.986113e-01
6.284918e-01	-3.026475e-03	-2.019983e-01
5.478143e-01	-2.606064e-03	-1.954128e-01
4.388611e-01	-2.062695e-03	-1.820696e-01
2.785804e-01	-1.455186e-03	-1.332886e-01
3.953400e-02	-8.457234e-04	-2.363767e-02
-3.021661e-01	-2.260961e-04	2.316716e-01
-7.357113e-01	4.217443e-04	9.823569e-01
-4.756592e-01	1.066446e-03	3.017135e+00
2.937003e+00	1.809730e-03	2.941200e+00
3.055297e+00	2.444543e-03	9.439936e-01
2.584003e+00	3.073007e-03	6.664846e-02
2.209576e+00	3.663847e-03	-1.981511e-01
1.948280e+00	4.233524e-03	-3.586627e-01
1.760707e+00	4.756947e-03	-4.216676e-01
1.597702e+00	5.242736e-03	-4.692599e-01
1.476909e+00	5.786530e-03	-4.850834e-01
1.371982e+00	6.190694e-03	-4.984301e-01
1.286257e+00	6.528771e-03	-4.958874e-01
1.210902e+00	6.809337e-03	-4.936204e-01
1.146283e+00	7.039494e-03	-4.835388e-01
1.088248e+00	7.237682e-03	-4.749930e-01
1.034921e+00	7.380449e-03	-4.620992e-01
9.854574e-01	7.478784e-03	-4.510161e-01
9.358628e-01	7.527381e-03	-4.358638e-01
8.888531e-01	7.550773e-03	-4.218791e-01
8.396029e-01	7.557192e-03	-4.034445e-01
7.887859e-01	7.554030e-03	-3.832226e-01
7.403544e-01	7.549128e-03	-3.613000e-01
8.163077e-01	-3.306169e-03	-1.437488e-01
8.342493e-01	-3.299375e-03	-1.484181e-01
8.458004e-01	-3.281407e-03	-1.542398e-01
8.514106e-01	-3.247095e-03	-1.594823e-01
8.479780e-01	-3.214485e-03	-1.652445e-01
8.436069e-01	-3.127814e-03	-1.702199e-01
8.304743e-01	-3.005355e-03	-1.755976e-01
8.157311e-01	-2.857512e-03	-1.796477e-01
7.928965e-01	-2.670370e-03	-1.849274e-01
7.674542e-01	-2.435976e-03	-1.888158e-01
7.307705e-01	-2.195024e-03	-1.946748e-01
6.863615e-01	-1.968177e-03	-1.972561e-01
6.244902e-01	-1.653289e-03	-2.007121e-01
5.433686e-01	-1.433787e-03	-1.938270e-01
4.315461e-01	-1.068099e-03	-1.790348e-01
2.695230e-01	-6.895528e-04	-1.289551e-01
2.928684e-02	-2.932800e-04	-1.751082e-02
-3.146657e-01	1.019091e-04	2.412551e-01
-7.497815e-01	5.136518e-04	1.001144e+00
-4.816334e-01	9.369741e-04	3.055030e+00
2.962268e+00	1.408667e-03	2.966502e+00
3.076251e+00	1.796980e-03	9.504677e-01
2.599088e+00	2.194350e-03	6.703754e-02
2.220429e+00	2.565398e-03	-1.991244e-01
1.956407e+00	2.916381e-03	-3.601589e-01
1.767040e+00	3.243976e-03	-4.231844e-01
1.604445e+00	3.658701e-03	-4.712403e-01
1.482557e+00	3.917026e-03	-4.869384e-01
1.375480e+00	4.161559e-03	-4.997008e-01
1.289104e+00	4.382034e-03	-4.969852e-01
1.213149e+00	4.549257e-03	-4.945363e-01
1.147916e+00	4.657864e-03	-4.842277e-01
1.089774e+00	4.755993e-03	-4.756592e-01
1.036435e+00	4.835759e-03	-4.627753e-01
9.865819e-01	4.889549e-03	-4.515307e-01
9.365224e-01	4.962794e-03	-4.361711e-01
8.890370e-01	4.965522e-03	-4.219664e-01
8.396007e-01	4.963986e-03	-4.034434e-01
7.886100e-01	4.960249e-03	-3.831372e-01
7.400603e-01	4.957002e-03	-3.611565e-01
8.159048e-01	-2.030174e-03	-1.436778e-01
8.337575e-01	-2.026126e-03	-1.483306e-01
8.451889e-01	-2.015897e-03	-1.541282e-01
8.513247e-01	-1.997223e-03	-1.594662e-01
8.471532e-01	-1.967006e-03	-1.650837e-01
8.417687e-01	-2.010827e-03	-1.698490e-01
8.283657e-01	-1.888513e-03	-1.751518e-01
8.137543e-01	-1.783521e-03	-1.792123e-01
7.906814e-01	-1.684237e-03	-1.844108e-01
7.649534e-01	-1.542825e-03	-1.882006e-01
7.288157e-01	-1.386466e-03	-1.941541e-01
6.838741e-01	-1.215793e-03	-1.965412e-01
6.210180e-01	-1.015986e-03	-1.995962e-01
5.392119e-01	-7.366072e-04	-1.923442e-01
4.267479e-01	-5.017844e-04	-1.770442e-01
2.643165e-01	-2.949449e-04	-1.264640e-01
2.261247e-02	-5.128126e-05	-1.352016e-02
-3.228090e-01	1.709839e-04	2.474986e-01
-7.586962e-01	4.305632e-04	1.013047e+00
-4.853662e-01	6.872613e-04	3.078707e+00
2.979003e+00	9.820969e-04	2.983260e+00
3.089945e+00	1.232083e-03	9.546987e-01
2.608710e+00	1.472567e-03	6.728573e-02
2.227429e+00	1.730498e-03	-1.997522e-01
1.961885e+00	1.950081e-03	-3.611674e-01
1.773538e+00	2.163202e-03	-4.247406e-01
1.607790e+00	2.360846e-03	-4.722226e-01
1.483881e+00	2.461734e-03	-4.873734e-01
1.378042e+00	2.606023e-03	-5.006317e-01
1.291147e+00	2.742159e-03	-4.977728e-01
1.214358e+00	2.854824e-03	-4.950292e-01
1.148921e+00	2.945095e-03	-4.846518e-01
1.090626e+00	3.043410e-03	-4.760311e-01
1.036856e+00	3.108709e-03	-4.629631e-01
9.874669e-01	3.229354e-03	-4.519358e-01
9.373936e-01	3.220904e-03	-4.365768e-01
8.888926e-01	3.215003e-03	-4.218979e-01
8.394552e-01	3.212080e-03	-4.033735e-01
7.884530e-01	3.208841e-03	-3.830609e-01
7.398572e-01	3.206552e-03	-3.610574e-01
8.156283e-01	-1.104351e-03	-1.436292e-01
8.334181e-01	-1.101310e-03	-1.482702e-01
8.447871e-01	-1.091775e-03	-1.540550e-01
8.501614e-01	-1.098921e-03	-1.592483e-01
8.483888e-01	-1.050195e-03	-1.653245e-01
8.420656e-01	-1.033453e-03	-1.699089e-01
8.269918e-01	-9.983207e-04	-1.748613e-01
8.128329e-01	-9.745082e-04	-1.790094e-01
7.896421e-01	-9.856311e-04	-1.841684e-01
7.635451e-01	-9.088075e-04	-1.878541e-01
7.264958e-01	-8.085732e-04	-1.935361e-01
6.814272e-01	-6.878432e-04	-1.958380e-01
6.178618e-01	-5.763931e-04	-1.985818e-01
5.356853e-01	-3.423198e-04	-1.910862e-01
4.243201e-01	-2.522507e-04	-1.760370e-01
2.612727e-01	-1.242219e-04	-1.250077e-01
1.927365e-02	1.296927e-05	-1.152386e-02
-3.268792e-01	1.549430e-04	2.506192e-01
-7.640486e-01	3.043168e-04	1.020194e+00
-4.875991e-01	4.531638e-04	3.092871e+00
2.988945e+00	6.244739e-04	2.993216e+00
3.097743e+00	7.700051e-04	9.571083e-01
2.615293e+00	9.130599e-04	6.745552e-02
2.232164e+00	1.046646e-03	-2.001768e-01
1.965098e+00	1.174223e-03	-3.617588e-01
1.774070e+00	1.294056e-03	-4.248679e-01
1.608900e+00	1.321088e-03	-4.725486e-01
1.485978e+00	1.432690e-03	-4.880622e-01
1.379136e+00	1.539723e-03	-5.010291e-01
1.292243e+00	1.596208e-03	-4.981954e-01
1.215691e+00	1.659261e-03	-4.955723e-01
1.150318e+00	1.800182e-03	-4.852411e-01
1.091968e+00	1.816336e-03	-4.766169e-01
1.039066e+00	1.852541e-03	-4.639497e-01
9.885110e-01	1.856233e-03	-4.524137e-01
9.362517e-01	1.829427e-03	-4.360450e-01
8.888272e-01	1.838678e-03	-4.218668e-01
8.394151e-01	1.863673e-03	-4.033542e-01
7.883379e-01	1.860914e-03	-3.830050e-01
7.397098e-01	1.859486e-03	-3.609854e-01
8.153944e-01	-1.372188e-03	-1.435880e-01
8.330078e-01	-1.372371e-03	-1.481972e-01
8.452151e-01	-1.373521e-03	-1.541330e-01
8.501167e-01	-1.356912e-03	-1.592399e-01
8.458971e-01	-1.317518e-03	-1.648390e-01
8.408541e-01	-1.272714e-03	-1.696645e-01
8.274677e-01	-1.140733e-03	-1.749619e-01
8.135897e-01	-1.200314e-03	-1.791761e-01
7.897734e-01	-9.784220e-04	-1.841990e-01
7.626281e-01	-1.025907e-03	-1.876285e-01
7.259283e-01	-6.678496e-04	-1.933849e-01
6.807744e-01	-7.545999e-04	-1.956504e-01
6.162675e-01	-3.177573e-04	-1.980694e-01
5.342851e-01	-3.797893e-04	-1.905868e-01
4.232341e-01	7.996524e-05	-1.755864e-01
2.594390e-01	4.170299e-04	-1.241303e-01
1.665673e-02	6.089502e-04	-9.959183e-03
-3.302563e-01	6.544533e-04	2.532085e-01
-7.669310e-01	7.004948e-04	1.024043e+00
-4.888286e-01	7.606314e-04	3.100669e+00
2.994519e+00	8.406177e-04	2.998799e+00
3.102619e+00	9.179539e-04	9.586146e-01
2.617605e+00	1.013282e-03	6.751516e-02
2.233890e+00	1.094024e-03	-2.003316e-01
1.966847e+00	1.027317e-03	-3.620809e-01
1.775955e+00	8.083790e-04	-4.253194e-01
1.609953e+00	4.597989e-04	-4.728580e-01
1.486913e+00	6.233804e-04	-4.883693e-01
1.380162e+00	3.067906e-04	-5.014019e-01
1.292657e+00	4.373433e-04	-4.983549e-01
1.216906e+00	1.438675e-04	-4.960679e-01
1.150954e+00	2.966014e-04	-4.855093e-01
1.091316e+00	4.081981e-05	-4.763320e-01
1.037451e+00	1.027481e-04	-4.632289e-01
9.871297e-01	-1.060477e-04	-4.517815e-01
9.370060e-01	-5.409391e-05	-4.363963e-01
8.896277e-01	-7.234686e-05	-4.222468e-01
8.402926e-01	-7.944935e-05	-4.037759e-01
7.882377e-01	-7.470450e-05	-3.829563e-01
7.396386e-01	-7.367795e-05	-3.609507e-01
8.156590e-01	3.835643e-05	-1.436346e-01
8.335022e-01	2.076929e-05	-1.482852e-01
8.441614e-01	1.918469e-05	-1.539408e-01
8.487003e-01	4.054011e-05	-1.589746e-01
8.466869e-01	3.818889e-05	-1.649929e-01
8.389209e-01	3.707126e-05	-1.692744e-01
8.260211e-01	3.558420e-05	-1.746561e-01
8.104026e-01	3.628647e-05	-1.784742e-01
7.873611e-01	7.919846e-05	-1.836364e-01
7.594427e-01	6.773289e-05	-1.868448e-01
7.229136e-01	5.968125e-05	-1.925818e-01
6.768968e-01	5.876892e-05	-1.945360e-01
6.124278e-01	-1.180612e-06	-1.968353e-01
5.301426e-01	1.984730e-06	-1.891091e-01
4.112077e-01	3.327241e-05	-1.705970e-01
2.512785e-01	8.003157e-07	-1.202259e-01
1.383449e-02	4.105801e-06	-8.271743e-03
-3.292266e-01	6.606401e-06	2.524190e-01
-7.668998e-01	7.772630e-06	1.024001e+00
-4.890952e-01	7.963776e-06	3.102361e+00
2.996738e+00	7.474351e-06	3.001020e+00
3.105502e+00	6.598891e-06	9.595054e-01
2.620910e+00	5.209843e-06	6.760039e-02
2.232087e+00	2.901914e-06	-2.001699e-01
1.959083e+00	3.496706e-05	-3.606515e-01
1.764191e+00	3.079550e-05	-4.225019e-01
1.606471e+00	-3.628456e-06	-4.718352e-01
1.483642e+00	4.712094e-05	-4.872949e-01
1.376826e+00	3.319314e-05	-5.001898e-01
1.290154e+00	2.376028e-05	-4.973900e-01
1.213901e+00	1.802775e-05	-4.948430e-01
1.149103e+00	-2.493073e-05	-4.847288e-01
1.089252e+00	-2.138039e-05	-4.754313e-01
1.037146e+00	-2.219816e-05	-4.630926e-01
9.857294e-01	-2.113263e-05	-4.511406e-01
9.369975e-01	-2.116135e-05	-4.363923e-01
8.882167e-01	-2.002851e-05	-4.215771e-01
8.392747e-01	-4.238169e-05	-4.032868e-01
7.886635e-01	-4.126284e-05	-3.831632e-01
7.398670e-01	-2.377332e-05	-3.610621e-01
8.183459e-01	1.462289e-03	-1.441077e-01
8.337187e-01	1.462676e-03	-1.483237e-01
8.444134e-01	1.464593e-03	-1.539868e-01
8.497202e-01	1.450105e-03	-1.591656e-01
8.459645e-01	1.413762e-03	-1.648521e-01
8.408994e-01	1.460081e-03	-1.696736e-01
8.274781e-01	1.287128e-03	-1.749641e-01
8.129515e-01	1.348536e-03	-1.790356e-01
7.893636e-01	1.080747e-03	-1.841035e-01
7.628840e-01	1.127319e-03	-1.876914e-01
7.260461e-01	7.735566e-04	-1.934163e-01
6.815705e-01	7.833800e-04	-1.958792e-01
6.170853e-01	3.487732e-04	-1.983322e-01
5.337927e-01	4.361333e-04	-1.904111e-01
4.231864e-01	-5.821622e-05	-1.755666e-01
2.600353e-01	-3.950615e-04	-1.244156e-01
1.653062e-02	-5.882222e-04	-9.883778e-03
-3.303559e-01	-6.097743e-04	2.532849e-01
-7.669739e-01	-6.861615e-04	1.024100e+00
-4.888266e-01	-7.473352e-04	3.100657e+00
2.994448e+00	-8.306950e-04	2.998727e+00
3.102514e+00	-8.830908e-04	9.585824e-01
2.617481e+00	-9.786252e-04	6.751195e-02
2.234728e+00	-1.092789e-03	-2.004067e-01
1.967344e+00	-1.031096e-03	-3.621723e-01
1.775260e+00	-7.850484e-04	-4.251528e-01
1.610263e+00	-4.451385e-04	-4.729491e-01
1.487395e+00	-6.460677e-04	-4.885277e-01
1.379859e+00	-3.431016e-04	-5.012916e-01
1.292466e+00	-4.095946e-04	-4.982811e-01
1.216299e+00	-1.324800e-04	-4.958204e-01
1.150440e+00	-2.726438e-04	-4.852926e-01
1.091354e+00	-2.713728e-05	-4.763487e-01
1.037453e+00	-1.334421e-04	-4.632299e-01
9.871474e-01	-3.226105e-05	-4.517896e-01
9.370245e-01	-5.958021e-05	-4.364049e-01
8.892121e-01	-2.987660e-05	-4.220495e-01
8.395105e-01	-2.012057e-05	-4.034001e-01
7.888553e-01	-2.426796e-05	-3.832563e-01
7.423170e-01	-2.523781e-05	-3.622578e-01
8.155940e-01	1.195899e-03	-1.436231e-01
8.333591e-01	1.210604e-03	-1.482597e-01
8.446826e-01	1.203415e-03	-1.540359e-01
8.500302e-01	1.197784e-03	-1.592237e-01
8.463330e-01	1.086509e-03	-1.649239e-01
8.413520e-01	1.062334e-03	-1.697650e-01
8.275618e-01	9.891352e-04	-1.749818e-01
8.134800e-01	9.711310e-04	-1.791519e-01
7.902613e-01	9.460284e-04	-1.843128e-01
7.635004e-01	8.672267e-04	-1.878431e-01
7.274391e-01	7.785805e-04	-1.937873e-01
6.824447e-01	7.081380e-04	-1.961304e-01
6.174887e-01	6.277796e-04	-1.984619e-01
5.357801e-01	4.788508e-04	-1.911201e-01
4.249168e-01	3.443849e-04	-1.762846e-01
2.612892e-01	2.373831e-04	-1.250156e-01
1.885077e-02	8.904383e-05	-1.127102e-02
-3.269388e-01	-6.129150e-05	2.506649e-01
-7.630168e-01	-2.171261e-04	1.018816e+00
-4.875553e-01	-3.712048e-04	3.092593e+00
2.990263e+00	-5.478988e-04	2.994537e+00
3.098605e+00	-6.977515e-04	9.573745e-01
2.614033e+00	-8.447663e-04	6.742303e-02
2.231292e+00	-9.811519e-04	-2.000986e-01
1.965599e+00	-1.145262e-03	-3.618511e-01
1.774347e+00	-1.262883e-03	-4.249342e-01
1.608181e+00	-1.371278e-03	-4.723375e-01
1.485281e+00	-1.501721e-03	-4.878334e-01
1.379815e+00	-1.586026e-03	-5.012755e-01
1.292839e+00	-1.650282e-03	-4.984252e-01
1.215641e+00	-1.703336e-03	-4.955522e-01
1.150353e+00	-1.779895e-03	-4.852558e-01
1.091254e+00	-1.801714e-03	-4.763052e-01
1.036928e+00	-1.807796e-03	-4.629953e-01
9.870454e-01	-1.829785e-03	-4.517429e-01
9.369440e-01	-1.851262e-03	-4.363674e-01
8.891743e-01	-1.768993e-03	-4.220316e-01
8.395259e-01	-1.779462e-03	-4.034075e-01
7.883766e-01	-1.779233e-03	-3.830238e-01
7.397185e-01	-1.795729e-03	-3.609897e-01
8.158780e-01	1.711188e-03	-1.436731e-01
8.337005e-01	1.700260e-03	-1.483205e-01
8.448293e-01	1.576576e-03	-1.540627e-01
8.529539e-01	1.669151e-03	-1.597714e-01
8.485244e-01	1.696306e-03	-1.653509e-01
8.426327e-01	1.705033e-03	-1.700234e-01
8.288395e-01	1.662498e-03	-1.752520e-01
8.135668e-01	1.596562e-03	-1.791711e-01
7.907776e-01	1.523006e-03	-1.844333e-01
7.650823e-01	1.407341e-03	-1.882323e-01
7.281275e-01	1.265517e-03	-1.939707e-01
6.835795e-01	1.184273e-03	-1.964565e-01
6.202433e-01	9.805235e-04	-1.993472e-01
5.380200e-01	7.844963e-04	-1.919191e-01