# vtk DataFile Version 2.0
OUTPUT by 3D-VPM
ASCII
DATASET UNSTRUCTURED_GRID
POINTS 820 double
1.000000e+00	0.000000e+00	1.439406e-03
9.931674e-01	0.000000e+00	4.775805e-04
9.755282e-01	0.000000e+00	-1.973904e-03
9.448927e-01	0.000000e+00	-6.097004e-03
9.045085e-01	0.000000e+00	-1.133523e-02
8.530688e-01	0.000000e+00	-1.762665e-02
7.938926e-01	0.000000e+00	-2.446545e-02
7.266841e-01	0.000000e+00	-3.160179e-02
6.545085e-01	0.000000e+00	-3.865332e-02
5.781101e-01	0.000000e+00	-4.516481e-02
5.000000e-01	0.000000e+00	-5.087084e-02
4.218900e-01	0.000000e+00	-5.507792e-02
3.454915e-01	0.000000e+00	-5.769999e-02
2.733159e-01	0.000000e+00	-5.792990e-02
2.061074e-01	0.000000e+00	-5.601502e-02
1.469312e-01	0.000000e+00	-5.132448e-02
9.549150e-02	0.000000e+00	-4.448920e-02
5.510729e-02	0.000000e+00	-3.525814e-02
2.447174e-02	0.000000e+00	-2.442307e-02
6.832625e-03	0.000000e+00	-1.199408e-02
0.000000e+00	0.000000e+00	1.439406e-03
6.832625e-03	0.000000e+00	1.487289e-02
2.447174e-02	0.000000e+00	2.730189e-02
5.510728e-02	0.000000e+00	3.813696e-02
9.549150e-02	0.000000e+00	4.736802e-02
1.469312e-01	0.000000e+00	5.420329e-02
2.061074e-01	0.000000e+00	5.889385e-02
2.733159e-01	0.000000e+00	6.080872e-02
3.454915e-01	0.000000e+00	6.057881e-02
4.218900e-01	0.000000e+00	5.795674e-02
5.000000e-01	0.000000e+00	5.374966e-02
5.781101e-01	0.000000e+00	4.804362e-02
6.545085e-01	0.000000e+00	4.153214e-02
7.266841e-01	0.000000e+00	3.448061e-02
7.938926e-01	0.000000e+00	2.734427e-02
8.530688e-01	0.000000e+00	2.050547e-02
9.045085e-01	0.000000e+00	1.421405e-02
9.448927e-01	0.000000e+00	8.975816e-03
9.755282e-01	0.000000e+00	4.852716e-03
9.931674e-01	0.000000e+00	2.401231e-03
1.000000e+00	0.000000e+00	1.439406e-03
1.000000e+00	1.052632e+00	1.439406e-03
9.931674e-01	1.052632e+00	4.775805e-04
9.755282e-01	1.052632e+00	-1.973904e-03
9.448927e-01	1.052632e+00	-6.097004e-03
9.045085e-01	1.052632e+00	-1.133523e-02
8.530689e-01	1.052632e+00	-1.762665e-02
7.938926e-01	1.052632e+00	-2.446545e-02
7.266841e-01	1.052632e+00	-3.160179e-02
6.545085e-01	1.052632e+00	-3.865332e-02
5.781101e-01	1.052632e+00	-4.516481e-02
5.000000e-01	1.052632e+00	-5.087084e-02
4.218900e-01	1.052632e+00	-5.507792e-02
3.454915e-01	1.052632e+00	-5.769999e-02
2.733158e-01	1.052632e+00	-5.792990e-02
2.061074e-01	1.052632e+00	-5.601502e-02
1.469311e-01	1.052632e+00	-5.132448e-02
9.549150e-02	1.052632e+00	-4.448920e-02
5.510729e-02	1.052632e+00	-3.525814e-02
2.447174e-02	1.052632e+00	-2.442307e-02
6.832625e-03	1.052632e+00	-1.199408e-02
0.000000e+00	1.052632e+00	1.439406e-03
6.832625e-03	1.052632e+00	1.487289e-02
2.447174e-02	1.052632e+00	2.730189e-02
5.510728e-02	1.052632e+00	3.813696e-02
9.549150e-02	1.052632e+00	4.736802e-02
1.469311e-01	1.052632e+00	5.420329e-02
2.061074e-01	1.052632e+00	5.889385e-02
2.733158e-01	1.052632e+00	6.080872e-02
3.454915e-01	1.052632e+00	6.057881e-02
4.218900e-01	1.052632e+00	5.795674e-02
5.000000e-01	1.052632e+00	5.374966e-02
5.781101e-01	1.052632e+00	4.804362e-02
6.545085e-01	1.052632e+00	4.153214e-02
7.266841e-01	1.052632e+00	3.448061e-02
7.938926e-01	1.052632e+00	2.734427e-02
8.530689e-01	1.052632e+00	2.050547e-02
9.045085e-01	1.052632e+00	1.421405e-02
9.448927e-01	1.052632e+00	8.975816e-03
9.755282e-01	1.052632e+00	4.852716e-03
9.931674e-01	1.052632e+00	2.401231e-03
1.000000e+00	1.052632e+00	1.439406e-03
1.000000e+00	2.105263e+00	1.439406e-03
9.931674e-01	2.105263e+00	4.775805e-04
9.755282e-01	2.105263e+00	-1.973904e-03
9.448927e-01	2.105263e+00	-6.097004e-03
9.045085e-01	2.105263e+00	-1.133523e-02
8.530689e-01	2.105263e+00	-1.762665e-02
7.938926e-01	2.105263e+00	-2.446545e-02
7.266841e-01	2.105263e+00	-3.160179e-02
6.545085e-01	2.105263e+00	-3.865332e-02
5.781101e-01	2.105263e+00	-4.516481e-02
5.000000e-01	2.105263e+00	-5.087084e-02
4.218900e-01	2.105263e+00	-5.507792e-02
3.454915e-01	2.105263e+00	-5.769999e-02
2.733158e-01	2.105263e+00	-5.792990e-02
2.061074e-01	2.105263e+00	-5.601502e-02
1.469312e-01	2.105263e+00	-5.132448e-02
9.549150e-02	2.105263e+00	-4.448920e-02
5.510729e-02	2.105263e+00	-3.525814e-02
2.447174e-02	2.105263e+00	-2.442307e-02
6.832625e-03	2.105263e+00	-1.199408e-02
0.000000e+00	2.105263e+00	1.439406e-03
6.832625e-03	2.105263e+00	1.487289e-02
2.447174e-02	2.105263e+00	2.730189e-02
5.510728e-02	2.105263e+00	3.813696e-02
9.549150e-02	2.105263e+00	4.736802e-02
1.469312e-01	2.105263e+00	5.420329e-02
2.061074e-01	2.105263e+00	5.889385e-02
2.733158e-01	2.105263e+00	6.080872e-02
3.454915e-01	2.105263e+00	6.057881e-02
4.218900e-01	2.105263e+00	5.795674e-02
5.000000e-01	2.105263e+00	5.374966e-02
5.781101e-01	2.105263e+00	4.804362e-02
6.545085e-01	2.105263e+00	4.153214e-02
7.266841e-01	2.105263e+00	3.448061e-02
7.938926e-01	2.105263e+00	2.734427e-02
8.530689e-01	2.105263e+00	2.050547e-02
9.045085e-01	2.105263e+00	1.421405e-02
9.448927e-01	2.105263e+00	8.975816e-03
9.755282e-01	2.105263e+00	4.852716e-03
9.931674e-01	2.105263e+00	2.401231e-03
1.000000e+00	2.105263e+00	1.439406e-03
1.000000e+00	3.157895e+00	1.439406e-03
9.931674e-01	3.157895e+00	4.775805e-04
9.755282e-01	3.157895e+00	-1.973904e-03
9.448927e-01	3.157895e+00	-6.097004e-03
9.045085e-01	3.157895e+00	-1.133523e-02
8.530689e-01	3.157895e+00	-1.762665e-02
7.938926e-01	3.157895e+00	-2.446545e-02
7.266842e-01	3.157895e+00	-3.160179e-02
6.545085e-01	3.157895e+00	-3.865332e-02
5.781101e-01	3.157895e+00	-4.516481e-02
5.000000e-01	3.157895e+00	-5.087084e-02
4.218900e-01	3.157895e+00	-5.507792e-02
3.454915e-01	3.157895e+00	-5.769999e-02
2.733158e-01	3.157895e+00	-5.792990e-02
2.061074e-01	3.157895e+00	-5.601502e-02
1.469312e-01	3.157895e+00	-5.132448e-02
9.549150e-02	3.157895e+00	-4.448920e-02
5.510729e-02	3.157895e+00	-3.525814e-02
2.447174e-02	3.157895e+00	-2.442307e-02
6.832625e-03	3.157895e+00	-1.199408e-02
0.000000e+00	3.157895e+00	1.439406e-03
6.832625e-03	3.157895e+00	1.487289e-02
2.447174e-02	3.157895e+00	2.730189e-02
5.510728e-02	3.157895e+00	3.813696e-02
9.549150e-02	3.157895e+00	4.736802e-02
1.469312e-01	3.157895e+00	5.420329e-02
2.061074e-01	3.157895e+00	5.889385e-02
2.733158e-01	3.157895e+00	6.080872e-02
3.454915e-01	3.157895e+00	6.057881e-02
4.218900e-01	3.157895e+00	5.795674e-02
5.000000e-01	3.157895e+00	5.374966e-02
5.781101e-01	3.157895e+00	4.804362e-02
6.545085e-01	3.157895e+00	4.153214e-02
7.266842e-01	3.157895e+00	3.448061e-02
7.938926e-01	3.157895e+00	2.734427e-02
8.530689e-01	3.157895e+00	2.050547e-02
9.045085e-01	3.157895e+00	1.421405e-02
9.448927e-01	3.157895e+00	8.975816e-03
9.755282e-01	3.157895e+00	4.852716e-03
9.931674e-01	3.157895e+00	2.401231e-03
1.000000e+00	3.157895e+00	1.439406e-03
1.000000e+00	4.210526e+00	1.439406e-03
9.931674e-01	4.210526e+00	4.775805e-04
9.755282e-01	4.210526e+00	-1.973904e-03
9.448927e-01	4.210526e+00	-6.097004e-03
9.045085e-01	4.210526e+00	-1.133523e-02
8.530689e-01	4.210526e+00	-1.762665e-02
7.938926e-01	4.210526e+00	-2.446545e-02
7.266841e-01	4.210526e+00	-3.160179e-02
6.545085e-01	4.210526e+00	-3.865332e-02
5.781101e-01	4.210526e+00	-4.516481e-02
5.000000e-01	4.210526e+00	-5.087084e-02
4.218900e-01	4.210526e+00	-5.507792e-02
3.454915e-01	4.210526e+00	-5.769999e-02
2.733158e-01	4.210526e+00	-5.792990e-02
2.061074e-01	4.210526e+00	-5.601502e-02
1.469311e-01	4.210526e+00	-5.132448e-02
9.549150e-02	4.210526e+00	-4.448920e-02
5.510729e-02	4.210526e+00	-3.525814e-02
2.447174e-02	4.210526e+00	-2.442307e-02
6.832625e-03	4.210526e+00	-1.199408e-02
0.000000e+00	4.210526e+00	1.439406e-03
6.832625e-03	4.210526e+00	1.487289e-02
2.447174e-02	4.210526e+00	2.730189e-02
5.510728e-02	4.210526e+00	3.813696e-02
9.549150e-02	4.210526e+00	4.736802e-02
1.469311e-01	4.210526e+00	5.420329e-02
2.061074e-01	4.210526e+00	5.889385e-02
2.733158e-01	4.210526e+00	6.080872e-02
3.454915e-01	4.210526e+00	6.057881e-02
4.218900e-01	4.210526e+00	5.795674e-02
5.000000e-01	4.210526e+00	5.374966e-02
5.781101e-01	4.210526e+00	4.804362e-02
6.545085e-01	4.210526e+00	4.153214e-02
7.266841e-01	4.210526e+00	3.448061e-02
7.938926e-01	4.210526e+00	2.734427e-02
8.530689e-01	4.210526e+00	2.050547e-02
9.045085e-01	4.210526e+00	1.421405e-02
9.448927e-01	4.210526e+00	8.975816e-03
9.755282e-01	4.210526e+00	4.852716e-03
9.931674e-01	4.210526e+00	2.401231e-03
1.000000e+00	4.210526e+00	1.439406e-03
1.000000e+00	5.263158e+00	1.439406e-03
9.931674e-01	5.263158e+00	4.775805e-04
9.755282e-01	5.263158e+00	-1.973904e-03
9.448927e-01	5.263158e+00	-6.097004e-03
9.045085e-01	5.263158e+00	-1.133523e-02
8.530689e-01	5.263158e+00	-1.762665e-02
7.938926e-01	5.263158e+00	-2.446545e-02
7.266842e-01	5.263158e+00	-3.160179e-02
6.545085e-01	5.263158e+00	-3.865332e-02
5.781101e-01	5.263158e+00	-4.516481e-02
5.000000e-01	5.263158e+00	-5.087084e-02
4.218900e-01	5.263158e+00	-5.507792e-02
3.454915e-01	5.263158e+00	-5.769999e-02
2.733158e-01	5.263158e+00	-5.792990e-02
2.061074e-01	5.263158e+00	-5.601502e-02
1.469311e-01	5.263158e+00	-5.132448e-02
9.549150e-02	5.263158e+00	-4.448920e-02
5.510729e-02	5.263158e+00	-3.525814e-02
2.447174e-02	5.263158e+00	-2.442307e-02
6.832625e-03	5.263158e+00	-1.199408e-02
0.000000e+00	5.263158e+00	1.439406e-03
6.832625e-03	5.263158e+00	1.487289e-02
2.447174e-02	5.263158e+00	2.730189e-02
5.510728e-02	5.263158e+00	3.813696e-02
9.549150e-02	5.263158e+00	4.736802e-02
1.469311e-01	5.263158e+00	5.420329e-02
2.061074e-01	5.263158e+00	5.889385e-02
2.733158e-01	5.263158e+00	6.080872e-02
3.454915e-01	5.263158e+00	6.057881e-02
4.218900e-01	5.263158e+00	5.795674e-02
5.000000e-01	5.263158e+00	5.374966e-02
5.781101e-01	5.263158e+00	4.804362e-02
6.545085e-01	5.263158e+00	4.153214e-02
7.266842e-01	5.263158e+00	3.448061e-02
7.938926e-01	5.263158e+00	2.734427e-02
8.530689e-01	5.263158e+00	2.050547e-02
9.045085e-01	5.263158e+00	1.421405e-02
9.448927e-01	5.263158e+00	8.975816e-03
9.755282e-01	5.263158e+00	4.852716e-03
9.931674e-01	5.263158e+00	2.401231e-03
1.000000e+00	5.263158e+00	1.439406e-03
1.000000e+00	6.315789e+00	1.439406e-03
9.931673e-01	6.315789e+00	4.775805e-04
9.755282e-01	6.315789e+00	-1.973904e-03
9.448927e-01	6.315789e+00	-6.097004e-03
9.045085e-01	6.315789e+00	-1.133523e-02
[...]
CELL_DATA 760
VECTORS V double
3.475024e-01	1.044652e-03	4.891755e-02
3.553520e-01	1.004483e-03	4.938674e-02
3.616625e-01	9.331421e-04	4.867460e-02
3.668882e-01	8.440340e-04	4.758903e-02
3.707766e-01	7.407629e-04	4.534851e-02
3.757380e-01	6.209809e-04	4.342278e-02
3.794738e-01	4.799672e-04	4.029335e-02
3.842321e-01	3.143817e-04	3.753931e-02
3.884738e-01	1.245652e-04	3.310985e-02
3.937011e-01	-8.434232e-05	2.876035e-02
3.985675e-01	-3.021398e-04	2.146723e-02
4.037579e-01	-5.146130e-04	1.385736e-02
4.079728e-01	-7.069828e-04	1.299566e-03
4.109086e-01	-8.653587e-04	-1.170747e-02
4.133936e-01	-9.820525e-04	-3.276722e-02
4.072484e-01	-1.053850e-03	-5.411497e-02
3.892159e-01	-1.084595e-03	-8.896731e-02
3.560212e-01	-1.080354e-03	-1.259163e-01
2.570561e-01	-1.047729e-03	-1.811286e-01
5.280812e-02	-9.936557e-04	-1.038250e-01
1.339006e-01	-9.085879e-04	2.632592e-01
3.458173e-01	-8.161897e-04	2.436722e-01
4.220292e-01	-7.027070e-04	1.492618e-01
4.367391e-01	-5.691253e-04	9.983020e-02
4.414615e-01	-4.066953e-04	5.866118e-02
4.379234e-01	-2.160752e-04	3.471162e-02
4.275476e-01	2.348694e-06	1.218148e-02
4.183160e-01	2.384072e-04	-1.332513e-03
4.084787e-01	4.792914e-04	-1.401938e-02
3.983624e-01	7.070761e-04	-2.145618e-02
3.886822e-01	9.058467e-04	-2.839371e-02
3.787337e-01	1.063063e-03	-3.227970e-02
3.694020e-01	1.172590e-03	-3.609041e-02
3.590652e-01	1.234882e-03	-3.812633e-02
3.487956e-01	1.255518e-03	-4.030914e-02
3.361020e-01	1.243644e-03	-4.110757e-02
3.228253e-01	1.209767e-03	-4.187363e-02
3.068113e-01	1.165848e-03	-4.129241e-02
2.897054e-01	1.124735e-03	-4.026318e-02
2.738879e-01	1.100935e-03	-3.855491e-02
3.508915e-01	6.044163e-04	4.939463e-02
3.584743e-01	5.800008e-04	4.982067e-02
3.644033e-01	5.369542e-04	4.904348e-02
3.693181e-01	4.829313e-04	4.790421e-02
3.730583e-01	4.201511e-04	4.562758e-02
3.780267e-01	3.478211e-04	4.368728e-02
3.818791e-01	2.640315e-04	4.054876e-02
3.868092e-01	1.674239e-04	3.779109e-02
3.912250e-01	5.848016e-05	3.334434e-02
3.965774e-01	-5.985258e-05	2.897046e-02
4.014743e-01	-1.820340e-04	2.162379e-02
4.065686e-01	-3.004828e-04	1.395383e-02
4.105424e-01	-4.073988e-04	1.307751e-03
4.130964e-01	-4.954291e-04	-1.176980e-02
4.150764e-01	-5.604963e-04	-3.290061e-02
4.083245e-01	-6.007845e-04	-5.425795e-02
3.895870e-01	-6.182246e-04	-8.905215e-02
3.555287e-01	-6.158894e-04	-1.257421e-01
2.555070e-01	-5.971544e-04	-1.800371e-01
5.067723e-02	-5.656987e-04	-9.963546e-02
1.367495e-01	-5.157302e-04	2.688605e-01
3.497733e-01	-4.612157e-04	2.464597e-01
4.258450e-01	-3.943782e-04	1.506114e-01
4.403734e-01	-3.162565e-04	1.006609e-01
4.450650e-01	-2.222577e-04	5.914002e-02
4.415358e-01	-1.132052e-04	3.499796e-02
4.311429e-01	1.046290e-05	1.228391e-02
4.218004e-01	1.430490e-04	-1.343613e-03
4.117275e-01	2.776680e-04	-1.413088e-02
4.012427e-01	4.047437e-04	-2.161132e-02
3.910829e-01	5.158290e-04	-2.856909e-02
3.805788e-01	6.042075e-04	-3.243696e-02
3.706559e-01	6.665104e-04	-3.621293e-02
3.597290e-01	7.028536e-04	-3.819681e-02
3.488909e-01	7.161140e-04	-4.032014e-02
3.356578e-01	7.112017e-04	-4.105324e-02
3.218678e-01	6.938253e-04	-4.174943e-02
3.053798e-01	6.704512e-04	-4.109976e-02
2.878948e-01	6.480955e-04	-4.001155e-02
2.718798e-01	6.349812e-04	-3.827224e-02
3.516224e-01	1.112640e-04	4.949751e-02
3.591261e-01	1.053740e-04	4.991126e-02
3.649803e-01	9.536479e-05	4.912113e-02
3.698393e-01	8.254797e-05	4.797182e-02
3.735400e-01	6.756479e-05	4.568649e-02
3.784767e-01	5.095105e-05	4.373928e-02
3.823031e-01	3.328545e-05	4.059377e-02
3.872123e-01	1.498724e-05	3.783048e-02
3.916098e-01	-3.515735e-06	3.337713e-02
3.969435e-01	-2.173408e-05	2.899721e-02
4.018189e-01	-3.911122e-05	2.164235e-02
4.068873e-01	-5.505588e-05	1.396476e-02
4.108292e-01	-6.906388e-05	1.308665e-03
4.133438e-01	-8.063448e-05	-1.177685e-02
4.152744e-01	-8.948954e-05	-3.291630e-02
4.084595e-01	-9.536582e-05	-5.427590e-02
3.896384e-01	-9.826020e-05	-8.906390e-02
3.554591e-01	-9.818819e-05	-1.257175e-01
2.552648e-01	-9.522235e-05	-1.798665e-01
5.031626e-02	-8.961037e-05	-9.892578e-02
1.372565e-01	-8.003183e-05	2.698572e-01
3.504801e-01	-6.924794e-05	2.469577e-01
4.265044e-01	-5.612128e-05	1.508446e-01
4.409630e-01	-4.138278e-05	1.007957e-01
4.456045e-01	-2.476595e-05	5.921170e-02
4.420325e-01	-6.921412e-06	3.503733e-02
4.316012e-01	1.183633e-05	1.229697e-02
4.222199e-01	3.072584e-05	-1.344949e-03
4.121068e-01	4.914480e-05	-1.414390e-02
4.015788e-01	6.632558e-05	-2.162942e-02
3.913724e-01	8.167380e-05	-2.859024e-02
3.808180e-01	9.466108e-05	-3.245735e-02
3.708413e-01	1.049390e-04	-3.623104e-02
3.598580e-01	1.123735e-04	-3.821050e-02
3.489623e-01	1.170298e-04	-4.032840e-02
3.356725e-01	1.192411e-04	-4.105504e-02
3.218245e-01	1.194598e-04	-4.174382e-02
3.052747e-01	1.182272e-04	-4.108561e-02
2.877304e-01	1.162588e-04	-3.998870e-02
2.716750e-01	1.148012e-04	-3.824340e-02
3.518854e-01	4.130174e-05	4.953454e-02
3.593592e-01	3.917443e-05	4.994365e-02
3.651850e-01	3.557050e-05	4.914867e-02
3.700208e-01	3.095033e-05	4.799535e-02
3.737034e-01	2.561707e-05	4.570648e-02
3.786264e-01	1.978110e-05	4.375658e-02
3.824417e-01	1.362816e-05	4.060850e-02
3.873418e-01	7.315910e-06	3.784313e-02
3.917312e-01	1.010347e-06	3.338748e-02
3.970571e-01	-5.129677e-06	2.900551e-02
4.019246e-01	-1.094179e-05	2.164805e-02
4.069847e-01	-1.626385e-05	1.396811e-02
4.109172e-01	-2.096341e-05	1.308945e-03
4.134210e-01	-2.490360e-05	-1.177905e-02
4.153388e-01	-2.801209e-05	-3.292141e-02
4.085076e-01	-3.020086e-05	-5.428229e-02
3.896639e-01	-3.144791e-05	-8.906973e-02
3.554502e-01	-3.171507e-05	-1.257144e-01
2.552045e-01	-3.100059e-05	-1.798239e-01
5.021521e-02	-2.935229e-05	-9.872711e-02
1.374053e-01	-2.634853e-05	2.701499e-01
3.506914e-01	-2.286896e-05	2.471066e-01
4.267026e-01	-1.858626e-05	1.509146e-01
4.411400e-01	-1.376584e-05	1.008362e-01
4.457658e-01	-8.343819e-06	5.923314e-02
4.421805e-01	-2.543492e-06	3.504906e-02
4.317375e-01	3.538522e-06	1.230085e-02
4.223451e-01	9.670176e-06	-1.345348e-03
4.122210e-01	1.568908e-05	-1.414782e-02
4.016821e-01	2.138637e-05	-2.163499e-02
3.914650e-01	2.661657e-05	-2.859700e-02
3.809003e-01	3.125653e-05	-3.246436e-02
3.709135e-01	3.522280e-05	-3.623809e-02
3.599201e-01	3.846075e-05	-3.821710e-02
3.490136e-01	4.092513e-05	-4.033433e-02
3.357110e-01	4.260790e-05	-4.105974e-02
3.218470e-01	4.352481e-05	-4.174674e-02
3.052774e-01	4.378968e-05	-4.108597e-02
2.877104e-01	4.358007e-05	-3.998593e-02
2.716339e-01	4.325767e-05	-3.823761e-02
3.519813e-01	1.836178e-05	4.954804e-02
3.594449e-01	1.754429e-05	4.995557e-02
3.652619e-01	1.611341e-05	4.915903e-02
3.700907e-01	1.421869e-05	4.800443e-02
3.737679e-01	1.198360e-05	4.571436e-02
3.786864e-01	9.502495e-06	4.376351e-02
3.824980e-01	6.849322e-06	4.061447e-02
3.873949e-01	4.088163e-06	3.784831e-02
3.917813e-01	1.297601e-06	3.339176e-02
3.971046e-01	-1.445448e-06	2.900898e-02
4.019693e-01	-4.066403e-06	2.165046e-02
4.070265e-01	-6.494288e-06	1.396954e-02
4.109558e-01	-8.670291e-06	1.309068e-03
4.134557e-01	-1.052926e-05	-1.178004e-02
4.153686e-01	-1.203069e-05	-3.292377e-02
4.085308e-01	-1.312379e-05	-5.428538e-02
3.896780e-01	-1.379276e-05	-8.907294e-02
3.554502e-01	-1.401492e-05	-1.257144e-01
2.551831e-01	-1.379025e-05	-1.798089e-01
5.017556e-02	-1.313369e-05	-9.864915e-02
1.374658e-01	-1.186614e-05	2.702688e-01
3.507785e-01	-1.036191e-05	2.471679e-01
4.267846e-01	-8.489841e-06	1.509437e-01
4.412134e-01	-6.371528e-06	1.008529e-01
4.458326e-01	-3.984140e-06	5.924202e-02
4.422418e-01	-1.428593e-06	3.505392e-02
4.317941e-01	1.254280e-06	1.230246e-02
4.223974e-01	3.969133e-06	-1.345514e-03
4.122692e-01	6.655373e-06	-1.414948e-02
4.017264e-01	9.230983e-06	-2.163737e-02
3.915055e-01	1.163410e-05	-2.859996e-02
3.809369e-01	1.380001e-05	-3.246747e-02
3.709459e-01	1.567101e-05	-3.624125e-02
3.599477e-01	1.719868e-05	-3.822003e-02
3.490356e-01	1.835368e-05	-4.033687e-02
3.357268e-01	1.914603e-05	-4.106167e-02
3.218562e-01	1.959502e-05	-4.174793e-02
3.052796e-01	1.976924e-05	-4.108627e-02
2.877049e-01	1.975511e-05	-3.998517e-02
2.716206e-01	1.967152e-05	-3.823574e-02
3.520233e-01	9.974824e-06	4.955396e-02
3.594848e-01	9.596945e-06	4.996112e-02
3.652992e-01	8.896359e-06	4.916405e-02
3.701252e-01	7.946228e-06	4.800890e-02
3.737997e-01	6.810897e-06	4.571826e-02
3.787162e-01	5.543124e-06	4.376696e-02
3.825264e-01	4.174035e-06	4.061749e-02
3.874222e-01	2.733143e-06	3.785098e-02
3.918075e-01	1.249165e-06	3.339398e-02
3.971294e-01	-2.379238e-07	2.901079e-02
4.019929e-01	-1.680363e-06	2.165172e-02
4.070486e-01	-3.033112e-06	1.397030e-02
4.109763e-01	-4.259899e-06	1.309133e-03
4.134744e-01	-5.323174e-06	-1.178057e-02
4.153849e-01	-6.200156e-06	-3.292506e-02
4.085441e-01	-6.861431e-06	-5.428713e-02
3.896868e-01	-7.297703e-06	-8.907496e-02
3.554523e-01	-7.493339e-06	-1.257151e-01
2.551746e-01	-7.448977e-06	-1.798029e-01
5.015730e-02	-7.167596e-06	-9.861325e-02
1.374950e-01	-6.562204e-06	2.703262e-01
3.508213e-01	-5.812593e-06	2.471981e-01
4.268255e-01	-4.859322e-06	1.509581e-01
4.412501e-01	-3.765707e-06	1.008614e-01
4.458663e-01	-2.521199e-06	5.924649e-02
4.422728e-01	-1.178784e-06	3.505637e-02
4.318228e-01	2.403932e-07	1.230328e-02
4.224240e-01	1.686731e-06	-1.345599e-03
4.122939e-01	3.128892e-06	-1.415032e-02
4.017493e-01	4.523595e-06	-2.163861e-02
3.915266e-01	5.836568e-06	-2.860150e-02
3.809560e-01	7.030500e-06	-3.246911e-02
3.709629e-01	8.074257e-06	-3.624291e-02
3.599623e-01	8.947600e-06	-3.822159e-02
3.490480e-01	9.636857e-06	-4.033830e-02
3.357368e-01	1.014237e-05	-4.106290e-02
3.218635e-01	1.047234e-05	-4.174888e-02
3.052840e-01	1.064469e-05	-4.108686e-02
2.877066e-01	1.070423e-05	-3.998540e-02
2.716197e-01	1.070606e-05	-3.823563e-02
3.520451e-01	6.143340e-06	4.955702e-02
3.595056e-01	5.938131e-06	4.996401e-02
3.653188e-01	5.559199e-06	4.916668e-02
3.701435e-01	5.047298e-06	4.801127e-02
3.738170e-01	4.432328e-06	4.572036e-02
3.787326e-01	3.736451e-06	4.376885e-02
3.825420e-01	2.978508e-06	4.061914e-02
3.874372e-01	2.177937e-06	3.785245e-02
3.918223e-01	1.342746e-06	3.339525e-02
3.971441e-01	4.873408e-07	2.901186e-02
4.020071e-01	-3.722201e-07	2.165249e-02
4.070623e-01	-1.204259e-06	1.397077e-02
4.109893e-01	-1.981631e-06	1.309175e-03
4.134865e-01	-2.675577e-06	-1.178092e-02
4.153959e-01	-3.267315e-06	-3.292593e-02
4.085535e-01	-3.734719e-06	-5.428839e-02
3.896940e-01	-4.070209e-06	-8.907660e-02
3.554560e-01	-4.260941e-06	-1.257164e-01
2.551726e-01	-4.308249e-06	-1.798015e-01
5.014911e-02	-4.209504e-06	-9.859714e-02
1.375098e-01	-3.922184e-06	2.703553e-01
3.508441e-01	-3.532659e-06	2.472142e-01
4.268477e-01	-3.015824e-06	1.509660e-01
4.412705e-01	-2.406973e-06	1.008660e-01
4.458852e-01	-1.701117e-06	5.924901e-02
4.422904e-01	-9.286630e-07	3.505777e-02
4.318393e-01	-1.017979e-07	1.230375e-02
4.224396e-01	7.507099e-07	-1.345649e-03
4.123085e-01	1.610140e-06	-1.415083e-02
4.017630e-01	2.450151e-06	-2.163934e-02
3.915393e-01	3.251402e-06	-2.860243e-02
3.809678e-01	3.995695e-06	-3.247011e-02
3.709737e-01	4.671441e-06	-3.624397e-02
3.599722e-01	5.261320e-06	-3.822264e-02
3.490567e-01	5.745181e-06	-4.033931e-02
3.357441e-01	6.106173e-06	-4.106379e-02
3.218692e-01	6.350417e-06	-4.174962e-02
3.052881e-01	6.488662e-06	-4.108741e-02
2.877091e-01	6.544460e-06	-3.998574e-02
2.716209e-01	6.554360e-06	-3.823578e-02
3.520580e-01	3.942002e-06	4.955883e-02
3.595177e-01	3.852435e-06	4.996569e-02
3.653299e-01	3.698187e-06	4.916817e-02
3.701537e-01	3.505949e-06	4.801260e-02
3.738265e-01	3.297677e-06	4.572153e-02
3.787417e-01	3.081041e-06	4.376990e-02
3.825508e-01	2.849588e-06	4.062008e-02
3.874459e-01	2.580540e-06	3.785329e-02
3.918308e-01	2.255852e-06	3.339597e-02
3.971526e-01	1.856433e-06	2.901248e-02
4.020157e-01	1.381469e-06	2.165296e-02
4.070709e-01	8.538097e-07	1.397107e-02
4.109978e-01	3.180763e-07	1.309202e-03
4.134948e-01	-1.755723e-07	-1.178115e-02
4.154037e-01	-5.974066e-07	-3.292655e-02
4.085606e-01	-9.304838e-07	-5.428933e-02
3.897000e-01	-1.176549e-06	-8.907798e-02
3.554603e-01	-1.334028e-06	-1.257179e-01
2.551738e-01	-1.409165e-06	-1.798023e-01
5.014605e-02	-1.399100e-06	-9.859113e-02
1.375172e-01	-1.286358e-06	2.703697e-01
3.508564e-01	-1.105833e-06	2.472229e-01
4.268602e-01	-8.502114e-07	1.509704e-01
4.412823e-01	-5.361617e-07	1.008687e-01
4.458964e-01	-1.567218e-07	5.925049e-02
4.423010e-01	2.802808e-07	3.505861e-02
4.318493e-01	7.764556e-07	1.230404e-02
4.224490e-01	1.315338e-06	-1.345679e-03
4.123175e-01	1.871695e-06	-1.415113e-02
4.017715e-01	2.403815e-06	-2.163980e-02
3.915475e-01	2.876188e-06	-2.860302e-02
3.809756e-01	3.269351e-06	-3.247078e-02
3.709812e-01	3.577959e-06	-3.624471e-02
3.599792e-01	3.810462e-06	-3.822338e-02
3.490629e-01	3.976069e-06	-4.034002e-02
3.357493e-01	4.089867e-06	-4.106443e-02
3.218734e-01	4.155008e-06	-4.175016e-02
3.052910e-01	4.182691e-06	-4.108780e-02
2.877107e-01	4.185632e-06	-3.998597e-02
2.716214e-01	4.177628e-06	-3.823586e-02
3.520602e-01	-3.332666e-04	4.955915e-02
3.595192e-01	-3.338949e-04	4.996590e-02
3.653306e-01	-3.358156e-04	4.916827e-02
3.701536e-01	-3.324386e-04	4.801258e-02
3.738256e-01	-3.220027e-04	4.572142e-02
3.787404e-01	-3.339834e-04	4.376975e-02
3.825498e-01	-2.809780e-04	4.061998e-02
3.874459e-01	-3.040619e-04	3.785329e-02
3.918323e-01	-2.177062e-04	3.339610e-02
3.971558e-01	-2.503133e-04	2.901272e-02
4.020207e-01	-1.317482e-04	2.165322e-02
4.070771e-01	-1.716517e-04	1.397128e-02
4.110044e-01	-2.837879e-05	1.309223e-03
4.135010e-01	-7.478773e-05	-1.178133e-02
4.154093e-01	8.709601e-05	-3.292699e-02
4.085654e-01	1.893859e-04	-5.428997e-02
3.897040e-01	2.368604e-04	-8.907890e-02
3.554635e-01	2.190981e-04	-1.257191e-01
2.551758e-01	2.104201e-04	-1.798037e-01
5.014577e-02	2.069680e-04	-9.859057e-02
1.375196e-01	2.069663e-04	2.703744e-01
3.508611e-01	2.104137e-04	2.472262e-01
4.268654e-01	2.190826e-04	1.509722e-01
4.412876e-01	2.368298e-04	1.008699e-01
4.459019e-01	1.893322e-04	5.925122e-02
4.423069e-01	8.701400e-05	3.505908e-02
4.318557e-01	-7.490202e-05	1.230422e-02
4.224556e-01	-2.852280e-05	-1.345700e-03
4.123236e-01	-1.718138e-04	-1.415134e-02
4.017766e-01	-1.319097e-04	-2.164007e-02
3.915510e-01	-2.504500e-04	-2.860328e-02
3.809775e-01	-2.177992e-04	-3.247093e-02
3.709816e-01	-3.040912e-04	-3.624474e-02
3.599785e-01	-2.809284e-04	-3.822330e-02
3.490617e-01	-3.338530e-04	-4.033988e-02
3.357478e-01	-3.218172e-04	-4.106425e-02
3.218717e-01	-3.322402e-04	-4.174994e-02
3.052893e-01	-3.356437e-04	-4.108757e-02
2.877090e-01	-3.337697e-04	-3.998573e-02
2.716195e-01	-3.331902e-04	-3.823559e-02
3.521640e-01	-3.367339e-08	4.957376e-02
3.596702e-01	-3.592646e-08	4.998688e-02
3.652474e-01	-2.095236e-09	4.915707e-02
3.697855e-01	6.738899e-08	4.796484e-02
3.739000e-01	1.677444e-07	4.573052e-02
3.779505e-01	2.865674e-07	4.367847e-02
3.821408e-01	4.054732e-07	4.057654e-02
3.864805e-01	5.114488e-07	3.775898e-02
3.911210e-01	5.922387e-07	3.333547e-02
3.959838e-01	6.451715e-07	2.892710e-02
4.009401e-01	6.684422e-07	2.159502e-02
4.056879e-01	6.683780e-07	1.392360e-02
4.094944e-01	6.472764e-07	1.304413e-03
4.118302e-01	6.072160e-07	-1.173372e-02
4.106904e-01	5.540616e-07	-3.255296e-02
4.054266e-01	4.871386e-07	-5.387289e-02
3.887945e-01	4.140935e-07	-8.887099e-02
3.563110e-01	3.390133e-07	-1.260188e-01
2.556707e-01	2.586943e-07	-1.801524e-01
5.027545e-02	1.776184e-07	-9.884554e-02
1.376463e-01	8.198348e-08	2.706236e-01
3.513527e-01	-2.212841e-09	2.475726e-01
4.277101e-01	-8.845113e-08	1.512710e-01
4.403758e-01	-1.727024e-07	1.006615e-01
4.427614e-01	-2.561409e-07	5.883391e-02
4.375866e-01	-3.389294e-07	3.468493e-02
4.301838e-01	-4.130623e-07	1.225659e-02
4.209449e-01	-4.764318e-07	-1.340888e-03
4.109342e-01	-5.245538e-07	-1.410366e-02
4.006962e-01	-5.528307e-07	-2.158188e-02
3.903796e-01	-5.598151e-07	-2.851771e-02
3.802673e-01	-5.456759e-07	-3.241041e-02
3.700179e-01	-5.045558e-07	-3.615059e-02
3.595716e-01	-4.385410e-07	-3.818010e-02
3.482741e-01	-3.535839e-07	-4.024887e-02
3.358243e-01	-2.718073e-07	-4.107360e-02
3.215050e-01	-2.130697e-07	-4.170237e-02
3.052062e-01	-1.872491e-07	-4.107639e-02
2.878583e-01	-1.933988e-07	-4.000649e-02
2.717192e-01	-2.190227e-07	-3.824963e-02
3.520606e-01	3.337228e-04	4.955920e-02
3.595170e-01	3.343759e-04	4.996559e-02
3.653269e-01	3.363880e-04	4.916778e-02
3.701492e-01	3.331565e-04	4.801202e-02
3.738211e-01	3.229063e-04	4.572087e-02
3.787362e-01	3.350885e-04	4.376927e-02
3.825463e-01	2.822863e-04	4.061961e-02
3.874432e-01	3.055297e-04	3.785303e-02
3.918305e-01	2.192847e-04	3.339594e-02
3.971548e-01	2.519477e-04	2.901265e-02
4.020203e-01	1.333892e-04	2.165320e-02
4.070774e-01	1.732468e-04	1.397129e-02
4.110052e-01	2.988782e-05	1.309226e-03
4.135025e-01	7.617873e-05	-1.178137e-02
4.154114e-01	-8.584553e-05	-3.292716e-02
4.085682e-01	-1.882892e-04	-5.429034e-02
3.897076e-01	-2.359273e-04	-8.907972e-02
3.554682e-01	-2.183299e-04	-1.257207e-01
2.551818e-01	-2.098231e-04	-1.798080e-01
5.015132e-02	-2.065413e-04	-9.860149e-02
1.375139e-01	-2.067386e-04	2.703633e-01
3.508547e-01	-2.103605e-04	2.472217e-01
4.268602e-01	-2.192079e-04	1.509704e-01
4.412835e-01	-2.371295e-04	1.008690e-01
4.458985e-01	-1.898061e-04	5.925077e-02
4.423041e-01	-8.765461e-05	3.505886e-02
4.318536e-01	7.410638e-05	1.230416e-02
4.224539e-01	2.759259e-05	-1.345695e-03
4.123226e-01	1.707769e-04	-1.415131e-02
4.017761e-01	1.308040e-04	-2.164005e-02
3.915511e-01	2.493210e-04	-2.860329e-02
3.809782e-01	2.167026e-04	-3.247100e-02
3.709831e-01	3.030850e-04	-3.624489e-02
3.599809e-01	2.800741e-04	-3.822355e-02
3.490646e-01	3.331912e-04	-4.034022e-02
3.357507e-01	3.213777e-04	-4.106460e-02
3.218739e-01	3.319978e-04	-4.175023e-02
3.052901e-01	3.355435e-04	-4.108768e-02
2.877077e-01	3.337446e-04	-3.998555e-02
2.716152e-01	3.331714e-04	-3.823499e-02
3.520538e-01	-2.995716e-06	4.955824e-02
3.595106e-01	-2.824070e-06	4.996470e-02
3.653216e-01	-2.506614e-06	4.916706e-02
3.701453e-01	-2.112407e-06	4.801151e-02
3.738186e-01	-1.695094e-06	4.572057e-02
3.787346e-01	-1.289576e-06	4.376908e-02
3.825452e-01	-9.075999e-07	4.061948e-02
3.874420e-01	-5.418262e-07	3.785291e-02
3.918285e-01	-1.751252e-07	3.339577e-02
3.971517e-01	2.092224e-07	2.901242e-02
4.020163e-01	6.127778e-07	2.165298e-02
4.070728e-01	1.018843e-06	1.397113e-02
4.110008e-01	1.396255e-06	1.309211e-03
4.134988e-01	1.711995e-06	-1.178127e-02
4.154088e-01	1.945705e-06	-3.292696e-02
4.085670e-01	2.095775e-06	-5.429018e-02
3.897080e-01	2.160427e-06	-8.907980e-02
3.554705e-01	2.142803e-06	-1.257215e-01
2.551867e-01	2.043845e-06	-1.798114e-01
5.015766e-02	1.865534e-06	-9.861395e-02
1.375054e-01	1.559302e-06	2.703466e-01
3.508431e-01	1.209476e-06	2.472135e-01
4.268495e-01	7.786694e-07	1.509666e-01
4.412739e-01	2.902574e-07	1.008668e-01
4.458895e-01	-2.687915e-07	5.924957e-02
4.422953e-01	-8.808452e-07	3.505816e-02
4.318448e-01	-1.549192e-06	1.230391e-02
4.224455e-01	-2.250758e-06	-1.345668e-03
4.123151e-01	-2.952799e-06	-1.415105e-02
4.017703e-01	-3.603591e-06	-2.163973e-02
3.915476e-01	-4.152717e-06	-2.860303e-02
3.809773e-01	-4.563644e-06	-3.247092e-02
3.709847e-01	-4.822524e-06	-3.624505e-02
3.599845e-01	-4.935242e-06	-3.822394e-02
3.490701e-01	-4.916144e-06	-4.034086e-02
3.357579e-01	-4.787754e-06	-4.106548e-02
3.218821e-01	-4.586581e-06	-4.175129e-02
3.052987e-01	-4.369154e-06	-4.108884e-02
2.877161e-01	-4.190926e-06	-3.998671e-02
2.716225e-01	-4.109677e-06	-3.823601e-02
3.520316e-01	-4.973134e-06	4.955512e-02
3.594895e-01	-4.612527e-06	4.996176e-02
3.653026e-01	-3.972665e-06	4.916451e-02
3.701289e-01	-3.185222e-06	4.800937e-02
3.738044e-01	-2.331169e-06	4.571883e-02
3.787225e-01	-1.461997e-06	4.376769e-02
3.825347e-01	-6.203851e-07	4.061837e-02
3.874326e-01	1.988968e-07	3.785200e-02
3.918201e-01	9.756964e-07	3.339506e-02
3.971442e-01	1.704701e-06	2.901187e-02
4.020094e-01	2.380281e-06	2.165261e-02
4.070665e-01	3.000434e-06	1.397091e-02
4.109951e-01	3.553425e-06	1.309193e-03
4.134937e-01	4.028877e-06	-1.178112e-02
4.154045e-01	4.416608e-06	-3.292662e-02
4.085637e-01	4.701371e-06	-5.428974e-02
3.897063e-01	4.875164e-06	-8.907941e-02
3.554714e-01	4.923837e-06	-1.257218e-01
2.551916e-01	4.840029e-06	-1.798149e-01