# vtk DataFile Version 2.0
OUTPUT by 3D-VPM
ASCII
DATASET UNSTRUCTURED_GRID
POINTS 820 double
9.510565e-01	0.000000e+00	-3.090170e-01
9.442611e-01	0.000000e+00	-3.078203e-01
9.267277e-01	0.000000e+00	-3.047010e-01
8.963175e-01	0.000000e+00	-2.991555e-01
8.562911e-01	0.000000e+00	-2.916579e-01
8.054250e-01	0.000000e+00	-2.817457e-01
7.470317e-01	0.000000e+00	-2.699633e-01
6.809074e-01	0.000000e+00	-2.559818e-01
6.100852e-01	0.000000e+00	-2.403847e-01
5.354138e-01	0.000000e+00	-2.229691e-01
4.593635e-01	0.000000e+00	-2.042585e-01
3.837764e-01	0.000000e+00	-1.841224e-01
3.103069e-01	0.000000e+00	-1.630077e-01
2.415927e-01	0.000000e+00	-1.409228e-01
1.782654e-01	0.000000e+00	-1.183331e-01
1.234349e-01	0.000000e+00	-9.558566e-02
7.662509e-02	0.000000e+00	-7.318920e-02
4.106998e-02	0.000000e+00	-5.193053e-02
1.528206e-02	0.000000e+00	-3.215886e-02
2.347037e-03	0.000000e+00	-1.488740e-02
0.000000e+00	0.000000e+00	0.000000e+00
1.064939e-02	0.000000e+00	1.066461e-02
3.126595e-02	0.000000e+00	1.703450e-02
6.375031e-02	0.000000e+00	1.787236e-02
1.050105e-01	0.000000e+00	1.417221e-02
1.560448e-01	0.000000e+00	4.777214e-03
2.137742e-01	0.000000e+00	-9.048270e-03
2.782849e-01	0.000000e+00	-2.799567e-02
3.468570e-01	0.000000e+00	-5.051783e-02
4.187060e-01	0.000000e+00	-7.662000e-02
4.916930e-01	0.000000e+00	-1.047585e-01
5.642168e-01	0.000000e+00	-1.343226e-01
6.348639e-01	0.000000e+00	-1.641238e-01
7.013280e-01	0.000000e+00	-1.931337e-01
7.630418e-01	0.000000e+00	-2.206893e-01
8.172084e-01	0.000000e+00	-2.454799e-01
8.641863e-01	0.000000e+00	-2.673591e-01
9.009752e-01	0.000000e+00	-2.848204e-01
9.288372e-01	0.000000e+00	-2.982085e-01
9.448555e-01	0.000000e+00	-3.059908e-01
9.510565e-01	0.000000e+00	-3.090170e-01
9.510565e-01	1.052632e+00	-3.090170e-01
9.442611e-01	1.052632e+00	-3.078203e-01
9.267277e-01	1.052632e+00	-3.047010e-01
8.963175e-01	1.052632e+00	-2.991555e-01
8.562911e-01	1.052632e+00	-2.916579e-01
8.054250e-01	1.052632e+00	-2.817457e-01
7.470317e-01	1.052632e+00	-2.699633e-01
6.809074e-01	1.052632e+00	-2.559818e-01
6.100852e-01	1.052632e+00	-2.403847e-01
5.354138e-01	1.052632e+00	-2.229691e-01
4.593635e-01	1.052632e+00	-2.042585e-01
3.837764e-01	1.052632e+00	-1.841224e-01
3.103069e-01	1.052632e+00	-1.630077e-01
2.415927e-01	1.052632e+00	-1.409228e-01
1.782654e-01	1.052632e+00	-1.183331e-01
1.234349e-01	1.052632e+00	-9.558566e-02
7.662509e-02	1.052632e+00	-7.318920e-02
4.106998e-02	1.052632e+00	-5.193053e-02
1.528206e-02	1.052632e+00	-3.215886e-02
2.347037e-03	1.052632e+00	-1.488740e-02
0.000000e+00	1.052632e+00	0.000000e+00
1.064939e-02	1.052632e+00	1.066461e-02
3.126595e-02	1.052632e+00	1.703450e-02
6.375031e-02	1.052632e+00	1.787236e-02
1.050105e-01	1.052632e+00	1.417221e-02
1.560448e-01	1.052632e+00	4.777214e-03
2.137742e-01	1.052632e+00	-9.048270e-03
2.782849e-01	1.052632e+00	-2.799567e-02
3.468570e-01	1.052632e+00	-5.051783e-02
4.187060e-01	1.052632e+00	-7.662000e-02
4.916930e-01	1.052632e+00	-1.047585e-01
5.642168e-01	1.052632e+00	-1.343226e-01
6.348639e-01	1.052632e+00	-1.641238e-01
7.013280e-01	1.052632e+00	-1.931337e-01
7.630418e-01	1.052632e+00	-2.206893e-01
8.172084e-01	1.052632e+00	-2.454799e-01
8.641863e-01	1.052632e+00	-2.673591e-01
9.009752e-01	1.052632e+00	-2.848204e-01
9.288372e-01	1.052632e+00	-2.982085e-01
9.448555e-01	1.052632e+00	-3.059908e-01
9.510565e-01	1.052632e+00	-3.090170e-01
9.510565e-01	2.105263e+00	-3.090170e-01
9.442611e-01	2.105263e+00	-3.078203e-01
9.267277e-01	2.105263e+00	-3.047010e-01
8.963175e-01	2.105263e+00	-2.991555e-01
8.562911e-01	2.105263e+00	-2.916579e-01
8.054250e-01	2.105263e+00	-2.817457e-01
7.470317e-01	2.105263e+00	-2.699633e-01
6.809074e-01	2.105263e+00	-2.559818e-01
6.100852e-01	2.105263e+00	-2.403847e-01
5.354138e-01	2.105263e+00	-2.229691e-01
4.593635e-01	2.105263e+00	-2.042585e-01
3.837764e-01	2.105263e+00	-1.841224e-01
3.103069e-01	2.105263e+00	-1.630077e-01
2.415927e-01	2.105263e+00	-1.409228e-01
1.782654e-01	2.105263e+00	-1.183331e-01
1.234349e-01	2.105263e+00	-9.558566e-02
7.662509e-02	2.105263e+00	-7.318920e-02
4.106998e-02	2.105263e+00	-5.193053e-02
1.528206e-02	2.105263e+00	-3.215886e-02
2.347037e-03	2.105263e+00	-1.488740e-02
0.000000e+00	2.105263e+00	0.000000e+00
1.064939e-02	2.105263e+00	1.066461e-02
3.126595e-02	2.105263e+00	1.703450e-02
6.375031e-02	2.105263e+00	1.787236e-02
1.050105e-01	2.105263e+00	1.417221e-02
1.560448e-01	2.105263e+00	4.777214e-03
2.137742e-01	2.105263e+00	-9.048270e-03
2.782849e-01	2.105263e+00	-2.799567e-02
3.468570e-01	2.105263e+00	-5.051783e-02
4.187060e-01	2.105263e+00	-7.662000e-02
4.916930e-01	2.105263e+00	-1.047585e-01
5.642168e-01	2.105263e+00	-1.343226e-01
6.348639e-01	2.105263e+00	-1.641238e-01
7.013280e-01	2.105263e+00	-1.931337e-01
7.630418e-01	2.105263e+00	-2.206893e-01
8.172084e-01	2.105263e+00	-2.454799e-01
8.641863e-01	2.105263e+00	-2.673591e-01
9.009752e-01	2.105263e+00	-2.848204e-01
9.288372e-01	2.105263e+00	-2.982085e-01
9.448555e-01	2.105263e+00	-3.059908e-01
9.510565e-01	2.105263e+00	-3.090170e-01
9.510565e-01	3.157895e+00	-3.090170e-01
9.442611e-01	3.157895e+00	-3.078203e-01
9.267277e-01	3.157895e+00	-3.047010e-01
8.963175e-01	3.157895e+00	-2.991555e-01
8.562911e-01	3.157895e+00	-2.916579e-01
8.054250e-01	3.157895e+00	-2.817457e-01
7.470317e-01	3.157895e+00	-2.699633e-01
6.809074e-01	3.157895e+00	-2.559818e-01
6.100852e-01	3.157895e+00	-2.403847e-01
5.354138e-01	3.157895e+00	-2.229691e-01
4.593635e-01	3.157895e+00	-2.042585e-01
3.837764e-01	3.157895e+00	-1.841224e-01
3.103069e-01	3.157895e+00	-1.630077e-01
2.415927e-01	3.157895e+00	-1.409228e-01
1.782654e-01	3.157895e+00	-1.183331e-01
1.234349e-01	3.157895e+00	-9.558566e-02
7.662509e-02	3.157895e+00	-7.318920e-02
4.106998e-02	3.157895e+00	-5.193053e-02
1.528206e-02	3.157895e+00	-3.215886e-02
2.347037e-03	3.157895e+00	-1.488740e-02
0.000000e+00	3.157895e+00	0.000000e+00
1.064939e-02	3.157895e+00	1.066461e-02
3.126595e-02	3.157895e+00	1.703450e-02
6.375031e-02	3.157895e+00	1.787236e-02
1.050105e-01	3.157895e+00	1.417221e-02
1.560448e-01	3.157895e+00	4.777214e-03
2.137742e-01	3.157895e+00	-9.048270e-03
2.782849e-01	3.157895e+00	-2.799567e-02
3.468570e-01	3.157895e+00	-5.051783e-02
4.187060e-01	3.157895e+00	-7.662000e-02
4.916930e-01	3.157895e+00	-1.047585e-01
5.642168e-01	3.157895e+00	-1.343226e-01
6.348639e-01	3.157895e+00	-1.641238e-01
7.013280e-01	3.157895e+00	-1.931337e-01
7.630418e-01	3.157895e+00	-2.206893e-01
8.172084e-01	3.157895e+00	-2.454799e-01
8.641863e-01	3.157895e+00	-2.673591e-01
9.009752e-01	3.157895e+00	-2.848204e-01
9.288372e-01	3.157895e+00	-2.982085e-01
9.448555e-01	3.157895e+00	-3.059908e-01
9.510565e-01	3.157895e+00	-3.090170e-01
9.510565e-01	4.210526e+00	-3.090170e-01
9.442611e-01	4.210526e+00	-3.078203e-01
9.267277e-01	4.210526e+00	-3.047010e-01
8.963175e-01	4.210526e+00	-2.991555e-01
8.562911e-01	4.210526e+00	-2.916579e-01
8.054250e-01	4.210526e+00	-2.817457e-01
7.470317e-01	4.210526e+00	-2.699633e-01
6.809074e-01	4.210526e+00	-2.559818e-01
6.100852e-01	4.210526e+00	-2.403847e-01
5.354138e-01	4.210526e+00	-2.229691e-01
4.593635e-01	4.210526e+00	-2.042585e-01
3.837764e-01	4.210526e+00	-1.841224e-01
3.103069e-01	4.210526e+00	-1.630077e-01
2.415927e-01	4.210526e+00	-1.409228e-01
1.782654e-01	4.210526e+00	-1.183331e-01
1.234349e-01	4.210526e+00	-9.558566e-02
7.662509e-02	4.210526e+00	-7.318920e-02
4.106998e-02	4.210526e+00	-5.193053e-02
1.528206e-02	4.210526e+00	-3.215886e-02
2.347037e-03	4.210526e+00	-1.488740e-02
0.000000e+00	4.210526e+00	0.000000e+00
1.064939e-02	4.210526e+00	1.066461e-02
3.126595e-02	4.210526e+00	1.703450e-02
6.375031e-02	4.210526e+00	1.787236e-02
1.050105e-01	4.210526e+00	1.417221e-02
1.560448e-01	4.210526e+00	4.777214e-03
2.137742e-01	4.210526e+00	-9.048270e-03
2.782849e-01	4.210526e+00	-2.799567e-02
3.468570e-01	4.210526e+00	-5.051783e-02
4.187060e-01	4.210526e+00	-7.662000e-02
4.916930e-01	4.210526e+00	-1.047585e-01
5.642168e-01	4.210526e+00	-1.343226e-01
6.348639e-01	4.210526e+00	-1.641238e-01
7.013280e-01	4.210526e+00	-1.931337e-01
7.630418e-01	4.210526e+00	-2.206893e-01
8.172084e-01	4.210526e+00	-2.454799e-01
8.641863e-01	4.210526e+00	-2.673591e-01
9.009752e-01	4.210526e+00	-2.848204e-01
9.288372e-01	4.210526e+00	-2.982085e-01
9.448555e-01	4.210526e+00	-3.059908e-01
9.510565e-01	4.210526e+00	-3.090170e-01
9.510565e-01	5.263158e+00	-3.090170e-01
9.442611e-01	5.263158e+00	-3.078203e-01
9.267277e-01	5.263158e+00	-3.047010e-01
8.963175e-01	5.263158e+00	-2.991555e-01
8.562911e-01	5.263158e+00	-2.916579e-01
8.054250e-01	5.263158e+00	-2.817457e-01
7.470317e-01	5.263158e+00	-2.699633e-01
6.809074e-01	5.263158e+00	-2.559818e-01
6.100852e-01	5.263158e+00	-2.403847e-01
5.354138e-01	5.263158e+00	-2.229691e-01
4.593635e-01	5.263158e+00	-2.042585e-01
3.837764e-01	5.263158e+00	-1.841224e-01
3.103069e-01	5.263158e+00	-1.630077e-01
2.415927e-01	5.263158e+00	-1.409228e-01
1.782654e-01	5.263158e+00	-1.183331e-01
1.234349e-01	5.263158e+00	-9.558566e-02
7.662509e-02	5.263158e+00	-7.318920e-02
4.106998e-02	5.263158e+00	-5.193053e-02
1.528206e-02	5.263158e+00	-3.215886e-02
2.347037e-03	5.263158e+00	-1.488740e-02
0.000000e+00	5.263158e+00	0.000000e+00
1.064939e-02	5.263158e+00	1.066461e-02
3.126595e-02	5.263158e+00	1.703450e-02
6.375031e-02	5.263158e+00	1.787236e-02
1.050105e-01	5.263158e+00	1.417221e-02
1.560448e-01	5.263158e+00	4.777214e-03
2.137742e-01	5.263158e+00	-9.048270e-03
2.782849e-01	5.263158e+00	-2.799567e-02
3.468570e-01	5.263158e+00	-5.051783e-02
4.187060e-01	5.263158e+00	-7.662000e-02
4.916930e-01	5.263158e+00	-1.047585e-01
5.642168e-01	5.263158e+00	-1.343226e-01
6.348639e-01	5.263158e+00	-1.641238e-01
7.013280e-01	5.263158e+00	-1.931337e-01
7.630418e-01	5.263158e+00	-2.206893e-01
8.172084e-01	5.263158e+00	-2.454799e-01
8.641863e-01	5.263158e+00	-2.673591e-01
9.009752e-01	5.263158e+00	-2.848204e-01
9.288372e-01	5.263158e+00	-2.982085e-01
9.448555e-01	5.263158e+00	-3.059908e-01
9.510565e-01	5.263158e+00	-3.090170e-01
9.510565e-01	6.315789e+00	-3.090170e-01
9.442611e-01	6.315789e+00	-3.078203e-01
[...]
CELL_DATA 760
VECTORS V double
8.414230e-01	-6.903441e-02	-1.481715e-01
8.655438e-01	-6.886082e-02	-1.539856e-01
8.835585e-01	-6.841107e-02	-1.611253e-01
8.953241e-01	-6.761667e-02	-1.677079e-01
8.977886e-01	-6.645574e-02	-1.749510e-01
8.991007e-01	-6.491065e-02	-1.814173e-01
8.920624e-01	-6.297107e-02	-1.886200e-01
8.847514e-01	-6.061293e-02	-1.948480e-01
8.704167e-01	-5.780775e-02	-2.030075e-01
8.547761e-01	-5.452296e-02	-2.102995e-01
8.294705e-01	-5.073304e-02	-2.209682e-01
7.985479e-01	-4.642380e-02	-2.294978e-01
7.511978e-01	-4.162820e-02	-2.414362e-01
6.891721e-01	-3.639741e-02	-2.458371e-01
6.025198e-01	-3.076939e-02	-2.499664e-01
4.718404e-01	-2.486696e-02	-2.257552e-01
2.701266e-01	-1.869812e-02	-1.615107e-01
-1.745107e-02	-1.242891e-02	1.337979e-02
-4.218438e-01	-5.860789e-03	5.632660e-01
-3.427118e-01	7.201234e-04	2.173842e+00
2.327134e+00	8.433671e-03	2.330459e+00
2.541790e+00	1.519880e-02	7.853355e-01
2.210620e+00	2.214536e-02	5.701789e-02
1.925575e+00	2.899308e-02	-1.726824e-01
1.720221e+00	3.598296e-02	-3.166789e-01
1.570433e+00	4.294990e-02	-3.760993e-01
1.435576e+00	4.988825e-02	-4.216418e-01
1.336755e+00	5.661952e-02	-4.390506e-01
1.250654e+00	6.302554e-02	-4.543525e-01
1.181710e+00	6.890848e-02	-4.555818e-01
1.121879e+00	7.415282e-02	-4.573302e-01
1.071620e+00	7.862146e-02	-4.520437e-01
1.027479e+00	8.225217e-02	-4.484688e-01
9.872037e-01	8.503721e-02	-4.407930e-01
9.499818e-01	8.702796e-02	-4.347799e-01
9.115292e-01	8.832235e-02	-4.245309e-01
8.743617e-01	8.904866e-02	-4.150011e-01
8.341871e-01	8.935599e-02	-4.008421e-01
7.910584e-01	8.939995e-02	-3.843267e-01
7.483071e-01	8.935428e-02	-3.651810e-01
8.268573e-01	-4.834402e-02	-1.456065e-01
8.473452e-01	-4.821971e-02	-1.507479e-01
8.618077e-01	-4.790119e-02	-1.571588e-01
8.704939e-01	-4.733737e-02	-1.630569e-01
8.702452e-01	-4.650564e-02	-1.695836e-01
8.688610e-01	-4.538715e-02	-1.753156e-01
8.588619e-01	-4.397125e-02	-1.816000e-01
8.479923e-01	-4.224291e-02	-1.867526e-01
8.293219e-01	-4.018734e-02	-1.934229e-01
8.083334e-01	-3.778934e-02	-1.988733e-01
7.765451e-01	-3.501915e-02	-2.068690e-01
7.378846e-01	-3.192724e-02	-2.120635e-01
6.815793e-01	-2.849096e-02	-2.190607e-01
6.085260e-01	-2.476539e-02	-2.170695e-01
5.087242e-01	-2.077650e-02	-2.110536e-01
3.607206e-01	-1.660734e-02	-1.725892e-01
1.373092e-01	-1.225969e-02	-8.209816e-02
-1.815796e-01	-7.846974e-03	1.392176e-01
-6.032840e-01	-3.229330e-03	8.055337e-01
-4.198816e-01	1.390326e-03	2.663334e+00
2.682661e+00	6.790651e-03	2.686495e+00
2.844231e+00	1.150681e-02	8.787806e-01
2.433357e+00	1.632104e-02	6.276290e-02
2.097413e+00	2.103042e-02	-1.880925e-01
1.860546e+00	2.579367e-02	-3.425115e-01
1.689694e+00	3.049113e-02	-4.046610e-01
1.539102e+00	3.511700e-02	-4.520483e-01
1.427840e+00	3.955315e-02	-4.689669e-01
1.330744e+00	4.372774e-02	-4.834485e-01
1.251925e+00	4.753311e-02	-4.826515e-01
1.182686e+00	5.085894e-02	-4.821182e-01
1.123353e+00	5.367646e-02	-4.738662e-01
1.070405e+00	5.593593e-02	-4.672048e-01
1.021751e+00	5.764178e-02	-4.562186e-01
9.765977e-01	5.883524e-02	-4.469613e-01
9.307659e-01	5.958717e-02	-4.334901e-01
8.867530e-01	5.998594e-02	-4.208824e-01
8.402948e-01	6.013236e-02	-4.037770e-01
7.917016e-01	6.012874e-02	-3.846392e-01
7.448101e-01	6.008543e-02	-3.634744e-01
8.205613e-01	-2.041079e-02	-1.444978e-01
8.397196e-01	-2.035895e-02	-1.493913e-01
8.527022e-01	-2.022858e-02	-1.554984e-01
8.598605e-01	-1.999253e-02	-1.610651e-01
8.580694e-01	-1.963391e-02	-1.672110e-01
8.551023e-01	-1.913602e-02	-1.725395e-01
8.434784e-01	-1.848912e-02	-1.783473e-01
8.308741e-01	-1.768789e-02	-1.829826e-01
8.103139e-01	-1.670519e-02	-1.889897e-01
7.869218e-01	-1.558491e-02	-1.936054e-01
7.528524e-01	-1.431277e-02	-2.005574e-01
7.115552e-01	-1.290360e-02	-2.044966e-01
6.517312e-01	-1.134739e-02	-2.094675e-01
5.745712e-01	-9.680338e-03	-2.049574e-01
4.697801e-01	-7.912536e-03	-1.948969e-01
3.150253e-01	-6.076439e-03	-1.507259e-01
8.302079e-02	-4.168782e-03	-4.963875e-02
-2.483840e-01	-2.237482e-03	1.904367e-01
-6.768096e-01	-2.216859e-04	9.037085e-01
-4.509247e-01	1.786684e-03	2.860243e+00
2.823772e+00	4.115899e-03	2.827808e+00
2.961964e+00	6.123969e-03	9.151566e-01
2.517987e+00	8.137537e-03	6.494573e-02
2.160716e+00	1.006146e-02	-1.937694e-01
1.910371e+00	1.195199e-02	-3.516841e-01
1.730302e+00	1.375557e-02	-4.143859e-01
1.572798e+00	1.546759e-02	-4.619454e-01
1.456135e+00	1.704744e-02	-4.782604e-01
1.354660e+00	1.847761e-02	-4.921372e-01
1.271703e+00	1.974366e-02	-4.902764e-01
1.198800e+00	2.080893e-02	-4.886869e-01
1.136484e+00	2.166924e-02	-4.794055e-01
1.080553e+00	2.230626e-02	-4.716344e-01
1.029171e+00	2.277785e-02	-4.595317e-01
9.815353e-01	2.307991e-02	-4.492211e-01
9.334889e-01	2.324455e-02	-4.347583e-01
8.875244e-01	2.330702e-02	-4.212485e-01
8.394016e-01	2.330477e-02	-4.033478e-01
7.894763e-01	2.327431e-02	-3.835581e-01
7.416755e-01	2.324751e-02	-3.619447e-01
8.181575e-01	-1.021930e-02	-1.440745e-01
8.367426e-01	-1.019826e-02	-1.488617e-01
8.489698e-01	-1.014197e-02	-1.548177e-01
8.553556e-01	-1.003615e-02	-1.602212e-01
8.527763e-01	-9.870967e-03	-1.661795e-01
8.489703e-01	-9.623071e-03	-1.713022e-01
8.364780e-01	-9.310386e-03	-1.768671e-01
8.225795e-01	-8.912921e-03	-1.811559e-01
8.009474e-01	-8.439591e-03	-1.868052e-01
7.769241e-01	-7.875707e-03	-1.911457e-01
7.414993e-01	-7.236322e-03	-1.975329e-01
6.983663e-01	-6.498757e-03	-2.007062e-01
6.368048e-01	-5.693252e-03	-2.046701e-01
5.574883e-01	-4.817076e-03	-1.988637e-01
4.500733e-01	-3.882280e-03	-1.867212e-01
2.917778e-01	-2.906295e-03	-1.396030e-01
5.530370e-02	-1.892454e-03	-3.306650e-02
-2.825394e-01	-8.588311e-04	2.166238e-01
-7.144050e-01	2.213020e-04	9.539078e-01
-4.667591e-01	1.281432e-03	2.960682e+00
2.895345e+00	2.540056e-03	2.899482e+00
3.021213e+00	3.603721e-03	9.334627e-01
2.560196e+00	4.662800e-03	6.603443e-02
2.191941e+00	5.665852e-03	-1.965696e-01
1.934684e+00	6.645432e-03	-3.561599e-01
1.749906e+00	7.565508e-03	-4.190808e-01
1.588903e+00	8.429905e-03	-4.666754e-01
1.469545e+00	9.226953e-03	-4.826649e-01
1.365875e+00	9.935672e-03	-4.962112e-01
1.281342e+00	1.055477e-02	-4.939926e-01
1.206800e+00	1.109330e-02	-4.919479e-01
1.142497e+00	1.152468e-02	-4.819419e-01
1.085247e+00	1.186280e-02	-4.736833e-01
1.032972e+00	1.210098e-02	-4.612291e-01
9.842007e-01	1.226109e-02	-4.504410e-01
9.351557e-01	1.234208e-02	-4.355345e-01
8.883138e-01	1.238605e-02	-4.216232e-01
8.394629e-01	1.239626e-02	-4.033772e-01
7.889776e-01	1.238943e-02	-3.833158e-01
7.407061e-01	1.238076e-02	-3.614716e-01
8.170300e-01	-5.651545e-03	-1.438760e-01
8.351878e-01	-5.640427e-03	-1.485851e-01
8.470051e-01	-5.608927e-03	-1.544594e-01
8.529507e-01	-5.549560e-03	-1.597708e-01
8.496155e-01	-5.453385e-03	-1.655636e-01
8.453715e-01	-5.313110e-03	-1.705760e-01
8.324947e-01	-5.141779e-03	-1.760249e-01
8.184750e-01	-4.922110e-03	-1.802520e-01
7.963135e-01	-4.657219e-03	-1.857244e-01
7.711245e-01	-4.321456e-03	-1.897188e-01
7.348573e-01	-3.930577e-03	-1.957635e-01
6.909891e-01	-3.494291e-03	-1.985860e-01
6.283765e-01	-3.022804e-03	-2.019612e-01
5.476663e-01	-2.602485e-03	-1.953600e-01
4.386887e-01	-2.059205e-03	-1.819981e-01
2.783815e-01	-1.451654e-03	-1.331935e-01
3.930194e-02	-8.422774e-04	-2.349892e-02
-3.024449e-01	-2.227345e-04	2.318854e-01
-7.360002e-01	4.250183e-04	9.827427e-01
-4.759323e-01	1.069631e-03	3.018867e+00
2.937448e+00	1.812809e-03	2.941645e+00
3.055313e+00	2.447524e-03	9.439987e-01
2.584367e+00	3.075884e-03	6.665786e-02
2.209831e+00	3.666615e-03	-1.981740e-01
1.948470e+00	4.236186e-03	-3.586978e-01
1.760854e+00	4.759417e-03	-4.217028e-01
1.597933e+00	5.245109e-03	-4.693277e-01
1.476992e+00	5.788919e-03	-4.851109e-01
1.371959e+00	6.193216e-03	-4.984217e-01
1.286311e+00	6.531608e-03	-4.959084e-01
1.210946e+00	6.812503e-03	-4.936382e-01
1.146317e+00	7.041936e-03	-4.835535e-01
1.088275e+00	7.239420e-03	-4.750048e-01
1.034942e+00	7.381842e-03	-4.621083e-01
9.854716e-01	7.479968e-03	-4.510226e-01
9.358715e-01	7.528435e-03	-4.358679e-01
8.888576e-01	7.551768e-03	-4.218813e-01
8.396030e-01	7.558191e-03	-4.034446e-01
7.887824e-01	7.554347e-03	-3.832209e-01
7.403484e-01	7.550089e-03	-3.612971e-01
8.162916e-01	-3.262792e-03	-1.437460e-01
8.342291e-01	-3.269772e-03	-1.484145e-01
8.457757e-01	-3.250522e-03	-1.542352e-01
8.513811e-01	-3.214067e-03	-1.594767e-01
8.479433e-01	-3.152415e-03	-1.652377e-01
8.435669e-01	-3.099877e-03	-1.702119e-01
8.304293e-01	-2.982814e-03	-1.755881e-01
8.156786e-01	-2.839006e-03	-1.796361e-01
7.928350e-01	-2.654886e-03	-1.849131e-01
7.673837e-01	-2.422632e-03	-1.887985e-01
7.306882e-01	-2.183333e-03	-1.946529e-01
6.862662e-01	-1.957695e-03	-1.972287e-01
6.243802e-01	-1.643660e-03	-2.006768e-01
5.432385e-01	-1.425561e-03	-1.937806e-01
4.313890e-01	-1.061129e-03	-1.789696e-01
2.693327e-01	-6.834907e-04	-1.288640e-01
2.905873e-02	-2.878161e-04	-1.737443e-02
-3.149502e-01	1.070232e-04	2.414732e-01
-7.500959e-01	5.186751e-04	1.001564e+00
-4.817652e-01	9.424796e-04	3.055866e+00
2.962855e+00	1.397043e-03	2.967089e+00
3.076725e+00	1.799228e-03	9.506142e-01
2.599416e+00	2.195487e-03	6.704601e-02
2.220663e+00	2.565675e-03	-1.991454e-01
1.956580e+00	2.915735e-03	-3.601907e-01
1.767173e+00	3.242318e-03	-4.232161e-01
1.604551e+00	3.655934e-03	-4.712713e-01
1.482641e+00	3.905624e-03	-4.869660e-01
1.375546e+00	4.155957e-03	-4.997248e-01
1.289156e+00	4.374727e-03	-4.970051e-01
1.213190e+00	4.539738e-03	-4.945529e-01
1.147948e+00	4.645379e-03	-4.842412e-01
1.089800e+00	4.739904e-03	-4.756704e-01
1.036456e+00	4.814813e-03	-4.627843e-01
9.865957e-01	4.860813e-03	-4.515371e-01
9.365312e-01	4.922318e-03	-4.361751e-01
8.890414e-01	4.931399e-03	-4.219685e-01
8.396009e-01	4.933236e-03	-4.034435e-01
7.886064e-01	4.929899e-03	-3.831354e-01
7.400539e-01	4.940793e-03	-3.611534e-01
8.182014e-01	-2.030585e-03	-1.440823e-01
8.341246e-01	-2.026558e-03	-1.483959e-01
8.450462e-01	-2.016393e-03	-1.541022e-01
8.504375e-01	-1.997821e-03	-1.593000e-01
8.473379e-01	-1.967741e-03	-1.651197e-01
8.423763e-01	-2.011754e-03	-1.699717e-01
8.284632e-01	-1.889598e-03	-1.751724e-01
8.138004e-01	-1.784872e-03	-1.792225e-01
7.906902e-01	-1.685971e-03	-1.844129e-01
7.649351e-01	-1.544995e-03	-1.881960e-01
7.287775e-01	-1.389293e-03	-1.941439e-01
6.838136e-01	-1.219829e-03	-1.965238e-01
6.209338e-01	-1.021827e-03	-1.995691e-01
5.391035e-01	-7.437894e-04	-1.923056e-01
4.266112e-01	-5.080364e-04	-1.769875e-01
2.641459e-01	-3.001846e-04	-1.263824e-01
2.240130e-02	-5.621217e-05	-1.339390e-02
-3.230754e-01	1.665910e-04	2.477029e-01
-7.589927e-01	4.281069e-04	1.013443e+00
-4.854908e-01	6.872457e-04	3.079498e+00
2.979556e+00	9.844673e-04	2.983814e+00
3.090388e+00	1.235636e-03	9.548356e-01
2.609012e+00	1.507850e-03	6.729352e-02
2.227640e+00	1.737200e-03	-1.997710e-01
1.962037e+00	1.957597e-03	-3.611953e-01
1.773649e+00	2.171260e-03	-4.247670e-01
1.607867e+00	2.397672e-03	-4.722455e-01
1.483932e+00	2.470016e-03	-4.873901e-01
1.378071e+00	2.613805e-03	-5.006420e-01
1.291152e+00	2.749413e-03	-4.977747e-01
1.214337e+00	2.861624e-03	-4.950206e-01
1.148872e+00	2.951534e-03	-4.846312e-01
1.090541e+00	3.049650e-03	-4.759939e-01
1.036697e+00	3.114771e-03	-4.628921e-01
9.871731e-01	3.235251e-03	-4.518014e-01
9.372713e-01	3.226666e-03	-4.365198e-01
8.891275e-01	3.220672e-03	-4.220094e-01
8.395873e-01	3.217700e-03	-4.034370e-01
7.889177e-01	3.214449e-03	-3.832867e-01
7.420168e-01	3.212162e-03	-3.621113e-01
8.156158e-01	-1.151450e-03	-1.436270e-01
8.334028e-01	-1.134567e-03	-1.482675e-01
8.447681e-01	-1.126139e-03	-1.540515e-01
8.501379e-01	-1.135197e-03	-1.592439e-01
8.483609e-01	-1.115049e-03	-1.653191e-01
8.420316e-01	-1.063579e-03	-1.699021e-01
8.269534e-01	-1.022225e-03	-1.748532e-01
8.127897e-01	-9.934684e-04	-1.789999e-01
7.895917e-01	-1.000189e-03	-1.841567e-01
7.634890e-01	-9.196591e-04	-1.878403e-01
7.264379e-01	-8.161586e-04	-1.935206e-01
6.813719e-01	-6.606137e-04	-1.958221e-01
6.177958e-01	-5.801078e-04	-1.985606e-01
5.355629e-01	-3.449870e-04	-1.910426e-01
4.241315e-01	-2.542700e-04	-1.759587e-01
2.610569e-01	-1.254704e-04	-1.249044e-01
1.902801e-02	1.250598e-05	-1.137699e-02
-3.272214e-01	1.552795e-04	2.508816e-01
-7.644810e-01	3.054878e-04	1.020772e+00
-4.877839e-01	4.551635e-04	3.094043e+00
2.989698e+00	6.274300e-04	2.993971e+00
3.099941e+00	7.737800e-04	9.577872e-01
2.615410e+00	9.176442e-04	6.745853e-02
2.231794e+00	1.051978e-03	-2.001436e-01
1.965297e+00	1.180203e-03	-3.617955e-01
1.774737e+00	1.300500e-03	-4.250276e-01
1.608966e+00	1.327617e-03	-4.725682e-01
1.485672e+00	1.438498e-03	-4.879616e-01
1.379189e+00	1.545567e-03	-5.010482e-01
1.292282e+00	1.605992e-03	-4.982105e-01
1.215721e+00	1.674148e-03	-4.955847e-01
1.150343e+00	1.819676e-03	-4.852516e-01
1.091989e+00	1.840306e-03	-4.766259e-01
1.039081e+00	1.882077e-03	-4.639565e-01
9.885201e-01	1.893898e-03	-4.524178e-01
9.362562e-01	1.879048e-03	-4.360471e-01
8.888282e-01	1.882017e-03	-4.218673e-01
8.394131e-01	1.903717e-03	-4.033533e-01
7.883336e-01	1.900520e-03	-3.830029e-01
7.397036e-01	1.884919e-03	-3.609824e-01
8.153682e-01	-1.383948e-03	-1.435833e-01
8.329747e-01	-1.384012e-03	-1.481913e-01
8.451777e-01	-1.384682e-03	-1.541262e-01
8.500701e-01	-1.366788e-03	-1.592312e-01
8.458407e-01	-1.325064e-03	-1.648280e-01
8.407888e-01	-1.247236e-03	-1.696513e-01
8.273945e-01	-1.150125e-03	-1.749464e-01
8.135034e-01	-1.212540e-03	-1.791571e-01
7.896731e-01	-9.921590e-04	-1.841757e-01
7.625183e-01	-1.040293e-03	-1.876014e-01
7.253947e-01	-6.822688e-04	-1.932427e-01
6.806447e-01	-7.687106e-04	-1.956131e-01
6.166133e-01	-3.317626e-04	-1.981805e-01
5.341512e-01	-3.939406e-04	-1.905390e-01
4.230743e-01	6.689606e-05	-1.755202e-01
2.592398e-01	4.081263e-04	-1.240350e-01
1.641172e-02	6.052419e-04	-9.812688e-03
-3.305646e-01	6.547551e-04	2.534448e-01
-7.672734e-01	7.029107e-04	1.024500e+00
-4.889725e-01	7.643034e-04	3.101582e+00
2.995159e+00	8.460409e-04	2.999439e+00
3.103133e+00	9.257734e-04	9.587736e-01
2.617957e+00	9.930569e-04	6.752424e-02
2.234135e+00	1.106011e-03	-2.003536e-01
1.967021e+00	1.041983e-03	-3.621128e-01
1.776075e+00	8.606096e-04	-4.253480e-01
1.610021e+00	4.817222e-04	-4.728779e-01
1.486955e+00	6.445199e-04	-4.883829e-01
1.380244e+00	3.289174e-04	-5.014313e-01
1.292776e+00	4.600673e-04	-4.984008e-01
1.217007e+00	1.665584e-04	-4.961088e-01
1.151021e+00	3.183061e-04	-4.855376e-01
1.091364e+00	6.001544e-05	-4.763530e-01
1.037487e+00	1.163482e-04	-4.632448e-01
9.871529e-01	-1.010728e-04	-4.517921e-01
9.370202e-01	-4.320824e-05	-4.364029e-01
8.896355e-01	-5.770610e-05	-4.222505e-01
8.402946e-01	-6.377844e-05	-4.037769e-01
7.882308e-01	-5.875343e-05	-3.829530e-01
7.396277e-01	-5.768422e-05	-3.609453e-01
8.156264e-01	-2.043464e-04	-1.436288e-01
8.334504e-01	-2.324700e-04	-1.482760e-01
8.440786e-01	-1.779990e-04	-1.539258e-01
8.485838e-01	-1.251680e-04	-1.589528e-01
8.458916e-01	-1.025369e-04	-1.648379e-01
8.389960e-01	-8.232265e-05	-1.692896e-01
8.265387e-01	-6.540904e-05	-1.747655e-01
8.104205e-01	-4.878306e-05	-1.784781e-01
7.873395e-01	7.203839e-06	-1.836314e-01
7.593955e-01	6.883567e-06	-1.868331e-01
7.228521e-01	8.274165e-06	-1.925654e-01
6.768359e-01	-1.659619e-05	-1.945185e-01
6.123623e-01	-3.629641e-05	-1.968142e-01
5.300071e-01	-2.609225e-05	-1.890608e-01
4.109367e-01	1.161967e-05	-1.704846e-01
2.508917e-01	-1.545026e-05	-1.200408e-01
1.338912e-02	-7.077397e-06	-8.005455e-03
-3.297338e-01	6.339034e-08	2.528079e-01
-7.674301e-01	5.767311e-06	1.024709e+00
-4.893120e-01	1.034546e-05	3.103736e+00
2.997703e+00	1.497901e-05	3.001987e+00
3.106297e+00	1.871852e-05	9.597510e-01
2.621474e+00	2.232417e-05	6.761495e-02
2.232497e+00	2.534473e-05	-2.002067e-01
1.960154e+00	6.366188e-05	-3.608486e-01
1.764907e+00	6.650205e-05	-4.226734e-01
1.606088e+00	4.048847e-05	-4.717227e-01
1.483339e+00	1.017633e-04	-4.871954e-01
1.376899e+00	9.934629e-05	-5.002164e-01
1.290200e+00	9.932974e-05	-4.974079e-01
1.213919e+00	1.043173e-04	-4.948502e-01
1.149084e+00	7.558223e-05	-4.847206e-01
1.089166e+00	9.641241e-05	-4.753937e-01
1.036959e+00	1.155124e-04	-4.630092e-01
9.856797e-01	1.395172e-04	-4.511179e-01
9.371851e-01	1.651836e-04	-4.364797e-01
8.883347e-01	1.951269e-04	-4.216331e-01
8.393170e-01	2.063732e-04	-4.033071e-01
7.886778e-01	2.849194e-04	-3.831701e-01
7.398673e-01	2.743698e-04	-3.610623e-01
8.200880e-01	1.463369e-03	-1.444145e-01
8.302535e-01	1.463743e-03	-1.477072e-01
8.416242e-01	1.465468e-03	-1.534782e-01
8.482937e-01	1.450170e-03	-1.588984e-01
8.449843e-01	1.412100e-03	-1.646611e-01
8.401530e-01	1.426042e-03	-1.695230e-01
8.268789e-01	1.288211e-03	-1.748374e-01
8.124547e-01	1.350936e-03	-1.789261e-01
7.889375e-01	1.109818e-03	-1.840041e-01
7.625041e-01	1.134803e-03	-1.875980e-01
7.256996e-01	7.858084e-04	-1.933240e-01
6.812407e-01	7.987963e-04	-1.957844e-01
6.167587e-01	3.676289e-04	-1.982272e-01
5.334580e-01	4.579618e-04	-1.902917e-01
4.228328e-01	-3.725176e-05	-1.754200e-01
2.596423e-01	-3.782953e-04	-1.242276e-01
1.607703e-02	-5.760626e-04	-9.612573e-03
-3.309002e-01	-6.017439e-04	2.537021e-01
-7.675636e-01	-6.533876e-04	1.024888e+00
-4.890732e-01	-7.475789e-04	3.102221e+00
2.995567e+00	-8.348727e-04	2.999848e+00
3.103455e+00	-8.906511e-04	9.588731e-01
2.618169e+00	-9.884713e-04	6.752969e-02
2.235262e+00	-1.104312e-03	-2.004546e-01
1.967786e+00	-1.044204e-03	-3.622536e-01
1.775645e+00	-8.342835e-04	-4.252452e-01
1.610619e+00	-4.910146e-04	-4.730536e-01
1.487743e+00	-6.607767e-04	-4.886419e-01
1.380212e+00	-3.563741e-04	-5.014200e-01
1.292839e+00	-4.210954e-04	-4.984251e-01
1.216712e+00	-1.427472e-04	-4.959885e-01
1.150908e+00	-2.443422e-04	-4.854900e-01
1.091897e+00	-2.890571e-05	-4.765855e-01
1.038102e+00	-1.263732e-04	-4.635195e-01
9.879449e-01	-1.496758e-05	-4.521546e-01
9.380449e-01	-4.708054e-05	-4.368801e-01
8.906289e-01	-2.036540e-05	-4.227220e-01
8.426371e-01	-1.120229e-05	-4.049025e-01
7.927566e-01	-1.546661e-05	-3.851518e-01
7.380121e-01	-1.646192e-05	-3.601569e-01
8.155636e-01	1.519759e-03	-1.436178e-01
8.333208e-01	1.545040e-03	-1.482529e-01
8.446370e-01	1.481915e-03	-1.540276e-01
8.499795e-01	1.445114e-03	-1.592142e-01
8.462798e-01	1.309143e-03	-1.649135e-01
8.413030e-01	1.263911e-03	-1.697551e-01
8.275442e-01	1.205115e-03	-1.749781e-01
8.130892e-01	1.130361e-03	-1.790659e-01
7.901837e-01	1.084647e-03	-1.842947e-01
7.636722e-01	9.871688e-04	-1.878853e-01
7.272738e-01	8.817691e-04	-1.937433e-01
6.822958e-01	7.963058e-04	-1.960876e-01
6.173339e-01	7.020301e-04	-1.984121e-01
5.356105e-01	5.402777e-04	-1.910596e-01
4.247249e-01	3.938762e-04	-1.762049e-01
2.610641e-01	2.757968e-04	-1.249079e-01
1.859333e-02	1.166109e-04	-1.111709e-02
-3.278561e-01	-4.414099e-05	2.513682e-01
-7.636450e-01	-2.104928e-04	1.019655e+00
-4.873116e-01	-3.748990e-04	3.091047e+00
2.990870e+00	-5.636299e-04	2.995144e+00
3.099161e+00	-7.241181e-04	9.575461e-01
2.614473e+00	-8.822551e-04	6.743436e-02
2.231622e+00	-1.029934e-03	-2.001282e-01
1.965850e+00	-1.206268e-03	-3.618973e-01
1.774544e+00	-1.336643e-03	-4.249815e-01
1.608342e+00	-1.458858e-03	-4.723848e-01
1.485418e+00	-1.604176e-03	-4.878782e-01
1.379930e+00	-1.704996e-03	-5.013173e-01
1.292924e+00	-1.787348e-03	-4.984577e-01
1.216155e+00	-1.860552e-03	-4.957616e-01
1.150458e+00	-1.959991e-03	-4.853003e-01
1.090869e+00	-2.008723e-03	-4.761371e-01
1.037014e+00	-2.044854e-03	-4.630337e-01
9.870983e-01	-2.086314e-03	-4.517671e-01
9.369840e-01	-2.130177e-03	-4.363860e-01
8.892037e-01	-2.075426e-03	-4.220455e-01
8.395438e-01	-2.118958e-03	-4.034161e-01
7.883830e-01	-2.195877e-03	-3.830269e-01
7.397149e-01	-2.184264e-03	-3.609879e-01
8.158451e-01	2.165804e-03	-1.436673e-01
8.336580e-01	2.161322e-03	-1.483129e-01
8.447766e-01	2.154333e-03	-1.540530e-01
8.528926e-01	2.054453e-03	-1.597599e-01
8.484568e-01	2.021126e-03	-1.653378e-01
8.419605e-01	1.982886e-03	-1.698877e-01
8.289445e-01	1.901398e-03	-1.752742e-01
8.141524e-01	1.804030e-03	-1.793000e-01
7.908804e-01	1.676676e-03	-1.844572e-01
7.651673e-01	1.558405e-03	-1.882532e-01
7.281966e-01	1.390009e-03	-1.939891e-01
6.836360e-01	1.285923e-03	-1.964728e-01
6.202891e-01	1.062538e-03	-1.993619e-01
5.380544e-01	8.513045e-04	-1.919313e-01