# vtk DataFile Version 2.0
OUTPUT by 3D-VPM
ASCII
DATASET UNSTRUCTURED_GRID
POINTS 820 double
9.510565e-01	0.000000e+00	-3.090170e-01
9.442611e-01	0.000000e+00	-3.078203e-01
9.267277e-01	0.000000e+00	-3.047010e-01
8.963175e-01	0.000000e+00	-2.991555e-01
8.562911e-01	0.000000e+00	-2.916579e-01
8.054250e-01	0.000000e+00	-2.817457e-01
7.470317e-01	0.000000e+00	-2.699633e-01
6.809074e-01	0.000000e+00	-2.559818e-01
6.100852e-01	0.000000e+00	-2.403847e-01
5.354138e-01	0.000000e+00	-2.229691e-01
4.593635e-01	0.000000e+00	-2.042585e-01
3.837764e-01	0.000000e+00	-1.841224e-01
3.103069e-01	0.000000e+00	-1.630077e-01
2.415927e-01	0.000000e+00	-1.409228e-01
1.782654e-01	0.000000e+00	-1.183331e-01
1.234349e-01	0.000000e+00	-9.558566e-02
7.662509e-02	0.000000e+00	-7.318920e-02
4.106998e-02	0.000000e+00	-5.193053e-02
1.528206e-02	0.000000e+00	-3.215886e-02
2.347037e-03	0.000000e+00	-1.488740e-02
0.000000e+00	0.000000e+00	0.000000e+00
1.064939e-02	0.000000e+00	1.066461e-02
3.126595e-02	0.000000e+00	1.703450e-02
6.375031e-02	0.000000e+00	1.787236e-02
1.050105e-01	0.000000e+00	1.417221e-02
1.560448e-01	0.000000e+00	4.777214e-03
2.137742e-01	0.000000e+00	-9.048270e-03
2.782849e-01	0.000000e+00	-2.799567e-02
3.468570e-01	0.000000e+00	-5.051783e-02
4.187060e-01	0.000000e+00	-7.662000e-02
4.916930e-01	0.000000e+00	-1.047585e-01
5.642168e-01	0.000000e+00	-1.343226e-01
6.348639e-01	0.000000e+00	-1.641238e-01
7.013280e-01	0.000000e+00	-1.931337e-01
7.630418e-01	0.000000e+00	-2.206893e-01
8.172084e-01	0.000000e+00	-2.454799e-01
8.641863e-01	0.000000e+00	-2.673591e-01
9.009752e-01	0.000000e+00	-2.848204e-01
9.288372e-01	0.000000e+00	-2.982085e-01
9.448555e-01	0.000000e+00	-3.059908e-01
9.510565e-01	0.000000e+00	-3.090170e-01
9.510565e-01	1.052632e+00	-3.090170e-01
9.442611e-01	1.052632e+00	-3.078203e-01
9.267277e-01	1.052632e+00	-3.047010e-01
8.963175e-01	1.052632e+00	-2.991555e-01
8.562911e-01	1.052632e+00	-2.916579e-01
8.054250e-01	1.052632e+00	-2.817457e-01
7.470317e-01	1.052632e+00	-2.699633e-01
6.809074e-01	1.052632e+00	-2.559818e-01
6.100852e-01	1.052632e+00	-2.403847e-01
5.354138e-01	1.052632e+00	-2.229691e-01
4.593635e-01	1.052632e+00	-2.042585e-01
3.837764e-01	1.052632e+00	-1.841224e-01
3.103069e-01	1.052632e+00	-1.630077e-01
2.415927e-01	1.052632e+00	-1.409228e-01
1.782654e-01	1.052632e+00	-1.183331e-01
1.234349e-01	1.052632e+00	-9.558566e-02
7.662509e-02	1.052632e+00	-7.318920e-02
4.106998e-02	1.052632e+00	-5.193053e-02
1.528206e-02	1.052632e+00	-3.215886e-02
2.347037e-03	1.052632e+00	-1.488740e-02
0.000000e+00	1.052632e+00	0.000000e+00
1.064939e-02	1.052632e+00	1.066461e-02
3.126595e-02	1.052632e+00	1.703450e-02
6.375031e-02	1.052632e+00	1.787236e-02
1.050105e-01	1.052632e+00	1.417221e-02
1.560448e-01	1.052632e+00	4.777214e-03
2.137742e-01	1.052632e+00	-9.048270e-03
2.782849e-01	1.052632e+00	-2.799567e-02
3.468570e-01	1.052632e+00	-5.051783e-02
4.187060e-01	1.052632e+00	-7.662000e-02
4.916930e-01	1.052632e+00	-1.047585e-01
5.642168e-01	1.052632e+00	-1.343226e-01
6.348639e-01	1.052632e+00	-1.641238e-01
7.013280e-01	1.052632e+00	-1.931337e-01
7.630418e-01	1.052632e+00	-2.206893e-01
8.172084e-01	1.052632e+00	-2.454799e-01
8.641863e-01	1.052632e+00	-2.673591e-01
9.009752e-01	1.052632e+00	-2.848204e-01
9.288372e-01	1.052632e+00	-2.982085e-01
9.448555e-01	1.052632e+00	-3.059908e-01
9.510565e-01	1.052632e+00	-3.090170e-01
9.510565e-01	2.105263e+00	-3.090170e-01
9.442611e-01	2.105263e+00	-3.078203e-01
9.267277e-01	2.105263e+00	-3.047010e-01
8.963175e-01	2.105263e+00	-2.991555e-01
8.562911e-01	2.105263e+00	-2.916579e-01
8.054250e-01	2.105263e+00	-2.817457e-01
7.470317e-01	2.105263e+00	-2.699633e-01
6.809074e-01	2.105263e+00	-2.559818e-01
6.100852e-01	2.105263e+00	-2.403847e-01
5.354138e-01	2.105263e+00	-2.229691e-01
4.593635e-01	2.105263e+00	-2.042585e-01
3.837764e-01	2.105263e+00	-1.841224e-01
3.103069e-01	2.105263e+00	-1.630077e-01
2.415927e-01	2.105263e+00	-1.409228e-01
1.782654e-01	2.105263e+00	-1.183331e-01
1.234349e-01	2.105263e+00	-9.558566e-02
7.662509e-02	2.105263e+00	-7.318920e-02
4.106998e-02	2.105263e+00	-5.193053e-02
1.528206e-02	2.105263e+00	-3.215886e-02
2.347037e-03	2.105263e+00	-1.488740e-02
0.000000e+00	2.105263e+00	0.000000e+00
1.064939e-02	2.105263e+00	1.066461e-02
3.126595e-02	2.105263e+00	1.703450e-02
6.375031e-02	2.105263e+00	1.787236e-02
1.050105e-01	2.105263e+00	1.417221e-02
1.560448e-01	2.105263e+00	4.777214e-03
2.137742e-01	2.105263e+00	-9.048270e-03
2.782849e-01	2.105263e+00	-2.799567e-02
3.468570e-01	2.105263e+00	-5.051783e-02
4.187060e-01	2.105263e+00	-7.662000e-02
4.916930e-01	2.105263e+00	-1.047585e-01
5.642168e-01	2.105263e+00	-1.343226e-01
6.348639e-01	2.105263e+00	-1.641238e-01
7.013280e-01	2.105263e+00	-1.931337e-01
7.630418e-01	2.105263e+00	-2.206893e-01
8.172084e-01	2.105263e+00	-2.454799e-01
8.641863e-01	2.105263e+00	-2.673591e-01
9.009752e-01	2.105263e+00	-2.848204e-01
9.288372e-01	2.105263e+00	-2.982085e-01
9.448555e-01	2.105263e+00	-3.059908e-01
9.510565e-01	2.105263e+00	-3.090170e-01
9.510565e-01	3.157895e+00	-3.090170e-01
9.442611e-01	3.157895e+00	-3.078203e-01
9.267277e-01	3.157895e+00	-3.047010e-01
8.963175e-01	3.157895e+00	-2.991555e-01
8.562911e-01	3.157895e+00	-2.916579e-01
8.054250e-01	3.157895e+00	-2.817457e-01
7.470317e-01	3.157895e+00	-2.699633e-01
6.809074e-01	3.157895e+00	-2.559818e-01
6.100852e-01	3.157895e+00	-2.403847e-01
5.354138e-01	3.157895e+00	-2.229691e-01
4.593635e-01	3.157895e+00	-2.042585e-01
3.837764e-01	3.157895e+00	-1.841224e-01
3.103069e-01	3.157895e+00	-1.630077e-01
2.415927e-01	3.157895e+00	-1.409228e-01
1.782654e-01	3.157895e+00	-1.183331e-01
1.234349e-01	3.157895e+00	-9.558566e-02
7.662509e-02	3.157895e+00	-7.318920e-02
4.106998e-02	3.157895e+00	-5.193053e-02
1.528206e-02	3.157895e+00	-3.215886e-02
2.347037e-03	3.157895e+00	-1.488740e-02
0.000000e+00	3.157895e+00	0.000000e+00
1.064939e-02	3.157895e+00	1.066461e-02
3.126595e-02	3.157895e+00	1.703450e-02
6.375031e-02	3.157895e+00	1.787236e-02
1.050105e-01	3.157895e+00	1.417221e-02
1.560448e-01	3.157895e+00	4.777214e-03
2.137742e-01	3.157895e+00	-9.048270e-03
2.782849e-01	3.157895e+00	-2.799567e-02
3.468570e-01	3.157895e+00	-5.051783e-02
4.187060e-01	3.157895e+00	-7.662000e-02
4.916930e-01	3.157895e+00	-1.047585e-01
5.642168e-01	3.157895e+00	-1.343226e-01
6.348639e-01	3.157895e+00	-1.641238e-01
7.013280e-01	3.157895e+00	-1.931337e-01
7.630418e-01	3.157895e+00	-2.206893e-01
8.172084e-01	3.157895e+00	-2.454799e-01
8.641863e-01	3.157895e+00	-2.673591e-01
9.009752e-01	3.157895e+00	-2.848204e-01
9.288372e-01	3.157895e+00	-2.982085e-01
9.448555e-01	3.157895e+00	-3.059908e-01
9.510565e-01	3.157895e+00	-3.090170e-01
9.510565e-01	4.210526e+00	-3.090170e-01
9.442611e-01	4.210526e+00	-3.078203e-01
9.267277e-01	4.210526e+00	-3.047010e-01
8.963175e-01	4.210526e+00	-2.991555e-01
8.562911e-01	4.210526e+00	-2.916579e-01
8.054250e-01	4.210526e+00	-2.817457e-01
7.470317e-01	4.210526e+00	-2.699633e-01
6.809074e-01	4.210526e+00	-2.559818e-01
6.100852e-01	4.210526e+00	-2.403847e-01
5.354138e-01	4.210526e+00	-2.229691e-01
4.593635e-01	4.210526e+00	-2.042585e-01
3.837764e-01	4.210526e+00	-1.841224e-01
3.103069e-01	4.210526e+00	-1.630077e-01
2.415927e-01	4.210526e+00	-1.409228e-01
1.782654e-01	4.210526e+00	-1.183331e-01
1.234349e-01	4.210526e+00	-9.558566e-02
7.662509e-02	4.210526e+00	-7.318920e-02
4.106998e-02	4.210526e+00	-5.193053e-02
1.528206e-02	4.210526e+00	-3.215886e-02
2.347037e-03	4.210526e+00	-1.488740e-02
0.000000e+00	4.210526e+00	0.000000e+00
1.064939e-02	4.210526e+00	1.066461e-02
3.126595e-02	4.210526e+00	1.703450e-02
6.375031e-02	4.210526e+00	1.787236e-02
1.050105e-01	4.210526e+00	1.417221e-02
1.560448e-01	4.210526e+00	4.777214e-03
2.137742e-01	4.210526e+00	-9.048270e-03
2.782849e-01	4.210526e+00	-2.799567e-02
3.468570e-01	4.210526e+00	-5.051783e-02
4.187060e-01	4.210526e+00	-7.662000e-02
4.916930e-01	4.210526e+00	-1.047585e-01
5.642168e-01	4.210526e+00	-1.343226e-01
6.348639e-01	4.210526e+00	-1.641238e-01
7.013280e-01	4.210526e+00	-1.931337e-01
7.630418e-01	4.210526e+00	-2.206893e-01
8.172084e-01	4.210526e+00	-2.454799e-01
8.641863e-01	4.210526e+00	-2.673591e-01
9.009752e-01	4.210526e+00	-2.848204e-01
9.288372e-01	4.210526e+00	-2.982085e-01
9.448555e-01	4.210526e+00	-3.059908e-01
9.510565e-01	4.210526e+00	-3.090170e-01
9.510565e-01	5.263158e+00	-3.090170e-01
9.442611e-01	5.263158e+00	-3.078203e-01
9.267277e-01	5.263158e+00	-3.047010e-01
8.963175e-01	5.263158e+00	-2.991555e-01
8.562911e-01	5.263158e+00	-2.916579e-01
8.054250e-01	5.263158e+00	-2.817457e-01
7.470317e-01	5.263158e+00	-2.699633e-01
6.809074e-01	5.263158e+00	-2.559818e-01
6.100852e-01	5.263158e+00	-2.403847e-01
5.354138e-01	5.263158e+00	-2.229691e-01
4.593635e-01	5.263158e+00	-2.042585e-01
3.837764e-01	5.263158e+00	-1.841224e-01
3.103069e-01	5.263158e+00	-1.630077e-01
2.415927e-01	5.263158e+00	-1.409228e-01
1.782654e-01	5.263158e+00	-1.183331e-01
1.234349e-01	5.263158e+00	-9.558566e-02
7.662509e-02	5.263158e+00	-7.318920e-02
4.106998e-02	5.263158e+00	-5.193053e-02
1.528206e-02	5.263158e+00	-3.215886e-02
2.347037e-03	5.263158e+00	-1.488740e-02
0.000000e+00	5.263158e+00	0.000000e+00
1.064939e-02	5.263158e+00	1.066461e-02
3.126595e-02	5.263158e+00	1.703450e-02
6.375031e-02	5.263158e+00	1.787236e-02
1.050105e-01	5.263158e+00	1.417221e-02
1.560448e-01	5.263158e+00	4.777214e-03
2.137742e-01	5.263158e+00	-9.048270e-03
2.782849e-01	5.263158e+00	-2.799567e-02
3.468570e-01	5.263158e+00	-5.051783e-02
4.187060e-01	5.263158e+00	-7.662000e-02
4.916930e-01	5.263158e+00	-1.047585e-01
5.642168e-01	5.263158e+00	-1.343226e-01
6.348639e-01	5.263158e+00	-1.641238e-01
7.013280e-01	5.263158e+00	-1.931337e-01
7.630418e-01	5.263158e+00	-2.206893e-01
8.172084e-01	5.263158e+00	-2.454799e-01
8.641863e-01	5.263158e+00	-2.673591e-01
9.009752e-01	5.263158e+00	-2.848204e-01
9.288372e-01	5.263158e+00	-2.982085e-01
9.448555e-01	5.263158e+00	-3.059908e-01
9.510565e-01	5.263158e+00	-3.090170e-01
9.510565e-01	6.315789e+00	-3.090170e-01
9.442611e-01	6.315789e+00	-3.078203e-01
[...]
CELL_DATA 760
VECTORS V double
8.414445e-01	-6.900598e-02	-1.481753e-01
8.655712e-01	-6.883245e-02	-1.539905e-01
8.835936e-01	-6.838285e-02	-1.611317e-01
8.953684e-01	-6.758874e-02	-1.677162e-01
8.978431e-01	-6.642824e-02	-1.749616e-01
8.991660e-01	-6.488372e-02	-1.814305e-01
8.921390e-01	-6.294490e-02	-1.886362e-01
8.848398e-01	-6.058778e-02	-1.948674e-01
8.705179e-01	-5.778396e-02	-2.030311e-01
8.548347e-01	-5.450085e-02	-2.103139e-01
8.296070e-01	-5.072169e-02	-2.210045e-01
7.987665e-01	-4.640588e-02	-2.295606e-01
7.513785e-01	-4.161284e-02	-2.414943e-01
6.893825e-01	-3.638500e-02	-2.459121e-01
6.027671e-01	-3.076032e-02	-2.500690e-01
4.721381e-01	-2.486145e-02	-2.258976e-01
2.704883e-01	-1.869634e-02	-1.617270e-01
-1.699809e-02	-1.243089e-02	1.303249e-02
-4.213399e-01	-5.866561e-03	5.625932e-01
-3.424993e-01	7.106630e-04	2.172494e+00
2.326184e+00	8.420055e-03	2.329508e+00
2.541020e+00	1.518169e-02	7.850977e-01
2.210086e+00	2.212480e-02	5.700414e-02
1.925194e+00	2.896928e-02	-1.726482e-01
1.719937e+00	3.595600e-02	-3.166266e-01
1.570214e+00	4.291992e-02	-3.760470e-01
1.435405e+00	4.985537e-02	-4.215916e-01
1.336618e+00	5.658393e-02	-4.390057e-01
1.250548e+00	6.298757e-02	-4.543140e-01
1.181637e+00	6.886805e-02	-4.555536e-01
1.121832e+00	7.410871e-02	-4.573111e-01
1.071587e+00	7.857366e-02	-4.520298e-01
1.027454e+00	8.220139e-02	-4.484581e-01
9.871867e-01	8.498405e-02	-4.407854e-01
9.499716e-01	8.697297e-02	-4.347753e-01
9.115251e-01	8.826603e-02	-4.245289e-01
8.743628e-01	8.899147e-02	-4.150016e-01
8.341924e-01	8.929831e-02	-4.008447e-01
7.910672e-01	8.934208e-02	-3.843310e-01
7.483182e-01	8.929636e-02	-3.651864e-01
8.268829e-01	-4.832786e-02	-1.456111e-01
8.473787e-01	-4.820360e-02	-1.507539e-01
8.618507e-01	-4.788522e-02	-1.571667e-01
8.705473e-01	-4.732166e-02	-1.630669e-01
8.703099e-01	-4.649027e-02	-1.695963e-01
8.689380e-01	-4.537226e-02	-1.753312e-01
8.589523e-01	-4.395696e-02	-1.816191e-01
8.480976e-01	-4.222940e-02	-1.867757e-01
8.294437e-01	-4.017481e-02	-1.934513e-01
8.084740e-01	-3.777801e-02	-1.989079e-01
7.767097e-01	-3.501384e-02	-2.069129e-01
7.380752e-01	-3.191889e-02	-2.121183e-01
6.817982e-01	-2.848436e-02	-2.191310e-01
6.087831e-01	-2.476078e-02	-2.171612e-01
5.090276e-01	-2.077410e-02	-2.111794e-01
3.610855e-01	-1.660730e-02	-1.727638e-01
1.377508e-01	-1.226212e-02	-8.236222e-02
-1.810298e-01	-7.851901e-03	1.387961e-01
-6.026765e-01	-3.236804e-03	8.047225e-01
-4.196267e-01	1.380361e-03	2.661717e+00
2.681524e+00	6.777856e-03	2.685356e+00
2.843309e+00	1.149162e-02	8.784956e-01
2.432716e+00	1.630348e-02	6.274637e-02
2.096953e+00	2.101061e-02	-1.880513e-01
1.860199e+00	2.577170e-02	-3.424478e-01
1.689425e+00	3.046709e-02	-4.045965e-01
1.538888e+00	3.509099e-02	-4.519857e-01
1.427668e+00	3.952532e-02	-4.689105e-01
1.330606e+00	4.369833e-02	-4.833985e-01
1.251813e+00	4.750214e-02	-4.826084e-01
1.182593e+00	5.082594e-02	-4.820803e-01
1.123277e+00	5.364141e-02	-4.738344e-01
1.070344e+00	5.589926e-02	-4.671784e-01
1.021703e+00	5.760386e-02	-4.561974e-01
9.765620e-01	5.879641e-02	-4.469449e-01
9.307411e-01	5.954770e-02	-4.334785e-01
8.867381e-01	5.994610e-02	-4.208753e-01
8.402889e-01	6.009233e-02	-4.037741e-01
7.917034e-01	6.008865e-02	-3.846401e-01
7.448177e-01	6.004535e-02	-3.634781e-01
8.205920e-01	-2.041035e-02	-1.445032e-01
8.397586e-01	-2.035918e-02	-1.493982e-01
8.527510e-01	-2.022828e-02	-1.555073e-01
8.599201e-01	-1.999246e-02	-1.610762e-01
8.581406e-01	-1.963420e-02	-1.672248e-01
8.551864e-01	-1.913657e-02	-1.725564e-01
8.435764e-01	-1.849013e-02	-1.783680e-01
8.309875e-01	-1.768946e-02	-1.830076e-01
8.104445e-01	-1.670755e-02	-1.890202e-01
7.870754e-01	-1.559387e-02	-1.936432e-01
7.530286e-01	-1.431621e-02	-2.006043e-01
7.117554e-01	-1.290730e-02	-2.045541e-01
6.519638e-01	-1.135162e-02	-2.095422e-01
5.748440e-01	-9.685194e-03	-2.050547e-01
4.701018e-01	-7.918111e-03	-1.950304e-01
3.154119e-01	-6.082796e-03	-1.509109e-01
8.348850e-02	-4.175980e-03	-4.991840e-02
-2.478018e-01	-2.245552e-03	1.899904e-01
-6.761663e-01	-2.306779e-04	9.028496e-01
-4.506546e-01	1.776766e-03	2.858530e+00
2.822567e+00	4.104904e-03	2.826600e+00
2.960985e+00	6.112049e-03	9.148540e-01
2.517305e+00	8.124701e-03	6.492814e-02
2.160225e+00	1.004777e-02	-1.937255e-01
1.910002e+00	1.193748e-02	-3.516161e-01
1.730014e+00	1.374033e-02	-4.143171e-01
1.572570e+00	1.545172e-02	-4.618784e-01
1.455952e+00	1.703108e-02	-4.782001e-01
1.354514e+00	1.846098e-02	-4.920839e-01
1.271584e+00	1.972697e-02	-4.902307e-01
1.198702e+00	2.079251e-02	-4.886470e-01
1.136404e+00	2.165203e-02	-4.793718e-01
1.080490e+00	2.228841e-02	-4.716069e-01
1.029123e+00	2.275961e-02	-4.595101e-01
9.815001e-01	2.306152e-02	-4.492050e-01
9.334656e-01	2.322612e-02	-4.347474e-01
8.875120e-01	2.328857e-02	-4.212426e-01
8.393990e-01	2.328637e-02	-4.033465e-01
7.894819e-01	2.325527e-02	-3.835608e-01
7.416869e-01	2.322914e-02	-3.619503e-01
8.182963e-01	-1.022202e-02	-1.440990e-01
8.367630e-01	-1.020099e-02	-1.488653e-01
8.490074e-01	-1.014473e-02	-1.548246e-01
8.554240e-01	-1.003898e-02	-1.602340e-01
8.528534e-01	-9.873877e-03	-1.661945e-01
8.490599e-01	-9.626173e-03	-1.713202e-01
8.365841e-01	-9.313620e-03	-1.768895e-01
8.227042e-01	-8.916304e-03	-1.811834e-01
8.011704e-01	-8.443136e-03	-1.868572e-01
7.770782e-01	-7.879296e-03	-1.911836e-01
7.415947e-01	-7.239726e-03	-1.975583e-01
6.985673e-01	-6.502065e-03	-2.007639e-01
6.370397e-01	-5.696582e-03	-2.047456e-01
5.577652e-01	-4.821221e-03	-1.989625e-01
4.504011e-01	-3.887369e-03	-1.868572e-01
2.921725e-01	-2.912136e-03	-1.397919e-01
5.578189e-02	-1.898789e-03	-3.335241e-02
-2.819438e-01	-8.652997e-04	2.161671e-01
-7.137466e-01	2.008353e-04	9.530285e-01
-4.664826e-01	1.276265e-03	2.958927e+00
2.894110e+00	2.518055e-03	2.898245e+00
3.020210e+00	3.595945e-03	9.331528e-01
2.559498e+00	4.653721e-03	6.601643e-02
2.191439e+00	5.655592e-03	-1.965247e-01
1.934307e+00	6.634113e-03	-3.560905e-01
1.749613e+00	7.553368e-03	-4.190108e-01
1.588673e+00	8.417068e-03	-4.666078e-01
1.469363e+00	9.206282e-03	-4.826050e-01
1.365733e+00	9.921874e-03	-4.961597e-01
1.281232e+00	1.054063e-02	-4.939504e-01
1.206700e+00	1.107900e-02	-4.919073e-01
1.142403e+00	1.151023e-02	-4.819024e-01
1.085173e+00	1.184832e-02	-4.736509e-01
1.032917e+00	1.208647e-02	-4.612042e-01
9.841618e-01	1.224654e-02	-4.504231e-01
9.351298e-01	1.232759e-02	-4.355224e-01
8.882995e-01	1.237154e-02	-4.216164e-01
8.394433e-01	1.238175e-02	-4.033678e-01
7.889610e-01	1.237493e-02	-3.833077e-01
7.408159e-01	1.236627e-02	-3.615252e-01
8.170626e-01	-5.656271e-03	-1.438817e-01
8.352294e-01	-5.644521e-03	-1.485925e-01
8.470571e-01	-5.613662e-03	-1.544689e-01
8.530139e-01	-5.554243e-03	-1.597826e-01
8.496925e-01	-5.457963e-03	-1.655786e-01
8.454611e-01	-5.317775e-03	-1.705941e-01
8.325971e-01	-5.146359e-03	-1.760465e-01
8.185929e-01	-4.926475e-03	-1.802779e-01
7.964469e-01	-4.661412e-03	-1.857555e-01
7.712762e-01	-4.319753e-03	-1.897562e-01
7.350299e-01	-3.935166e-03	-1.958095e-01
6.911883e-01	-3.499393e-03	-1.986433e-01
6.286204e-01	-3.028213e-03	-2.020396e-01
5.479652e-01	-2.608162e-03	-1.954666e-01
4.390383e-01	-2.065185e-03	-1.821431e-01
2.787915e-01	-1.458287e-03	-1.333896e-01
3.978397e-02	-8.492422e-04	-2.378713e-02
-3.015572e-01	-2.299492e-04	2.312048e-01
-7.352274e-01	4.178723e-04	9.817108e-01
-4.757072e-01	1.047045e-03	3.017440e+00
2.936383e+00	1.806888e-03	2.940579e+00
3.054763e+00	2.440115e-03	9.438286e-01
2.583606e+00	3.067532e-03	6.663822e-02
2.209285e+00	3.657544e-03	-1.981251e-01
1.948064e+00	4.226528e-03	-3.586229e-01
1.760541e+00	4.749446e-03	-4.216278e-01
1.597571e+00	5.234690e-03	-4.692212e-01
1.476802e+00	5.777894e-03	-4.850483e-01
1.371896e+00	6.181499e-03	-4.983986e-01
1.286186e+00	6.519161e-03	-4.958602e-01
1.210844e+00	6.799276e-03	-4.935967e-01
1.146235e+00	7.029134e-03	-4.835189e-01
1.088211e+00	7.227002e-03	-4.749769e-01
1.034892e+00	7.369494e-03	-4.620862e-01
9.854365e-01	7.467672e-03	-4.510066e-01
9.358491e-01	7.516185e-03	-4.358574e-01
8.888449e-01	7.539583e-03	-4.218752e-01
8.396006e-01	7.546012e-03	-4.034434e-01
7.887884e-01	7.542859e-03	-3.832239e-01
7.403606e-01	7.537964e-03	-3.613030e-01
8.163245e-01	-3.286081e-03	-1.437518e-01
8.342712e-01	-3.279012e-03	-1.484220e-01
8.458284e-01	-3.259964e-03	-1.542448e-01
8.514454e-01	-3.221776e-03	-1.594888e-01
8.480204e-01	-3.182061e-03	-1.652527e-01
8.436564e-01	-3.106679e-03	-1.702299e-01
8.305307e-01	-2.991404e-03	-1.756096e-01
8.157978e-01	-2.847815e-03	-1.796624e-01
7.929747e-01	-2.663698e-03	-1.849457e-01
7.675437e-01	-2.431833e-03	-1.888378e-01
7.308730e-01	-2.192683e-03	-1.947021e-01
6.864782e-01	-1.966996e-03	-1.972896e-01
6.246232e-01	-1.653303e-03	-2.007549e-01
5.435239e-01	-1.434614e-03	-1.938824e-01
4.317319e-01	-1.069691e-03	-1.791119e-01
2.697461e-01	-6.917658e-04	-1.290618e-01
2.954956e-02	-2.960503e-04	-1.766790e-02
-3.143486e-01	9.857838e-05	2.410119e-01
-7.491008e-01	5.243596e-04	1.000235e+00
-4.814404e-01	9.090157e-04	3.053806e+00
2.962216e+00	1.406184e-03	2.966449e+00
3.075620e+00	1.791866e-03	9.502728e-01
2.598665e+00	2.188013e-03	6.702665e-02
2.220130e+00	2.558342e-03	-1.990976e-01
1.956185e+00	2.908679e-03	-3.601180e-01
1.766867e+00	3.235516e-03	-4.231429e-01
1.604304e+00	3.649221e-03	-4.711990e-01
1.482441e+00	3.906436e-03	-4.869003e-01
1.375386e+00	4.149515e-03	-4.996666e-01
1.289027e+00	4.368123e-03	-4.969555e-01
1.213086e+00	4.533152e-03	-4.945105e-01
1.147864e+00	4.639187e-03	-4.842060e-01
1.089732e+00	4.733760e-03	-4.756407e-01
1.036402e+00	4.808951e-03	-4.627603e-01
9.865583e-01	4.856764e-03	-4.515200e-01
9.365073e-01	4.895170e-03	-4.361640e-01
8.890287e-01	4.926560e-03	-4.219625e-01
8.395985e-01	4.926759e-03	-4.034424e-01
7.886126e-01	4.923659e-03	-3.831384e-01
7.400662e-01	4.920508e-03	-3.611594e-01
8.158762e-01	-2.053254e-03	-1.436728e-01
8.336976e-01	-2.049288e-03	-1.483200e-01
8.450351e-01	-2.039338e-03	-1.541002e-01
8.510767e-01	-2.021272e-03	-1.594197e-01
8.473136e-01	-1.992171e-03	-1.651150e-01
8.421312e-01	-2.037461e-03	-1.699222e-01
8.285952e-01	-1.945891e-03	-1.752003e-01
8.139214e-01	-1.807662e-03	-1.792491e-01
7.908290e-01	-1.704983e-03	-1.844452e-01
7.650939e-01	-1.560876e-03	-1.882351e-01
7.289513e-01	-1.402364e-03	-1.941902e-01
6.840166e-01	-1.229949e-03	-1.965822e-01
6.211747e-01	-1.028828e-03	-1.996466e-01
5.393863e-01	-7.482322e-04	-1.924064e-01
4.269478e-01	-5.124693e-04	-1.771272e-01
2.645495e-01	-3.043874e-04	-1.265755e-01
2.288633e-02	-8.861058e-05	-1.368391e-02
-3.224859e-01	1.639333e-04	2.472508e-01
-7.578302e-01	4.245769e-04	1.011891e+00
-4.851464e-01	6.981265e-04	3.077313e+00
2.979272e+00	9.781598e-04	2.983530e+00
3.089254e+00	1.231566e-03	9.544852e-01
2.608253e+00	1.475441e-03	6.727394e-02
2.227105e+00	1.735611e-03	-1.997231e-01
1.961641e+00	1.955910e-03	-3.611224e-01
1.773341e+00	2.169068e-03	-4.246933e-01
1.607626e+00	2.367317e-03	-4.721745e-01
1.483739e+00	2.469219e-03	-4.873266e-01
1.377912e+00	2.615114e-03	-5.005844e-01
1.291025e+00	2.753160e-03	-4.977259e-01
1.214241e+00	2.868271e-03	-4.949812e-01
1.148796e+00	2.961864e-03	-4.845990e-01
1.090481e+00	3.065477e-03	-4.759678e-01
1.036676e+00	3.137462e-03	-4.628830e-01
9.868243e-01	3.253712e-03	-4.516417e-01
9.371563e-01	3.241665e-03	-4.364663e-01
8.896557e-01	3.234443e-03	-4.222601e-01
8.395314e-01	3.230934e-03	-4.034101e-01
7.884979e-01	3.227483e-03	-3.830827e-01
7.398780e-01	3.225155e-03	-3.610675e-01
8.156591e-01	-1.158701e-03	-1.436346e-01
8.334616e-01	-1.155574e-03	-1.482780e-01
8.448465e-01	-1.146269e-03	-1.540658e-01
8.502405e-01	-1.155776e-03	-1.592631e-01
8.484838e-01	-1.112406e-03	-1.653430e-01
8.427033e-01	-1.082324e-03	-1.700376e-01
8.269622e-01	-1.037906e-03	-1.748550e-01
8.123928e-01	-1.007552e-03	-1.789125e-01
7.896384e-01	-1.013730e-03	-1.841676e-01
7.635710e-01	-9.325157e-04	-1.878605e-01
7.265474e-01	-8.287083e-04	-1.935498e-01
6.815030e-01	-7.050039e-04	-1.958598e-01
6.179596e-01	-5.909518e-04	-1.986132e-01
5.358083e-01	-3.547457e-04	-1.911301e-01
4.244708e-01	-2.625164e-04	-1.760995e-01
2.619399e-01	-1.327566e-04	-1.253269e-01
1.962978e-02	5.997738e-06	-1.173679e-02
-3.274869e-01	1.492932e-04	2.510851e-01
-7.637732e-01	2.994590e-04	1.019826e+00
-4.874894e-01	4.730372e-04	3.092175e+00
2.988486e+00	6.196162e-04	2.992756e+00
3.097412e+00	7.683952e-04	9.570059e-01
2.615046e+00	9.139675e-04	6.744916e-02
2.231934e+00	1.049837e-03	-2.001561e-01
1.964890e+00	1.179685e-03	-3.617205e-01
1.773909e+00	1.301848e-03	-4.248293e-01
1.608784e+00	1.331380e-03	-4.725145e-01
1.485899e+00	1.445864e-03	-4.880362e-01
1.379088e+00	1.556115e-03	-5.010115e-01
1.292221e+00	1.616559e-03	-4.981870e-01
1.215699e+00	1.684035e-03	-4.955759e-01
1.150376e+00	1.829885e-03	-4.852656e-01
1.092085e+00	1.852059e-03	-4.766679e-01
1.039073e+00	1.894909e-03	-4.639528e-01
9.883590e-01	1.906575e-03	-4.523441e-01
9.361414e-01	1.916117e-03	-4.359936e-01
8.887733e-01	1.897708e-03	-4.218413e-01
8.393863e-01	1.921241e-03	-4.033404e-01
7.883262e-01	1.917854e-03	-3.829993e-01
7.397097e-01	1.916200e-03	-3.609854e-01
8.153515e-01	-1.363525e-03	-1.435804e-01
8.329606e-01	-1.363545e-03	-1.481888e-01
8.451608e-01	-1.364210e-03	-1.541231e-01
8.500696e-01	-1.346639e-03	-1.592311e-01
8.458623e-01	-1.305640e-03	-1.648322e-01
8.408315e-01	-1.258583e-03	-1.696599e-01
8.274559e-01	-1.095326e-03	-1.749594e-01
8.135944e-01	-1.187382e-03	-1.791771e-01
7.897953e-01	-9.682359e-04	-1.842042e-01
7.626641e-01	-1.017717e-03	-1.876373e-01
7.259783e-01	-6.611554e-04	-1.933982e-01
6.808424e-01	-7.491354e-04	-1.956699e-01
6.163582e-01	-3.131816e-04	-1.980985e-01
5.343956e-01	-3.759250e-04	-1.906262e-01
4.233701e-01	8.338598e-05	-1.756429e-01
2.596110e-01	4.196395e-04	-1.242126e-01
1.686832e-02	6.396427e-04	-1.008570e-02
-3.299897e-01	6.549491e-04	2.530040e-01
-7.666343e-01	6.996629e-04	1.023647e+00
-4.887039e-01	7.581861e-04	3.099878e+00
2.993966e+00	8.360809e-04	2.998244e+00
3.102175e+00	9.113072e-04	9.584775e-01
2.617302e+00	1.004040e-03	6.750734e-02
2.233679e+00	1.083166e-03	-2.003127e-01
1.966695e+00	1.016284e-03	-3.620529e-01
1.775841e+00	7.977392e-04	-4.252921e-01
1.609871e+00	4.488864e-04	-4.728339e-01
1.486856e+00	6.119682e-04	-4.883504e-01
1.380126e+00	2.946067e-04	-5.013886e-01
1.292641e+00	4.239210e-04	-4.983487e-01
1.216906e+00	1.287105e-04	-4.960676e-01
1.150968e+00	2.788895e-04	-4.855153e-01
1.091339e+00	1.849540e-05	-4.763423e-01
1.037481e+00	7.426087e-05	-4.632420e-01
9.871654e-01	-1.297564e-04	-4.517978e-01
9.370397e-01	-7.373108e-05	-4.364120e-01
8.896507e-01	-9.035395e-05	-4.222577e-01
8.403004e-01	-9.672089e-05	-4.037797e-01
7.882367e-01	-9.173086e-05	-3.829558e-01
7.396247e-01	-9.068041e-05	-3.609439e-01
8.156624e-01	7.818145e-05	-1.436352e-01
8.335074e-01	6.039088e-05	-1.482861e-01
8.441697e-01	5.810897e-05	-1.539424e-01
8.487137e-01	7.829395e-05	-1.589771e-01
8.467032e-01	7.483381e-05	-1.649960e-01
8.389480e-01	7.283654e-05	-1.692799e-01
8.260575e-01	7.130884e-05	-1.746637e-01
8.104493e-01	7.397564e-05	-1.784845e-01
7.874211e-01	1.195931e-04	-1.836504e-01
7.595144e-01	1.029476e-04	-1.868624e-01
7.230009e-01	9.112649e-05	-1.926050e-01
6.770010e-01	8.788565e-05	-1.945659e-01
6.125479e-01	2.336021e-05	-1.968739e-01
5.302829e-01	2.252545e-05	-1.891592e-01
4.113783e-01	5.131798e-05	-1.706679e-01
2.514896e-01	1.674905e-05	-1.203269e-01
1.409099e-02	1.577867e-05	-8.425105e-03
-3.289062e-01	1.354088e-05	2.521733e-01
-7.665448e-01	1.041169e-05	1.023527e+00
-4.889458e-01	6.810048e-06	3.101413e+00
2.996070e+00	2.168695e-06	3.000351e+00
3.104959e+00	-2.262904e-06	9.593377e-01
2.620532e+00	-7.280033e-06	6.759065e-02
2.231816e+00	-1.296901e-05	-2.001456e-01
1.958880e+00	-2.004402e-05	-3.606142e-01
1.764030e+00	7.439292e-06	-4.224635e-01
1.606343e+00	-3.034724e-05	-4.717976e-01
1.483545e+00	1.676478e-05	-4.872630e-01
1.376751e+00	-3.071038e-05	-5.001627e-01
1.290095e+00	-1.433579e-05	-4.973671e-01
1.213857e+00	-2.390215e-05	-4.948247e-01
1.149071e+00	-1.073583e-04	-4.847149e-01
1.089226e+00	-6.875110e-05	-4.754199e-01
1.037125e+00	-7.007290e-05	-4.630834e-01
9.857195e-01	-6.980226e-05	-4.511361e-01
9.369973e-01	-7.066711e-05	-4.363922e-01
8.882194e-01	-7.016292e-05	-4.215783e-01
8.392786e-01	-9.262725e-05	-4.032887e-01
7.886677e-01	-9.146870e-05	-3.831652e-01
7.398706e-01	-7.395759e-05	-3.610639e-01
8.183372e-01	1.480166e-03	-1.441062e-01
8.337256e-01	1.480424e-03	-1.483249e-01
8.444241e-01	1.482011e-03	-1.539888e-01
8.497295e-01	1.466959e-03	-1.591674e-01
8.459693e-01	1.429844e-03	-1.648530e-01
8.408917e-01	1.475046e-03	-1.696721e-01
8.274353e-01	1.301125e-03	-1.749551e-01
8.128896e-01	1.361220e-03	-1.790219e-01
7.894209e-01	1.092683e-03	-1.841168e-01
7.630374e-01	1.138013e-03	-1.877292e-01
7.261759e-01	7.830420e-04	-1.934508e-01
6.817300e-01	7.918205e-04	-1.959250e-01
6.172954e-01	3.561017e-04	-1.983997e-01
5.340009e-01	4.422914e-04	-1.904854e-01
4.233977e-01	-5.297550e-05	-1.756543e-01
2.603212e-01	-3.905671e-04	-1.245524e-01
1.693376e-02	-5.842277e-04	-1.012482e-02
-3.298556e-01	-6.060179e-04	2.529012e-01
-7.664512e-01	-6.829836e-04	1.023402e+00
-4.886156e-01	-7.461039e-04	3.099319e+00
2.993517e+00	-8.315621e-04	2.997794e+00
3.101754e+00	-9.153237e-04	9.583474e-01
2.616953e+00	-9.841014e-04	6.749832e-02
2.233359e+00	-1.099898e-03	-2.002839e-01
1.967167e+00	-1.039445e-03	-3.621397e-01
1.775592e+00	-7.948080e-04	-4.252324e-01
1.610075e+00	-4.559036e-04	-4.728937e-01
1.486809e+00	-6.579212e-04	-4.883349e-01
1.379737e+00	-3.563455e-04	-5.012473e-01
1.292725e+00	-4.241511e-04	-4.983811e-01
1.215746e+00	-1.483083e-04	-4.955949e-01
1.150367e+00	-2.898852e-04	-4.852616e-01
1.091853e+00	-4.570595e-05	-4.765664e-01
1.037464e+00	-1.527893e-04	-4.632348e-01
9.871571e-01	-5.227997e-05	-4.517940e-01
9.370307e-01	-8.032581e-05	-4.364078e-01
8.892167e-01	-5.109095e-05	-4.220517e-01
8.395152e-01	-4.155851e-05	-4.034024e-01
7.888574e-01	-4.575040e-05	-3.832574e-01
7.423064e-01	-4.669114e-05	-3.622526e-01
8.156192e-01	1.198469e-03	-1.436276e-01
8.333911e-01	1.212959e-03	-1.482654e-01
8.447221e-01	1.205464e-03	-1.540431e-01
8.500774e-01	1.199202e-03	-1.592325e-01
8.463879e-01	1.087013e-03	-1.649346e-01
8.414149e-01	1.061157e-03	-1.697777e-01
8.276335e-01	9.854183e-04	-1.749970e-01
8.135557e-01	9.622828e-04	-1.791686e-01
7.903483e-01	9.315839e-04	-1.843331e-01
7.636043e-01	8.549768e-04	-1.878686e-01
7.275558e-01	7.671762e-04	-1.938184e-01
6.825776e-01	6.959990e-04	-1.961686e-01
6.176406e-01	6.174779e-04	-1.985107e-01
5.359517e-01	4.699586e-04	-1.911813e-01
4.251148e-01	3.351364e-04	-1.763667e-01
2.615237e-01	2.275991e-04	-1.251277e-01
1.912370e-02	8.088873e-05	-1.143420e-02
-3.265989e-01	-6.729474e-05	2.504043e-01
-7.625998e-01	-2.214952e-04	1.018260e+00
-4.873619e-01	-3.744276e-04	3.091366e+00
2.987677e+00	-5.500653e-04	2.991947e+00
3.098383e+00	-6.990843e-04	9.573059e-01
2.614321e+00	-8.452876e-04	6.743044e-02
2.230952e+00	-9.810653e-04	-2.000681e-01
1.965343e+00	-1.108935e-03	-3.618039e-01
1.774146e+00	-1.261198e-03	-4.248860e-01
1.608021e+00	-1.369142e-03	-4.722906e-01
1.485150e+00	-1.499242e-03	-4.877901e-01
1.379705e+00	-1.553116e-03	-5.012356e-01
1.292747e+00	-1.646550e-03	-4.983898e-01
1.215563e+00	-1.699187e-03	-4.955203e-01
1.150285e+00	-1.738619e-03	-4.852272e-01
1.091200e+00	-1.798901e-03	-4.762815e-01
1.036887e+00	-1.807527e-03	-4.629768e-01
9.870132e-01	-1.831239e-03	-4.517282e-01
9.369211e-01	-1.853794e-03	-4.363567e-01
8.891604e-01	-1.772255e-03	-4.220250e-01
8.395207e-01	-1.782976e-03	-4.034050e-01
7.883790e-01	-1.782811e-03	-3.830250e-01
7.397265e-01	-1.799184e-03	-3.609936e-01
8.159055e-01	1.721910e-03	-1.436780e-01
8.337356e-01	1.710980e-03	-1.483267e-01
8.448732e-01	1.587380e-03	-1.540707e-01
8.530024e-01	1.679865e-03	-1.597804e-01
8.485828e-01	1.707026e-03	-1.653623e-01
8.426986e-01	1.715752e-03	-1.700367e-01
8.289165e-01	1.673791e-03	-1.752683e-01
8.136574e-01	1.609430e-03	-1.791910e-01
7.908787e-01	1.537103e-03	-1.844568e-01
7.651959e-01	1.418532e-03	-1.882602e-01
7.282558e-01	1.273812e-03	-1.940049e-01
6.837250e-01	1.190518e-03	-1.964984e-01
6.204081e-01	9.852529e-04	-1.994002e-01
5.382113e-01	7.876603e-04	-1.919873e-01