# vtk DataFile Version 2.0
OUTPUT by 3D-VPM
ASCII
DATASET UNSTRUCTURED_GRID
POINTS 820 double
9.510565e-01	0.000000e+00	-3.090170e-01
9.442611e-01	0.000000e+00	-3.078203e-01
9.267277e-01	0.000000e+00	-3.047010e-01
8.963175e-01	0.000000e+00	-2.991555e-01
8.562911e-01	0.000000e+00	-2.916579e-01
8.054250e-01	0.000000e+00	-2.817457e-01
7.470317e-01	0.000000e+00	-2.699633e-01
6.809074e-01	0.000000e+00	-2.559818e-01
6.100852e-01	0.000000e+00	-2.403847e-01
5.354138e-01	0.000000e+00	-2.229691e-01
4.593635e-01	0.000000e+00	-2.042585e-01
3.837764e-01	0.000000e+00	-1.841224e-01
3.103069e-01	0.000000e+00	-1.630077e-01
2.415927e-01	0.000000e+00	-1.409228e-01
1.782654e-01	0.000000e+00	-1.183331e-01
1.234349e-01	0.000000e+00	-9.558566e-02
7.662509e-02	0.000000e+00	-7.318920e-02
4.106998e-02	0.000000e+00	-5.193053e-02
1.528206e-02	0.000000e+00	-3.215886e-02
2.347037e-03	0.000000e+00	-1.488740e-02
0.000000e+00	0.000000e+00	0.000000e+00
1.064939e-02	0.000000e+00	1.066461e-02
3.126595e-02	0.000000e+00	1.703450e-02
6.375031e-02	0.000000e+00	1.787236e-02
1.050105e-01	0.000000e+00	1.417221e-02
1.560448e-01	0.000000e+00	4.777214e-03
2.137742e-01	0.000000e+00	-9.048270e-03
2.782849e-01	0.000000e+00	-2.799567e-02
3.468570e-01	0.000000e+00	-5.051783e-02
4.187060e-01	0.000000e+00	-7.662000e-02
4.916930e-01	0.000000e+00	-1.047585e-01
5.642168e-01	0.000000e+00	-1.343226e-01
6.348639e-01	0.000000e+00	-1.641238e-01
7.013280e-01	0.000000e+00	-1.931337e-01
7.630418e-01	0.000000e+00	-2.206893e-01
8.172084e-01	0.000000e+00	-2.454799e-01
8.641863e-01	0.000000e+00	-2.673591e-01
9.009752e-01	0.000000e+00	-2.848204e-01
9.288372e-01	0.000000e+00	-2.982085e-01
9.448555e-01	0.000000e+00	-3.059908e-01
9.510565e-01	0.000000e+00	-3.090170e-01
9.510565e-01	1.052632e+00	-3.090170e-01
9.442611e-01	1.052632e+00	-3.078203e-01
9.267277e-01	1.052632e+00	-3.047010e-01
8.963175e-01	1.052632e+00	-2.991555e-01
8.562911e-01	1.052632e+00	-2.916579e-01
8.054250e-01	1.052632e+00	-2.817457e-01
7.470317e-01	1.052632e+00	-2.699633e-01
6.809074e-01	1.052632e+00	-2.559818e-01
6.100852e-01	1.052632e+00	-2.403847e-01
5.354138e-01	1.052632e+00	-2.229691e-01
4.593635e-01	1.052632e+00	-2.042585e-01
3.837764e-01	1.052632e+00	-1.841224e-01
3.103069e-01	1.052632e+00	-1.630077e-01
2.415927e-01	1.052632e+00	-1.409228e-01
1.782654e-01	1.052632e+00	-1.183331e-01
1.234349e-01	1.052632e+00	-9.558566e-02
7.662509e-02	1.052632e+00	-7.318920e-02
4.106998e-02	1.052632e+00	-5.193053e-02
1.528206e-02	1.052632e+00	-3.215886e-02
2.347037e-03	1.052632e+00	-1.488740e-02
0.000000e+00	1.052632e+00	0.000000e+00
1.064939e-02	1.052632e+00	1.066461e-02
3.126595e-02	1.052632e+00	1.703450e-02
6.375031e-02	1.052632e+00	1.787236e-02
1.050105e-01	1.052632e+00	1.417221e-02
1.560448e-01	1.052632e+00	4.777214e-03
2.137742e-01	1.052632e+00	-9.048270e-03
2.782849e-01	1.052632e+00	-2.799567e-02
3.468570e-01	1.052632e+00	-5.051783e-02
4.187060e-01	1.052632e+00	-7.662000e-02
4.916930e-01	1.052632e+00	-1.047585e-01
5.642168e-01	1.052632e+00	-1.343226e-01
6.348639e-01	1.052632e+00	-1.641238e-01
7.013280e-01	1.052632e+00	-1.931337e-01
7.630418e-01	1.052632e+00	-2.206893e-01
8.172084e-01	1.052632e+00	-2.454799e-01
8.641863e-01	1.052632e+00	-2.673591e-01
9.009752e-01	1.052632e+00	-2.848204e-01
9.288372e-01	1.052632e+00	-2.982085e-01
9.448555e-01	1.052632e+00	-3.059908e-01
9.510565e-01	1.052632e+00	-3.090170e-01
9.510565e-01	2.105263e+00	-3.090170e-01
9.442611e-01	2.105263e+00	-3.078203e-01
9.267277e-01	2.105263e+00	-3.047010e-01
8.963175e-01	2.105263e+00	-2.991555e-01
8.562911e-01	2.105263e+00	-2.916579e-01
8.054250e-01	2.105263e+00	-2.817457e-01
7.470317e-01	2.105263e+00	-2.699633e-01
6.809074e-01	2.105263e+00	-2.559818e-01
6.100852e-01	2.105263e+00	-2.403847e-01
5.354138e-01	2.105263e+00	-2.229691e-01
4.593635e-01	2.105263e+00	-2.042585e-01
3.837764e-01	2.105263e+00	-1.841224e-01
3.103069e-01	2.105263e+00	-1.630077e-01
2.415927e-01	2.105263e+00	-1.409228e-01
1.782654e-01	2.105263e+00	-1.183331e-01
1.234349e-01	2.105263e+00	-9.558566e-02
7.662509e-02	2.105263e+00	-7.318920e-02
4.106998e-02	2.105263e+00	-5.193053e-02
1.528206e-02	2.105263e+00	-3.215886e-02
2.347037e-03	2.105263e+00	-1.488740e-02
0.000000e+00	2.105263e+00	0.000000e+00
1.064939e-02	2.105263e+00	1.066461e-02
3.126595e-02	2.105263e+00	1.703450e-02
6.375031e-02	2.105263e+00	1.787236e-02
1.050105e-01	2.105263e+00	1.417221e-02
1.560448e-01	2.105263e+00	4.777214e-03
2.137742e-01	2.105263e+00	-9.048270e-03
2.782849e-01	2.105263e+00	-2.799567e-02
3.468570e-01	2.105263e+00	-5.051783e-02
4.187060e-01	2.105263e+00	-7.662000e-02
4.916930e-01	2.105263e+00	-1.047585e-01
5.642168e-01	2.105263e+00	-1.343226e-01
6.348639e-01	2.105263e+00	-1.641238e-01
7.013280e-01	2.105263e+00	-1.931337e-01
7.630418e-01	2.105263e+00	-2.206893e-01
8.172084e-01	2.105263e+00	-2.454799e-01
8.641863e-01	2.105263e+00	-2.673591e-01
9.009752e-01	2.105263e+00	-2.848204e-01
9.288372e-01	2.105263e+00	-2.982085e-01
9.448555e-01	2.105263e+00	-3.059908e-01
9.510565e-01	2.105263e+00	-3.090170e-01
9.510565e-01	3.157895e+00	-3.090170e-01
9.442611e-01	3.157895e+00	-3.078203e-01
9.267277e-01	3.157895e+00	-3.047010e-01
8.963175e-01	3.157895e+00	-2.991555e-01
8.562911e-01	3.157895e+00	-2.916579e-01
8.054250e-01	3.157895e+00	-2.817457e-01
7.470317e-01	3.157895e+00	-2.699633e-01
6.809074e-01	3.157895e+00	-2.559818e-01
6.100852e-01	3.157895e+00	-2.403847e-01
5.354138e-01	3.157895e+00	-2.229691e-01
4.593635e-01	3.157895e+00	-2.042585e-01
3.837764e-01	3.157895e+00	-1.841224e-01
3.103069e-01	3.157895e+00	-1.630077e-01
2.415927e-01	3.157895e+00	-1.409228e-01
1.782654e-01	3.157895e+00	-1.183331e-01
1.234349e-01	3.157895e+00	-9.558566e-02
7.662509e-02	3.157895e+00	-7.318920e-02
4.106998e-02	3.157895e+00	-5.193053e-02
1.528206e-02	3.157895e+00	-3.215886e-02
2.347037e-03	3.157895e+00	-1.488740e-02
0.000000e+00	3.157895e+00	0.000000e+00
1.064939e-02	3.157895e+00	1.066461e-02
3.126595e-02	3.157895e+00	1.703450e-02
6.375031e-02	3.157895e+00	1.787236e-02
1.050105e-01	3.157895e+00	1.417221e-02
1.560448e-01	3.157895e+00	4.777214e-03
2.137742e-01	3.157895e+00	-9.048270e-03
2.782849e-01	3.157895e+00	-2.799567e-02
3.468570e-01	3.157895e+00	-5.051783e-02
4.187060e-01	3.157895e+00	-7.662000e-02
4.916930e-01	3.157895e+00	-1.047585e-01
5.642168e-01	3.157895e+00	-1.343226e-01
6.348639e-01	3.157895e+00	-1.641238e-01
7.013280e-01	3.157895e+00	-1.931337e-01
7.630418e-01	3.157895e+00	-2.206893e-01
8.172084e-01	3.157895e+00	-2.454799e-01
8.641863e-01	3.157895e+00	-2.673591e-01
9.009752e-01	3.157895e+00	-2.848204e-01
9.288372e-01	3.157895e+00	-2.982085e-01
9.448555e-01	3.157895e+00	-3.059908e-01
9.510565e-01	3.157895e+00	-3.090170e-01
9.510565e-01	4.210526e+00	-3.090170e-01
9.442611e-01	4.210526e+00	-3.078203e-01
9.267277e-01	4.210526e+00	-3.047010e-01
8.963175e-01	4.210526e+00	-2.991555e-01
8.562911e-01	4.210526e+00	-2.916579e-01
8.054250e-01	4.210526e+00	-2.817457e-01
7.470317e-01	4.210526e+00	-2.699633e-01
6.809074e-01	4.210526e+00	-2.559818e-01
6.100852e-01	4.210526e+00	-2.403847e-01
5.354138e-01	4.210526e+00	-2.229691e-01
4.593635e-01	4.210526e+00	-2.042585e-01
3.837764e-01	4.210526e+00	-1.841224e-01
3.103069e-01	4.210526e+00	-1.630077e-01
2.415927e-01	4.210526e+00	-1.409228e-01
1.782654e-01	4.210526e+00	-1.183331e-01
1.234349e-01	4.210526e+00	-9.558566e-02
7.662509e-02	4.210526e+00	-7.318920e-02
4.106998e-02	4.210526e+00	-5.193053e-02
1.528206e-02	4.210526e+00	-3.215886e-02
2.347037e-03	4.210526e+00	-1.488740e-02
0.000000e+00	4.210526e+00	0.000000e+00
1.064939e-02	4.210526e+00	1.066461e-02
3.126595e-02	4.210526e+00	1.703450e-02
6.375031e-02	4.210526e+00	1.787236e-02
1.050105e-01	4.210526e+00	1.417221e-02
1.560448e-01	4.210526e+00	4.777214e-03
2.137742e-01	4.210526e+00	-9.048270e-03
2.782849e-01	4.210526e+00	-2.799567e-02
3.468570e-01	4.210526e+00	-5.051783e-02
4.187060e-01	4.210526e+00	-7.662000e-02
4.916930e-01	4.210526e+00	-1.047585e-01
5.642168e-01	4.210526e+00	-1.343226e-01
6.348639e-01	4.210526e+00	-1.641238e-01
7.013280e-01	4.210526e+00	-1.931337e-01
7.630418e-01	4.210526e+00	-2.206893e-01
8.172084e-01	4.210526e+00	-2.454799e-01
8.641863e-01	4.210526e+00	-2.673591e-01
9.009752e-01	4.210526e+00	-2.848204e-01
9.288372e-01	4.210526e+00	-2.982085e-01
9.448555e-01	4.210526e+00	-3.059908e-01
9.510565e-01	4.210526e+00	-3.090170e-01
9.510565e-01	5.263158e+00	-3.090170e-01
9.442611e-01	5.263158e+00	-3.078203e-01
9.267277e-01	5.263158e+00	-3.047010e-01
8.963175e-01	5.263158e+00	-2.991555e-01
8.562911e-01	5.263158e+00	-2.916579e-01
8.054250e-01	5.263158e+00	-2.817457e-01
7.470317e-01	5.263158e+00	-2.699633e-01
6.809074e-01	5.263158e+00	-2.559818e-01
6.100852e-01	5.263158e+00	-2.403847e-01
5.354138e-01	5.263158e+00	-2.229691e-01
4.593635e-01	5.263158e+00	-2.042585e-01
3.837764e-01	5.263158e+00	-1.841224e-01
3.103069e-01	5.263158e+00	-1.630077e-01
2.415927e-01	5.263158e+00	-1.409228e-01
1.782654e-01	5.263158e+00	-1.183331e-01
1.234349e-01	5.263158e+00	-9.558566e-02
7.662509e-02	5.263158e+00	-7.318920e-02
4.106998e-02	5.263158e+00	-5.193053e-02
1.528206e-02	5.263158e+00	-3.215886e-02
2.347037e-03	5.263158e+00	-1.488740e-02
0.000000e+00	5.263158e+00	0.000000e+00
1.064939e-02	5.263158e+00	1.066461e-02
3.126595e-02	5.263158e+00	1.703450e-02
6.375031e-02	5.263158e+00	1.787236e-02
1.050105e-01	5.263158e+00	1.417221e-02
1.560448e-01	5.263158e+00	4.777214e-03
2.137742e-01	5.263158e+00	-9.048270e-03
2.782849e-01	5.263158e+00	-2.799567e-02
3.468570e-01	5.263158e+00	-5.051783e-02
4.187060e-01	5.263158e+00	-7.662000e-02
4.916930e-01	5.263158e+00	-1.047585e-01
5.642168e-01	5.263158e+00	-1.343226e-01
6.348639e-01	5.263158e+00	-1.641238e-01
7.013280e-01	5.263158e+00	-1.931337e-01
7.630418e-01	5.263158e+00	-2.206893e-01
8.172084e-01	5.263158e+00	-2.454799e-01
8.641863e-01	5.263158e+00	-2.673591e-01
9.009752e-01	5.263158e+00	-2.848204e-01
9.288372e-01	5.263158e+00	-2.982085e-01
9.448555e-01	5.263158e+00	-3.059908e-01
9.510565e-01	5.263158e+00	-3.090170e-01
9.510565e-01	6.315789e+00	-3.090170e-01
9.442611e-01	6.315789e+00	-3.078203e-01
[...]
CELL_DATA 760
VECTORS V double
8.414228e-01	-6.903606e-02	-1.481715e-01
8.655438e-01	-6.886248e-02	-1.539856e-01
8.835584e-01	-6.841273e-02	-1.611253e-01
8.953240e-01	-6.761834e-02	-1.677079e-01
8.977886e-01	-6.645742e-02	-1.749510e-01
8.991007e-01	-6.491233e-02	-1.814173e-01
8.920625e-01	-6.297275e-02	-1.886200e-01
8.847517e-01	-6.061462e-02	-1.948480e-01
8.704173e-01	-5.780944e-02	-2.030076e-01
8.547770e-01	-5.452461e-02	-2.102998e-01
8.294719e-01	-5.073465e-02	-2.209685e-01
7.985497e-01	-4.642535e-02	-2.294983e-01
7.512001e-01	-4.162967e-02	-2.414369e-01
6.891750e-01	-3.639879e-02	-2.458381e-01
6.025231e-01	-3.077065e-02	-2.499678e-01
4.718444e-01	-2.486811e-02	-2.257571e-01
2.701313e-01	-1.869914e-02	-1.615135e-01
-1.744572e-02	-1.242982e-02	1.337568e-02
-4.218384e-01	-5.861601e-03	5.632587e-01
-3.427097e-01	7.194071e-04	2.173829e+00
2.327126e+00	8.433047e-03	2.330452e+00
2.541785e+00	1.519824e-02	7.853340e-01
2.210617e+00	2.214486e-02	5.701783e-02
1.925574e+00	2.899262e-02	-1.726823e-01
1.720221e+00	3.598252e-02	-3.166789e-01
1.570433e+00	4.294949e-02	-3.760993e-01
1.435576e+00	4.988786e-02	-4.216419e-01
1.336755e+00	5.661915e-02	-4.390507e-01
1.250655e+00	6.302522e-02	-4.543527e-01
1.181710e+00	6.890821e-02	-4.555820e-01
1.121879e+00	7.415262e-02	-4.573302e-01
1.071620e+00	7.862133e-02	-4.520437e-01
1.027479e+00	8.225212e-02	-4.484688e-01
9.872037e-01	8.503724e-02	-4.407930e-01
9.499818e-01	8.702805e-02	-4.347799e-01
9.115292e-01	8.832249e-02	-4.245309e-01
8.743618e-01	8.904884e-02	-4.150011e-01
8.341871e-01	8.935618e-02	-4.008421e-01
7.910584e-01	8.940016e-02	-3.843267e-01
7.483071e-01	8.935450e-02	-3.651810e-01
8.268575e-01	-4.834614e-02	-1.456066e-01
8.473453e-01	-4.822183e-02	-1.507480e-01
8.618078e-01	-4.790330e-02	-1.571588e-01
8.704940e-01	-4.733947e-02	-1.630569e-01
8.702453e-01	-4.650771e-02	-1.695837e-01
8.688612e-01	-4.538920e-02	-1.753157e-01
8.588621e-01	-4.397326e-02	-1.816000e-01
8.479926e-01	-4.224488e-02	-1.867526e-01
8.293222e-01	-4.018925e-02	-1.934230e-01
8.083339e-01	-3.779118e-02	-1.988734e-01
7.765458e-01	-3.502091e-02	-2.068692e-01
7.378855e-01	-3.192889e-02	-2.120638e-01
6.815803e-01	-2.849248e-02	-2.190610e-01
6.085273e-01	-2.476679e-02	-2.170700e-01
5.087257e-01	-2.077775e-02	-2.110542e-01
3.607225e-01	-1.660845e-02	-1.725901e-01
1.373113e-01	-1.226066e-02	-8.209946e-02
-1.815770e-01	-7.847805e-03	1.392156e-01
-6.032813e-01	-3.230024e-03	8.055301e-01
-4.198806e-01	1.389767e-03	2.663328e+00
2.682658e+00	6.790237e-03	2.686491e+00
2.844228e+00	1.150652e-02	8.787799e-01
2.433356e+00	1.632086e-02	6.276287e-02
2.097413e+00	2.103034e-02	-1.880925e-01
1.860546e+00	2.579368e-02	-3.425116e-01
1.689695e+00	3.049123e-02	-4.046611e-01
1.539102e+00	3.511718e-02	-4.520485e-01
1.427841e+00	3.955341e-02	-4.689672e-01
1.330745e+00	4.372807e-02	-4.834489e-01
1.251926e+00	4.753354e-02	-4.826520e-01
1.182687e+00	5.085945e-02	-4.821187e-01
1.123354e+00	5.367706e-02	-4.738666e-01
1.070406e+00	5.593660e-02	-4.672052e-01
1.021752e+00	5.764252e-02	-4.562191e-01
9.765986e-01	5.883604e-02	-4.469617e-01
9.307668e-01	5.958800e-02	-4.334904e-01
8.867537e-01	5.998680e-02	-4.208827e-01
8.402954e-01	6.013324e-02	-4.037772e-01
7.917020e-01	6.012962e-02	-3.846394e-01
7.448105e-01	6.008632e-02	-3.634746e-01
8.205609e-01	-2.041402e-02	-1.444978e-01
8.397190e-01	-2.036217e-02	-1.493912e-01
8.527015e-01	-2.023178e-02	-1.554982e-01
8.598597e-01	-1.999568e-02	-1.610649e-01
8.580684e-01	-1.963699e-02	-1.672108e-01
8.551013e-01	-1.913901e-02	-1.725392e-01
8.434773e-01	-1.849199e-02	-1.783470e-01
8.308730e-01	-1.769063e-02	-1.829824e-01
8.103128e-01	-1.670775e-02	-1.889894e-01
7.869207e-01	-1.558732e-02	-1.936051e-01
7.528512e-01	-1.431500e-02	-2.005571e-01
7.115540e-01	-1.290563e-02	-2.044962e-01
6.517300e-01	-1.134922e-02	-2.094671e-01
5.745700e-01	-9.681963e-03	-2.049570e-01
4.697789e-01	-7.913948e-03	-1.948964e-01
3.150240e-01	-6.077642e-03	-1.507253e-01
8.301934e-02	-4.169770e-03	-4.963788e-02
-2.483858e-01	-2.238259e-03	1.904381e-01
-6.768117e-01	-2.222445e-04	9.037113e-01
-4.509257e-01	1.786341e-03	2.860249e+00
2.823778e+00	4.115804e-03	2.827813e+00
2.961969e+00	6.124087e-03	9.151582e-01
2.517991e+00	8.137870e-03	6.494584e-02
2.160719e+00	1.006200e-02	-1.937697e-01
1.910375e+00	1.195273e-02	-3.516847e-01
1.730305e+00	1.375650e-02	-4.143867e-01
1.572801e+00	1.546872e-02	-4.619462e-01
1.456138e+00	1.704876e-02	-4.782613e-01
1.354663e+00	1.847909e-02	-4.921382e-01
1.271705e+00	1.974530e-02	-4.902774e-01
1.198802e+00	2.081073e-02	-4.886878e-01
1.136486e+00	2.167119e-02	-4.794064e-01
1.080555e+00	2.230831e-02	-4.716352e-01
1.029173e+00	2.277999e-02	-4.595325e-01
9.815369e-01	2.308212e-02	-4.492218e-01
9.334902e-01	2.324681e-02	-4.347589e-01
8.875254e-01	2.330929e-02	-4.212490e-01
8.394023e-01	2.330705e-02	-4.033481e-01
7.894767e-01	2.327659e-02	-3.835583e-01
7.416756e-01	2.324978e-02	-3.619448e-01
8.181558e-01	-1.022391e-02	-1.440742e-01
8.367405e-01	-1.020285e-02	-1.488613e-01
8.489673e-01	-1.014650e-02	-1.548173e-01
8.553526e-01	-1.004058e-02	-1.602207e-01
8.527730e-01	-9.875258e-03	-1.661789e-01
8.489668e-01	-9.627167e-03	-1.713015e-01
8.364743e-01	-9.314272e-03	-1.768663e-01
8.225755e-01	-8.916572e-03	-1.811550e-01
8.009434e-01	-8.442988e-03	-1.868042e-01
7.769203e-01	-7.878832e-03	-1.911447e-01
7.414951e-01	-7.239164e-03	-1.975318e-01
6.983618e-01	-6.501319e-03	-2.007049e-01
6.368002e-01	-5.695520e-03	-2.046686e-01
5.574833e-01	-4.819054e-03	-1.988619e-01
4.500679e-01	-3.883962e-03	-1.867189e-01
2.917718e-01	-2.907687e-03	-1.396002e-01
5.529678e-02	-1.893571e-03	-3.306235e-02
-2.825478e-01	-8.596590e-04	2.166302e-01
-7.144143e-01	2.207706e-04	9.539202e-01
-4.667631e-01	1.281188e-03	2.960707e+00
2.895364e+00	2.540155e-03	2.899501e+00
3.021229e+00	3.604113e-03	9.334678e-01
2.560209e+00	4.663490e-03	6.603475e-02
2.191951e+00	5.666863e-03	-1.965705e-01
1.934693e+00	6.646735e-03	-3.561614e-01
1.749913e+00	7.567103e-03	-4.190826e-01
1.588909e+00	8.431785e-03	-4.666773e-01
1.469551e+00	9.229114e-03	-4.826668e-01
1.365880e+00	9.938118e-03	-4.962131e-01
1.281347e+00	1.055748e-02	-4.939945e-01
1.206804e+00	1.109626e-02	-4.919499e-01
1.142501e+00	1.152786e-02	-4.819437e-01
1.085251e+00	1.186619e-02	-4.736848e-01
1.032976e+00	1.210454e-02	-4.612305e-01
9.842035e-01	1.226478e-02	-4.504422e-01
9.351578e-01	1.234584e-02	-4.355355e-01
8.883153e-01	1.238986e-02	-4.216239e-01
8.394637e-01	1.240008e-02	-4.033776e-01
7.889778e-01	1.239325e-02	-3.833159e-01
7.407057e-01	1.238457e-02	-3.614714e-01
8.170256e-01	-5.657676e-03	-1.438752e-01
8.351825e-01	-5.646532e-03	-1.485841e-01
8.469989e-01	-5.614963e-03	-1.544583e-01
8.529437e-01	-5.555479e-03	-1.597695e-01
8.496077e-01	-5.459134e-03	-1.655620e-01
8.453635e-01	-5.318636e-03	-1.705744e-01
8.324868e-01	-5.147034e-03	-1.760232e-01
8.184669e-01	-4.927063e-03	-1.802502e-01
7.963052e-01	-4.661846e-03	-1.857225e-01
7.711161e-01	-4.325705e-03	-1.897168e-01
7.348488e-01	-3.934442e-03	-1.957613e-01
6.909803e-01	-3.497764e-03	-1.985835e-01
6.283673e-01	-3.025854e-03	-2.019583e-01
5.476564e-01	-2.605116e-03	-1.953565e-01
4.386780e-01	-2.061407e-03	-1.819936e-01
2.783698e-01	-1.453407e-03	-1.331879e-01
3.928848e-02	-8.435755e-04	-2.349088e-02
-3.024618e-01	-2.235831e-04	2.318983e-01
-7.360185e-01	4.246382e-04	9.827671e-01
-4.759400e-01	1.069720e-03	3.018917e+00
2.937484e+00	1.813446e-03	2.941682e+00
3.055344e+00	2.448641e-03	9.440083e-01
2.584392e+00	3.077491e-03	6.665849e-02
2.209849e+00	3.668706e-03	-1.981756e-01
1.948485e+00	4.238755e-03	-3.587006e-01
1.760867e+00	4.762464e-03	-4.217059e-01
1.597945e+00	5.248641e-03	-4.693311e-01
1.477003e+00	5.792927e-03	-4.851143e-01
1.371969e+00	6.197677e-03	-4.984253e-01
1.286320e+00	6.536515e-03	-4.959119e-01
1.210954e+00	6.817807e-03	-4.936415e-01
1.146325e+00	7.047616e-03	-4.835567e-01
1.088282e+00	7.245459e-03	-4.750078e-01
1.034948e+00	7.388190e-03	-4.621110e-01
9.854764e-01	7.486550e-03	-4.510248e-01
9.358750e-01	7.535189e-03	-4.358695e-01
8.888601e-01	7.558629e-03	-4.218825e-01
8.396041e-01	7.565101e-03	-4.034451e-01
7.887821e-01	7.561264e-03	-3.832208e-01
7.403470e-01	7.556999e-03	-3.612964e-01
8.162856e-01	-3.282657e-03	-1.437449e-01
8.342215e-01	-3.275625e-03	-1.484132e-01
8.457666e-01	-3.256716e-03	-1.542336e-01
8.513708e-01	-3.220225e-03	-1.594748e-01
8.479320e-01	-3.158448e-03	-1.652355e-01
8.435549e-01	-3.105730e-03	-1.702095e-01
8.304168e-01	-2.988432e-03	-1.755855e-01
8.156657e-01	-2.844334e-03	-1.796333e-01
7.928215e-01	-2.659901e-03	-1.849099e-01
7.673698e-01	-2.427276e-03	-1.887951e-01
7.306739e-01	-2.187611e-03	-1.946491e-01
6.862509e-01	-1.961522e-03	-1.972243e-01
6.243639e-01	-1.647038e-03	-2.006716e-01
5.432209e-01	-1.428469e-03	-1.937743e-01
4.313693e-01	-1.063549e-03	-1.789615e-01
2.693100e-01	-6.854071e-04	-1.288532e-01
2.903247e-02	-2.891718e-04	-1.735873e-02
-3.149821e-01	1.062000e-04	2.414977e-01
-7.501311e-01	5.184123e-04	1.001611e+00
-4.817802e-01	9.427866e-04	3.055961e+00
2.962924e+00	1.398009e-03	2.967159e+00
3.076784e+00	1.800776e-03	9.506325e-01
2.599460e+00	2.197629e-03	6.704714e-02
2.220697e+00	2.568341e-03	-1.991484e-01
1.956607e+00	2.918993e-03	-3.601957e-01
1.767197e+00	3.246156e-03	-4.232218e-01
1.604572e+00	3.660356e-03	-4.712775e-01
1.482660e+00	3.910614e-03	-4.869722e-01
1.375563e+00	4.161489e-03	-4.997310e-01
1.289171e+00	4.380825e-03	-4.970111e-01
1.213205e+00	4.546329e-03	-4.945589e-01
1.147961e+00	4.652424e-03	-4.842469e-01
1.089813e+00	4.747369e-03	-4.756759e-01
1.036467e+00	4.822651e-03	-4.627893e-01
9.866050e-01	4.868963e-03	-4.515413e-01
9.365386e-01	4.930717e-03	-4.361786e-01
8.890465e-01	4.939977e-03	-4.219709e-01
8.396036e-01	4.941960e-03	-4.034448e-01
7.886068e-01	4.939046e-03	-3.831356e-01
7.400527e-01	4.935944e-03	-3.611527e-01
8.158454e-01	-2.033187e-03	-1.436674e-01
8.336614e-01	-2.029148e-03	-1.483135e-01
8.450477e-01	-2.018943e-03	-1.541025e-01
8.504263e-01	-2.000305e-03	-1.592979e-01
8.473239e-01	-1.970136e-03	-1.651170e-01
8.423611e-01	-2.014052e-03	-1.699686e-01
8.284471e-01	-1.891780e-03	-1.751690e-01
8.137838e-01	-1.786897e-03	-1.792188e-01
7.906727e-01	-1.687853e-03	-1.844088e-01
7.649170e-01	-1.546744e-03	-1.881916e-01
7.287583e-01	-1.390889e-03	-1.941388e-01
6.837928e-01	-1.221279e-03	-1.965178e-01
6.209118e-01	-1.023139e-03	-1.995621e-01
5.390794e-01	-7.449922e-04	-1.922970e-01
4.265843e-01	-5.090913e-04	-1.769763e-01
2.641147e-01	-3.010978e-04	-1.263674e-01
2.236440e-02	-5.699616e-05	-1.337184e-02
-3.231202e-01	1.659623e-04	2.477372e-01
-7.590421e-01	4.276152e-04	1.013509e+00
-4.855119e-01	6.868890e-04	3.079631e+00
2.979653e+00	9.842686e-04	2.983911e+00
3.090471e+00	1.235576e-03	9.548612e-01
2.609072e+00	1.507916e-03	6.729508e-02
2.227686e+00	1.737407e-03	-1.997752e-01
1.962075e+00	1.957962e-03	-3.612024e-01
1.773682e+00	2.171792e-03	-4.247749e-01
1.607896e+00	2.398436e-03	-4.722540e-01
1.483958e+00	2.470926e-03	-4.873986e-01
1.378095e+00	2.614880e-03	-5.006508e-01
1.291174e+00	2.750646e-03	-4.977834e-01
1.214357e+00	2.863027e-03	-4.950287e-01
1.148891e+00	2.953088e-03	-4.846391e-01
1.090559e+00	3.051338e-03	-4.760015e-01
1.036713e+00	3.116549e-03	-4.628992e-01
9.871870e-01	3.237159e-03	-4.518077e-01
9.372829e-01	3.228661e-03	-4.365252e-01
8.891376e-01	3.222725e-03	-4.220142e-01
8.396041e-01	3.219783e-03	-4.034451e-01
7.885046e-01	3.216539e-03	-3.830860e-01
7.398720e-01	3.214251e-03	-3.610646e-01
8.156077e-01	-1.136274e-03	-1.436255e-01
8.333922e-01	-1.133385e-03	-1.482656e-01
8.447554e-01	-1.124565e-03	-1.540492e-01
8.501237e-01	-1.133564e-03	-1.592412e-01
8.483458e-01	-1.113417e-03	-1.653161e-01
8.420159e-01	-1.061988e-03	-1.698989e-01
8.269366e-01	-1.020687e-03	-1.748496e-01
8.127725e-01	-9.920012e-04	-1.789961e-01
7.895745e-01	-9.988125e-04	-1.841526e-01
7.634713e-01	-9.184246e-04	-1.878359e-01
7.264197e-01	-8.150524e-04	-1.935158e-01
6.813528e-01	-6.596909e-04	-1.958166e-01
6.177761e-01	-5.793744e-04	-1.985542e-01
5.355415e-01	-3.444638e-04	-1.910350e-01
4.241070e-01	-2.539575e-04	-1.759486e-01
2.610292e-01	-1.255089e-04	-1.248912e-01
1.899574e-02	1.220396e-05	-1.135769e-02
-3.272609e-01	1.547182e-04	2.509119e-01
-7.645237e-01	3.046431e-04	1.020829e+00
-4.878020e-01	4.540264e-04	3.094158e+00
2.989782e+00	6.259447e-04	2.994055e+00
3.100012e+00	7.719878e-04	9.578091e-01
2.615462e+00	9.155380e-04	6.745989e-02
2.231835e+00	1.049588e-03	-2.001473e-01
1.965331e+00	1.177650e-03	-3.618018e-01
1.774767e+00	1.297632e-03	-4.250349e-01
1.608993e+00	1.324429e-03	-4.725761e-01
1.485695e+00	1.435016e-03	-4.879692e-01
1.379210e+00	1.541798e-03	-5.010559e-01
1.292302e+00	1.601873e-03	-4.982182e-01
1.215740e+00	1.669787e-03	-4.955923e-01
1.150360e+00	1.815108e-03	-4.852588e-01
1.092005e+00	1.835522e-03	-4.766327e-01
1.039095e+00	1.877089e-03	-4.639629e-01
9.885329e-01	1.888745e-03	-4.524237e-01
9.362663e-01	1.873771e-03	-4.360518e-01
8.888354e-01	1.876626e-03	-4.218707e-01
8.394171e-01	1.898200e-03	-4.033552e-01
7.883345e-01	1.894584e-03	-3.830033e-01
7.397022e-01	1.892974e-03	-3.609817e-01
8.153605e-01	-1.383010e-03	-1.435820e-01
8.329653e-01	-1.383088e-03	-1.481897e-01
8.451663e-01	-1.383801e-03	-1.541241e-01
8.500577e-01	-1.365982e-03	-1.592288e-01
8.458276e-01	-1.324357e-03	-1.648254e-01
8.407752e-01	-1.246636e-03	-1.696486e-01
8.273803e-01	-1.149636e-03	-1.749434e-01
8.134890e-01	-1.212192e-03	-1.791539e-01
7.896588e-01	-9.919405e-04	-1.841723e-01
7.625038e-01	-1.040192e-03	-1.875979e-01
7.253796e-01	-6.822805e-04	-1.932387e-01
6.806288e-01	-7.688183e-04	-1.956085e-01
6.165969e-01	-3.319631e-04	-1.981752e-01
5.341334e-01	-3.941116e-04	-1.905327e-01
4.230564e-01	6.666015e-05	-1.755127e-01
2.592200e-01	4.078115e-04	-1.240255e-01
1.638600e-02	6.048841e-04	-9.797314e-03
-3.305955e-01	6.543400e-04	2.534685e-01
-7.673070e-01	7.024614e-04	1.024545e+00
-4.889866e-01	7.638200e-04	3.101672e+00
2.995224e+00	8.455125e-04	2.999505e+00
3.103189e+00	9.251973e-04	9.587908e-01
2.617998e+00	9.924399e-04	6.752530e-02
2.234171e+00	1.105323e-03	-2.003568e-01
1.967050e+00	1.041217e-03	-3.621181e-01
1.776097e+00	8.597239e-04	-4.253533e-01
1.610040e+00	4.805339e-04	-4.728836e-01
1.486973e+00	6.432118e-04	-4.883888e-01
1.380259e+00	3.274671e-04	-5.014371e-01
1.292791e+00	4.584559e-04	-4.984066e-01
1.217021e+00	1.647695e-04	-4.961147e-01
1.151034e+00	3.163279e-04	-4.855432e-01
1.091376e+00	5.786027e-05	-4.763582e-01
1.037498e+00	1.140349e-04	-4.632496e-01
9.871621e-01	-1.035697e-04	-4.517963e-01
9.370274e-01	-4.582702e-05	-4.364062e-01
8.896402e-01	-6.040975e-05	-4.222527e-01
8.402965e-01	-6.652607e-05	-4.037778e-01
7.882306e-01	-6.151379e-05	-3.829529e-01
7.396254e-01	-6.044543e-05	-3.609443e-01
8.156207e-01	-2.063523e-04	-1.436278e-01
8.334432e-01	-2.344749e-04	-1.482747e-01
8.440701e-01	-1.800734e-04	-1.539242e-01
8.485739e-01	-1.273266e-04	-1.589509e-01
8.458807e-01	-1.047777e-04	-1.648358e-01
8.389840e-01	-8.464365e-05	-1.692872e-01
8.265258e-01	-6.779341e-05	-1.747628e-01
8.104071e-01	-5.120820e-05	-1.784752e-01
7.873256e-01	4.799340e-06	-1.836281e-01
7.593808e-01	4.531809e-06	-1.868295e-01
7.228366e-01	6.029519e-06	-1.925613e-01
6.768193e-01	-1.869020e-05	-1.945137e-01
6.123435e-01	-3.820717e-05	-1.968082e-01
5.299862e-01	-2.777358e-05	-1.890533e-01
4.109146e-01	1.017959e-05	-1.704755e-01
2.508663e-01	-1.625520e-05	-1.200286e-01
1.335896e-02	-7.603389e-06	-7.987419e-03
-3.297708e-01	-1.596917e-07	2.528363e-01
-7.674709e-01	5.883128e-06	1.024764e+00
-4.893293e-01	1.081187e-05	3.103845e+00
2.997782e+00	1.585691e-05	3.002066e+00
3.106364e+00	1.994990e-05	9.597717e-01
2.621523e+00	2.390718e-05	6.761621e-02
2.232535e+00	2.726425e-05	-2.002101e-01
1.960184e+00	6.543811e-05	-3.608541e-01
1.764930e+00	6.860110e-05	-4.226789e-01
1.606108e+00	4.288068e-05	-4.717288e-01
1.483359e+00	1.043904e-04	-4.872018e-01
1.376916e+00	1.021492e-04	-5.002226e-01
1.290216e+00	1.023040e-04	-4.974139e-01
1.213933e+00	1.073657e-04	-4.948559e-01
1.149097e+00	7.863693e-05	-4.847259e-01
1.089177e+00	9.946413e-05	-4.753986e-01
1.036969e+00	1.185342e-04	-4.630134e-01
9.856876e-01	1.424885e-04	-4.511214e-01
9.371913e-01	1.681059e-04	-4.364826e-01
8.883389e-01	1.980103e-04	-4.216351e-01
8.393190e-01	2.092400e-04	-4.033081e-01
7.886779e-01	2.877454e-04	-3.831702e-01
7.398658e-01	2.772094e-04	-3.610616e-01
8.200802e-01	1.457686e-03	-1.444131e-01
8.302488e-01	1.458009e-03	-1.477064e-01
8.416180e-01	1.459590e-03	-1.534770e-01
8.482853e-01	1.444012e-03	-1.588969e-01
8.449744e-01	1.405481e-03	-1.646592e-01
8.401418e-01	1.418717e-03	-1.695208e-01
8.268663e-01	1.279856e-03	-1.748348e-01
8.124406e-01	1.341478e-03	-1.789230e-01
7.889222e-01	1.072775e-03	-1.840005e-01
7.624875e-01	1.126106e-03	-1.875939e-01
7.256811e-01	7.785732e-04	-1.933190e-01
6.812203e-01	7.928676e-04	-1.957785e-01
6.167365e-01	3.627728e-04	-1.982201e-01
5.334332e-01	4.539299e-04	-1.902829e-01
4.228011e-01	-4.058221e-05	-1.754068e-01
2.596051e-01	-3.810211e-04	-1.242098e-01
1.603893e-02	-5.782448e-04	-9.589798e-03
-3.309475e-01	-6.034501e-04	2.537384e-01
-7.676161e-01	-6.546349e-04	1.024958e+00
-4.890956e-01	-7.483731e-04	3.102363e+00
2.995670e+00	-8.351605e-04	2.999951e+00
3.103542e+00	-8.905012e-04	9.588998e-01
2.618232e+00	-9.878354e-04	6.753132e-02
2.235302e+00	-1.103160e-03	-2.004582e-01
1.967819e+00	-1.042500e-03	-3.622597e-01
1.775678e+00	-8.319048e-04	-4.252530e-01
1.610647e+00	-4.878251e-04	-4.730617e-01
1.487767e+00	-6.565919e-04	-4.886497e-01
1.380233e+00	-3.508693e-04	-5.014275e-01
1.292857e+00	-4.136496e-04	-4.984321e-01
1.216727e+00	-1.320023e-04	-4.959948e-01
1.150921e+00	-2.302053e-04	-4.854956e-01
1.091908e+00	-1.740649e-05	-4.765905e-01
1.038112e+00	-1.176901e-04	-4.635238e-01
9.879525e-01	-7.531591e-06	-4.521581e-01
9.380504e-01	-4.029942e-05	-4.368827e-01
8.906322e-01	-1.392631e-05	-4.227236e-01
8.426374e-01	-4.916501e-06	-4.049026e-01
7.927542e-01	-9.220165e-06	-3.851506e-01
7.380119e-01	-1.021028e-05	-3.601568e-01
8.155665e-01	1.507864e-03	-1.436183e-01
8.333251e-01	1.533041e-03	-1.482537e-01
8.446434e-01	1.469648e-03	-1.540288e-01
8.499886e-01	1.432162e-03	-1.592159e-01
8.462929e-01	1.294850e-03	-1.649161e-01
8.413213e-01	1.247676e-03	-1.697588e-01
8.275642e-01	1.153457e-03	-1.749823e-01
8.134950e-01	1.116298e-03	-1.791552e-01
7.901452e-01	1.073762e-03	-1.842858e-01
7.632681e-01	9.787851e-04	-1.877859e-01
7.272220e-01	8.752480e-04	-1.937295e-01
6.822474e-01	7.911142e-04	-1.960737e-01
6.172886e-01	6.978716e-04	-1.983975e-01
5.355668e-01	5.368956e-04	-1.910440e-01
4.246814e-01	3.910880e-04	-1.761869e-01
2.610175e-01	2.731066e-04	-1.248855e-01
1.854121e-02	1.143065e-04	-1.108592e-02
-3.279172e-01	-4.613881e-05	2.514151e-01
-7.637110e-01	-2.122370e-04	1.019743e+00
-4.873393e-01	-3.764267e-04	3.091223e+00
2.990996e+00	-5.649173e-04	2.995270e+00
3.099269e+00	-7.251836e-04	9.575795e-01
2.614554e+00	-8.830629e-04	6.743646e-02
2.231686e+00	-1.030441e-03	-2.001340e-01
1.965905e+00	-1.205916e-03	-3.619074e-01
1.774593e+00	-1.335820e-03	-4.249932e-01
1.608390e+00	-1.457389e-03	-4.723989e-01
1.485470e+00	-1.601847e-03	-4.878952e-01
1.379990e+00	-1.701494e-03	-5.013391e-01
1.293005e+00	-1.782304e-03	-4.984892e-01
1.216253e+00	-1.853295e-03	-4.958015e-01
1.150482e+00	-1.949439e-03	-4.853103e-01
1.090808e+00	-1.992338e-03	-4.761102e-01
1.036964e+00	-2.021008e-03	-4.630113e-01
9.870752e-01	-2.067582e-03	-4.517565e-01
9.369712e-01	-2.115552e-03	-4.363801e-01
8.891960e-01	-2.062230e-03	-4.220419e-01
8.395394e-01	-2.106326e-03	-4.034140e-01
7.883807e-01	-2.183389e-03	-3.830258e-01
7.397142e-01	-2.171811e-03	-3.609876e-01
8.158548e-01	2.171140e-03	-1.436691e-01
8.336750e-01	2.166699e-03	-1.483159e-01
8.448047e-01	2.159831e-03	-1.540582e-01
8.529366e-01	2.060194e-03	-1.597681e-01
8.485140e-01	2.027274e-03	-1.653489e-01
8.426311e-01	1.989685e-03	-1.700231e-01
8.288441e-01	1.909140e-03	-1.752529e-01
8.135747e-01	1.812811e-03	-1.791728e-01
7.907887e-01	1.712999e-03	-1.844358e-01
7.650935e-01	1.566345e-03	-1.882350e-01
7.281364e-01	1.396466e-03	-1.939731e-01
6.835841e-01	1.291070e-03	-1.964579e-01
6.202416e-01	1.066631e-03	-1.993467e-01
5.380090e-01	8.544593e-04	-1.919151e-01