# vtk DataFile Version 2.0
OUTPUT by 3D-VPM
ASCII
DATASET UNSTRUCTURED_GRID
POINTS 820 double
1.000000e+00	0.000000e+00	-2.811619e-03
9.931674e-01	0.000000e+00	-3.773444e-03
9.755282e-01	0.000000e+00	-6.224929e-03
9.448927e-01	0.000000e+00	-1.034803e-02
9.045085e-01	0.000000e+00	-1.558626e-02
8.530688e-01	0.000000e+00	-2.187768e-02
7.938926e-01	0.000000e+00	-2.871648e-02
7.266841e-01	0.000000e+00	-3.585282e-02
6.545085e-01	0.000000e+00	-4.290435e-02
5.781101e-01	0.000000e+00	-4.941583e-02
5.000000e-01	0.000000e+00	-5.512187e-02
4.218900e-01	0.000000e+00	-5.932895e-02
3.454915e-01	0.000000e+00	-6.195102e-02
2.733159e-01	0.000000e+00	-6.218093e-02
2.061074e-01	0.000000e+00	-6.026605e-02
1.469312e-01	0.000000e+00	-5.557550e-02
9.549150e-02	0.000000e+00	-4.874023e-02
5.510729e-02	0.000000e+00	-3.950917e-02
2.447174e-02	0.000000e+00	-2.867410e-02
6.832625e-03	0.000000e+00	-1.624510e-02
0.000000e+00	0.000000e+00	-2.811619e-03
6.832625e-03	0.000000e+00	1.062187e-02
2.447174e-02	0.000000e+00	2.305086e-02
5.510728e-02	0.000000e+00	3.388593e-02
9.549150e-02	0.000000e+00	4.311699e-02
1.469312e-01	0.000000e+00	4.995227e-02
2.061074e-01	0.000000e+00	5.464282e-02
2.733159e-01	0.000000e+00	5.655769e-02
3.454915e-01	0.000000e+00	5.632778e-02
4.218900e-01	0.000000e+00	5.370571e-02
5.000000e-01	0.000000e+00	4.949863e-02
5.781101e-01	0.000000e+00	4.379260e-02
6.545085e-01	0.000000e+00	3.728111e-02
7.266841e-01	0.000000e+00	3.022958e-02
7.938926e-01	0.000000e+00	2.309324e-02
8.530688e-01	0.000000e+00	1.625444e-02
9.045085e-01	0.000000e+00	9.963021e-03
9.448927e-01	0.000000e+00	4.724791e-03
9.755282e-01	0.000000e+00	6.016906e-04
9.931674e-01	0.000000e+00	-1.849794e-03
1.000000e+00	0.000000e+00	-2.811619e-03
1.000000e+00	1.052632e+00	-2.811619e-03
9.931674e-01	1.052632e+00	-3.773444e-03
9.755282e-01	1.052632e+00	-6.224929e-03
9.448927e-01	1.052632e+00	-1.034803e-02
9.045085e-01	1.052632e+00	-1.558626e-02
8.530689e-01	1.052632e+00	-2.187768e-02
7.938926e-01	1.052632e+00	-2.871648e-02
7.266841e-01	1.052632e+00	-3.585282e-02
6.545085e-01	1.052632e+00	-4.290435e-02
5.781101e-01	1.052632e+00	-4.941583e-02
5.000000e-01	1.052632e+00	-5.512187e-02
4.218900e-01	1.052632e+00	-5.932895e-02
3.454915e-01	1.052632e+00	-6.195102e-02
2.733158e-01	1.052632e+00	-6.218093e-02
2.061074e-01	1.052632e+00	-6.026605e-02
1.469311e-01	1.052632e+00	-5.557550e-02
9.549150e-02	1.052632e+00	-4.874023e-02
5.510729e-02	1.052632e+00	-3.950917e-02
2.447174e-02	1.052632e+00	-2.867410e-02
6.832625e-03	1.052632e+00	-1.624510e-02
0.000000e+00	1.052632e+00	-2.811619e-03
6.832625e-03	1.052632e+00	1.062187e-02
2.447174e-02	1.052632e+00	2.305086e-02
5.510728e-02	1.052632e+00	3.388593e-02
9.549150e-02	1.052632e+00	4.311699e-02
1.469311e-01	1.052632e+00	4.995227e-02
2.061074e-01	1.052632e+00	5.464282e-02
2.733158e-01	1.052632e+00	5.655769e-02
3.454915e-01	1.052632e+00	5.632778e-02
4.218900e-01	1.052632e+00	5.370571e-02
5.000000e-01	1.052632e+00	4.949863e-02
5.781101e-01	1.052632e+00	4.379260e-02
6.545085e-01	1.052632e+00	3.728111e-02
7.266841e-01	1.052632e+00	3.022958e-02
7.938926e-01	1.052632e+00	2.309324e-02
8.530689e-01	1.052632e+00	1.625444e-02
9.045085e-01	1.052632e+00	9.963021e-03
9.448927e-01	1.052632e+00	4.724791e-03
9.755282e-01	1.052632e+00	6.016906e-04
9.931674e-01	1.052632e+00	-1.849794e-03
1.000000e+00	1.052632e+00	-2.811619e-03
1.000000e+00	2.105263e+00	-2.811619e-03
9.931674e-01	2.105263e+00	-3.773444e-03
9.755282e-01	2.105263e+00	-6.224929e-03
9.448927e-01	2.105263e+00	-1.034803e-02
9.045085e-01	2.105263e+00	-1.558626e-02
8.530689e-01	2.105263e+00	-2.187768e-02
7.938926e-01	2.105263e+00	-2.871648e-02
7.266841e-01	2.105263e+00	-3.585282e-02
6.545085e-01	2.105263e+00	-4.290435e-02
5.781101e-01	2.105263e+00	-4.941583e-02
5.000000e-01	2.105263e+00	-5.512187e-02
4.218900e-01	2.105263e+00	-5.932895e-02
3.454915e-01	2.105263e+00	-6.195102e-02
2.733158e-01	2.105263e+00	-6.218093e-02
2.061074e-01	2.105263e+00	-6.026605e-02
1.469312e-01	2.105263e+00	-5.557550e-02
9.549150e-02	2.105263e+00	-4.874023e-02
5.510729e-02	2.105263e+00	-3.950917e-02
2.447174e-02	2.105263e+00	-2.867410e-02
6.832625e-03	2.105263e+00	-1.624510e-02
0.000000e+00	2.105263e+00	-2.811619e-03
6.832625e-03	2.105263e+00	1.062187e-02
2.447174e-02	2.105263e+00	2.305086e-02
5.510728e-02	2.105263e+00	3.388593e-02
9.549150e-02	2.105263e+00	4.311699e-02
1.469312e-01	2.105263e+00	4.995227e-02
2.061074e-01	2.105263e+00	5.464282e-02
2.733158e-01	2.105263e+00	5.655769e-02
3.454915e-01	2.105263e+00	5.632778e-02
4.218900e-01	2.105263e+00	5.370571e-02
5.000000e-01	2.105263e+00	4.949863e-02
5.781101e-01	2.105263e+00	4.379260e-02
6.545085e-01	2.105263e+00	3.728111e-02
7.266841e-01	2.105263e+00	3.022958e-02
7.938926e-01	2.105263e+00	2.309324e-02
8.530689e-01	2.105263e+00	1.625444e-02
9.045085e-01	2.105263e+00	9.963021e-03
9.448927e-01	2.105263e+00	4.724791e-03
9.755282e-01	2.105263e+00	6.016906e-04
9.931674e-01	2.105263e+00	-1.849794e-03
1.000000e+00	2.105263e+00	-2.811619e-03
1.000000e+00	3.157895e+00	-2.811619e-03
9.931674e-01	3.157895e+00	-3.773444e-03
9.755282e-01	3.157895e+00	-6.224929e-03
9.448927e-01	3.157895e+00	-1.034803e-02
9.045085e-01	3.157895e+00	-1.558626e-02
8.530689e-01	3.157895e+00	-2.187768e-02
7.938926e-01	3.157895e+00	-2.871648e-02
7.266842e-01	3.157895e+00	-3.585282e-02
6.545085e-01	3.157895e+00	-4.290435e-02
5.781101e-01	3.157895e+00	-4.941583e-02
5.000000e-01	3.157895e+00	-5.512187e-02
4.218900e-01	3.157895e+00	-5.932895e-02
3.454915e-01	3.157895e+00	-6.195102e-02
2.733158e-01	3.157895e+00	-6.218093e-02
2.061074e-01	3.157895e+00	-6.026605e-02
1.469312e-01	3.157895e+00	-5.557550e-02
9.549150e-02	3.157895e+00	-4.874023e-02
5.510729e-02	3.157895e+00	-3.950917e-02
2.447174e-02	3.157895e+00	-2.867410e-02
6.832625e-03	3.157895e+00	-1.624510e-02
0.000000e+00	3.157895e+00	-2.811619e-03
6.832625e-03	3.157895e+00	1.062187e-02
2.447174e-02	3.157895e+00	2.305086e-02
5.510728e-02	3.157895e+00	3.388593e-02
9.549150e-02	3.157895e+00	4.311699e-02
1.469312e-01	3.157895e+00	4.995227e-02
2.061074e-01	3.157895e+00	5.464282e-02
2.733158e-01	3.157895e+00	5.655769e-02
3.454915e-01	3.157895e+00	5.632778e-02
4.218900e-01	3.157895e+00	5.370571e-02
5.000000e-01	3.157895e+00	4.949863e-02
5.781101e-01	3.157895e+00	4.379260e-02
6.545085e-01	3.157895e+00	3.728111e-02
7.266842e-01	3.157895e+00	3.022958e-02
7.938926e-01	3.157895e+00	2.309324e-02
8.530689e-01	3.157895e+00	1.625444e-02
9.045085e-01	3.157895e+00	9.963021e-03
9.448927e-01	3.157895e+00	4.724791e-03
9.755282e-01	3.157895e+00	6.016906e-04
9.931674e-01	3.157895e+00	-1.849794e-03
1.000000e+00	3.157895e+00	-2.811619e-03
1.000000e+00	4.210526e+00	-2.811619e-03
9.931674e-01	4.210526e+00	-3.773444e-03
9.755282e-01	4.210526e+00	-6.224929e-03
9.448927e-01	4.210526e+00	-1.034803e-02
9.045085e-01	4.210526e+00	-1.558626e-02
8.530689e-01	4.210526e+00	-2.187768e-02
7.938926e-01	4.210526e+00	-2.871648e-02
7.266841e-01	4.210526e+00	-3.585282e-02
6.545085e-01	4.210526e+00	-4.290435e-02
5.781101e-01	4.210526e+00	-4.941583e-02
5.000000e-01	4.210526e+00	-5.512187e-02
4.218900e-01	4.210526e+00	-5.932895e-02
3.454915e-01	4.210526e+00	-6.195102e-02
2.733158e-01	4.210526e+00	-6.218093e-02
2.061074e-01	4.210526e+00	-6.026605e-02
1.469311e-01	4.210526e+00	-5.557550e-02
9.549150e-02	4.210526e+00	-4.874023e-02
5.510729e-02	4.210526e+00	-3.950917e-02
2.447174e-02	4.210526e+00	-2.867410e-02
6.832625e-03	4.210526e+00	-1.624510e-02
0.000000e+00	4.210526e+00	-2.811619e-03
6.832625e-03	4.210526e+00	1.062187e-02
2.447174e-02	4.210526e+00	2.305086e-02
5.510728e-02	4.210526e+00	3.388593e-02
9.549150e-02	4.210526e+00	4.311699e-02
1.469311e-01	4.210526e+00	4.995227e-02
2.061074e-01	4.210526e+00	5.464282e-02
2.733158e-01	4.210526e+00	5.655769e-02
3.454915e-01	4.210526e+00	5.632778e-02
4.218900e-01	4.210526e+00	5.370571e-02
5.000000e-01	4.210526e+00	4.949863e-02
5.781101e-01	4.210526e+00	4.379260e-02
6.545085e-01	4.210526e+00	3.728111e-02
7.266841e-01	4.210526e+00	3.022958e-02
7.938926e-01	4.210526e+00	2.309324e-02
8.530689e-01	4.210526e+00	1.625444e-02
9.045085e-01	4.210526e+00	9.963021e-03
9.448927e-01	4.210526e+00	4.724791e-03
9.755282e-01	4.210526e+00	6.016906e-04
9.931674e-01	4.210526e+00	-1.849794e-03
1.000000e+00	4.210526e+00	-2.811619e-03
1.000000e+00	5.263158e+00	-2.811619e-03
9.931674e-01	5.263158e+00	-3.773444e-03
9.755282e-01	5.263158e+00	-6.224929e-03
9.448927e-01	5.263158e+00	-1.034803e-02
9.045085e-01	5.263158e+00	-1.558626e-02
8.530689e-01	5.263158e+00	-2.187768e-02
7.938926e-01	5.263158e+00	-2.871648e-02
7.266842e-01	5.263158e+00	-3.585282e-02
6.545085e-01	5.263158e+00	-4.290435e-02
5.781101e-01	5.263158e+00	-4.941583e-02
5.000000e-01	5.263158e+00	-5.512187e-02
4.218900e-01	5.263158e+00	-5.932895e-02
3.454915e-01	5.263158e+00	-6.195102e-02
2.733158e-01	5.263158e+00	-6.218093e-02
2.061074e-01	5.263158e+00	-6.026605e-02
1.469311e-01	5.263158e+00	-5.557550e-02
9.549150e-02	5.263158e+00	-4.874023e-02
5.510729e-02	5.263158e+00	-3.950917e-02
2.447174e-02	5.263158e+00	-2.867410e-02
6.832625e-03	5.263158e+00	-1.624510e-02
0.000000e+00	5.263158e+00	-2.811619e-03
6.832625e-03	5.263158e+00	1.062187e-02
2.447174e-02	5.263158e+00	2.305086e-02
5.510728e-02	5.263158e+00	3.388593e-02
9.549150e-02	5.263158e+00	4.311699e-02
1.469311e-01	5.263158e+00	4.995227e-02
2.061074e-01	5.263158e+00	5.464282e-02
2.733158e-01	5.263158e+00	5.655769e-02
3.454915e-01	5.263158e+00	5.632778e-02
4.218900e-01	5.263158e+00	5.370571e-02
5.000000e-01	5.263158e+00	4.949863e-02
5.781101e-01	5.263158e+00	4.379260e-02
6.545085e-01	5.263158e+00	3.728111e-02
7.266842e-01	5.263158e+00	3.022958e-02
7.938926e-01	5.263158e+00	2.309324e-02
8.530689e-01	5.263158e+00	1.625444e-02
9.045085e-01	5.263158e+00	9.963021e-03
9.448927e-01	5.263158e+00	4.724791e-03
9.755282e-01	5.263158e+00	6.016906e-04
9.931674e-01	5.263158e+00	-1.849794e-03
1.000000e+00	5.263158e+00	-2.811619e-03
1.000000e+00	6.315789e+00	-2.811619e-03
9.931673e-01	6.315789e+00	-3.773444e-03
9.755282e-01	6.315789e+00	-6.224929e-03
9.448927e-01	6.315789e+00	-1.034803e-02
[...]
CELL_DATA 760
VECTORS V double
2.890435e-01	9.508236e-04	4.068835e-02
3.075325e-01	9.561926e-04	4.274079e-02
3.247241e-01	9.562163e-04	4.370321e-02
3.390434e-01	9.407122e-04	4.397728e-02
3.498476e-01	9.049588e-04	4.278875e-02
3.599541e-01	8.449164e-04	4.159868e-02
3.676674e-01	7.560169e-04	3.903973e-02
3.756022e-01	6.339717e-04	3.669617e-02
3.825753e-01	4.785914e-04	3.260712e-02
3.902198e-01	2.930106e-04	2.850603e-02
3.974481e-01	8.567544e-05	2.140694e-02
4.049832e-01	-1.299825e-04	1.389941e-02
4.118035e-01	-3.389679e-04	1.311769e-03
4.176040e-01	-5.260631e-04	-1.189823e-02
4.236305e-01	-6.815965e-04	-3.357864e-02
4.217884e-01	-7.995265e-04	-5.604703e-02
4.096339e-01	-8.818946e-04	-9.363448e-02
3.845543e-01	-9.319966e-04	-1.360078e-01
2.955769e-01	-9.571803e-04	-2.082714e-01
8.805348e-02	-9.611680e-04	-1.731202e-01
9.864937e-02	-9.435847e-04	1.939525e-01
3.072775e-01	-9.092475e-04	2.165160e-01
3.934713e-01	-8.535641e-04	1.391615e-01
4.162929e-01	-7.742930e-04	9.515661e-02
4.268900e-01	-6.634055e-04	5.672493e-02
4.276510e-01	-5.187567e-04	3.389739e-02
4.208121e-01	-3.388866e-04	1.198957e-02
4.144387e-01	-1.310881e-04	-1.320163e-03
4.071971e-01	9.394077e-05	-1.397540e-02
3.994112e-01	3.198584e-04	-2.151267e-02
3.920740e-01	5.311786e-04	-2.864149e-02
3.845165e-01	7.147263e-04	-3.277257e-02
3.778764e-01	8.630003e-04	-3.691836e-02
3.706627e-01	9.750145e-04	-3.935777e-02
3.642970e-01	1.055247e-03	-4.210057e-02
3.566212e-01	1.111273e-03	-4.361721e-02
3.499902e-01	1.152116e-03	-4.539719e-02
3.424354e-01	1.185775e-03	-4.608691e-02
3.346753e-01	1.216235e-03	-4.651310e-02
3.265754e-01	1.237991e-03	-4.597167e-02
2.885905e-01	5.464449e-04	4.062459e-02
3.074390e-01	5.488698e-04	4.272780e-02
3.250325e-01	5.476093e-04	4.374473e-02
3.397171e-01	5.370290e-04	4.406467e-02
3.508437e-01	5.145805e-04	4.291058e-02
3.612708e-01	4.781799e-04	4.175086e-02
3.693285e-01	4.256042e-04	3.921610e-02
3.776171e-01	3.548501e-04	3.689303e-02
3.849297e-01	2.660976e-04	3.280779e-02
3.928688e-01	1.612785e-04	2.869955e-02
4.003052e-01	4.506593e-05	2.156082e-02
4.079293e-01	-7.531485e-05	1.400053e-02
4.147014e-01	-1.918892e-04	1.320999e-03
4.203214e-01	-2.965359e-04	-1.197565e-02
4.260564e-01	-3.840758e-04	-3.377092e-02
4.238503e-01	-4.511125e-04	-5.632102e-02
4.112876e-01	-4.985663e-04	-9.401249e-02
3.857631e-01	-5.279049e-04	-1.364353e-01
2.962076e-01	-5.429234e-04	-2.087158e-01
8.789716e-02	-5.453950e-04	-1.728128e-01
9.952375e-02	-5.348360e-04	1.956716e-01
3.090540e-01	-5.141557e-04	2.177678e-01
3.955865e-01	-4.808835e-04	1.399096e-01
4.186461e-01	-4.341524e-04	9.569450e-02
4.295102e-01	-3.697703e-04	5.707310e-02
4.305244e-01	-2.869497e-04	3.412515e-02
4.238837e-01	-1.850932e-04	1.207709e-02
4.176039e-01	-6.829478e-05	-1.330245e-03
4.103249e-01	5.772754e-05	-1.408275e-02
4.023643e-01	1.842808e-04	-2.167173e-02
3.947363e-01	3.031846e-04	-2.883597e-02
3.868086e-01	4.074255e-04	-3.296793e-02
3.797680e-01	4.929315e-04	-3.710317e-02
3.721771e-01	5.590098e-04	-3.951858e-02
3.655003e-01	6.078169e-04	-4.223964e-02
3.576197e-01	6.431983e-04	-4.373933e-02
3.509340e-01	6.697800e-04	-4.551960e-02
3.435183e-01	6.916607e-04	-4.623265e-02
3.360879e-01	7.107704e-04	-4.670942e-02
3.284110e-01	7.239059e-04	-4.623007e-02
2.886343e-01	9.240039e-05	4.063075e-02
3.075346e-01	9.198612e-05	4.274108e-02
3.251796e-01	9.016757e-05	4.376452e-02
3.399079e-01	8.627537e-05	4.408941e-02
3.510696e-01	8.010919e-05	4.293821e-02
3.615261e-01	7.162923e-05	4.178035e-02
3.696088e-01	6.095284e-05	3.924587e-02
3.779186e-01	4.828289e-05	3.692249e-02
3.852483e-01	3.397206e-05	3.283494e-02
3.932001e-01	1.847842e-05	2.872375e-02
4.006443e-01	2.359154e-06	2.157909e-02
4.082712e-01	-1.375474e-05	1.401226e-02
4.150404e-01	-2.927305e-05	1.322080e-03
4.206520e-01	-4.355448e-05	-1.198507e-02
4.263721e-01	-5.616574e-05	-3.379595e-02
4.241442e-01	-6.662049e-05	-5.636008e-02
4.115495e-01	-7.477610e-05	-9.407236e-02
3.859769e-01	-8.037726e-05	-1.365109e-01
2.963319e-01	-8.355890e-05	-2.088034e-01
8.786861e-02	-8.418551e-05	-1.727567e-01
9.970178e-02	-8.185491e-05	1.960217e-01
3.094054e-01	-7.722842e-05	2.180153e-01
3.959766e-01	-7.008933e-05	1.400476e-01
4.190406e-01	-6.079168e-05	9.578467e-02
4.299069e-01	-4.912488e-05	5.712582e-02
4.309203e-01	-3.547846e-05	3.415653e-02
4.242765e-01	-2.003235e-05	1.208828e-02
4.179899e-01	-3.361368e-06	-1.331475e-03
4.107009e-01	1.407222e-05	-1.409565e-02
4.027269e-01	3.161439e-05	-2.169126e-02
3.950830e-01	4.872235e-05	-2.886130e-02
3.871375e-01	6.486344e-05	-3.299596e-02
3.800789e-01	7.963287e-05	-3.713354e-02
3.724714e-01	9.276847e-05	-3.954983e-02
3.657822e-01	1.041511e-04	-4.227222e-02
3.578969e-01	1.138315e-04	-4.377323e-02
3.512181e-01	1.219278e-04	-4.555646e-02
3.438246e-01	1.285495e-04	-4.627387e-02
3.364300e-01	1.336133e-04	-4.675696e-02
3.287919e-01	1.365525e-04	-4.628369e-02
2.886604e-01	3.069501e-05	4.063443e-02
3.075771e-01	3.046045e-05	4.274700e-02
3.252368e-01	2.965362e-05	4.377222e-02
3.399761e-01	2.809952e-05	4.409826e-02
3.511457e-01	2.578545e-05	4.294751e-02
3.616078e-01	2.275238e-05	4.178980e-02
3.696949e-01	1.908470e-05	3.925501e-02
3.780083e-01	1.487180e-05	3.693125e-02
3.853409e-01	1.022942e-05	3.284284e-02
3.932950e-01	5.290398e-06	2.873068e-02
4.007407e-01	2.065466e-07	2.158428e-02
4.083683e-01	-4.854138e-06	1.401559e-02
4.151372e-01	-9.736894e-06	1.322388e-03
4.207474e-01	-1.426236e-05	-1.198779e-02
4.264644e-01	-1.830504e-05	-3.380327e-02
4.242317e-01	-2.170744e-05	-5.637169e-02
4.116288e-01	-2.440809e-05	-9.409048e-02
3.860428e-01	-2.629693e-05	-1.365342e-01
2.963706e-01	-2.739027e-05	-2.088307e-01
8.785939e-02	-2.761670e-05	-1.727386e-01
9.975836e-02	-2.682482e-05	1.961329e-01
3.095162e-01	-2.524090e-05	2.180935e-01
3.960983e-01	-2.280846e-05	1.400906e-01
4.191618e-01	-1.967366e-05	9.581238e-02
4.300269e-01	-1.579338e-05	5.714175e-02
4.310381e-01	-1.131922e-05	3.416587e-02
4.243919e-01	-6.319546e-06	1.209156e-02
4.181024e-01	-9.749465e-07	-1.331833e-03
4.108101e-01	4.584395e-06	-1.409940e-02
4.028324e-01	1.017476e-05	-2.169694e-02
3.951846e-01	1.565160e-05	-2.886872e-02
3.872352e-01	2.086620e-05	-3.300428e-02
3.801726e-01	2.570051e-05	-3.714270e-02
3.725617e-01	3.006772e-05	-3.955941e-02
3.658700e-01	3.391277e-05	-4.228237e-02
3.579839e-01	3.722187e-05	-4.378387e-02
3.513070e-01	3.999525e-05	-4.556799e-02
3.439192e-01	4.224333e-05	-4.628661e-02
3.365342e-01	4.393584e-05	-4.677145e-02
3.289069e-01	4.490695e-05	-4.629988e-02
2.886739e-01	1.428494e-05	4.063632e-02
3.075976e-01	1.415915e-05	4.274984e-02
3.252634e-01	1.375604e-05	4.377580e-02
3.400071e-01	1.300263e-05	4.410228e-02
3.511796e-01	1.189989e-05	4.295167e-02
3.616438e-01	1.047479e-05	4.179396e-02
3.697324e-01	8.770227e-06	3.925899e-02
3.780470e-01	6.829730e-06	3.693503e-02
3.853805e-01	4.710464e-06	3.284621e-02
3.933352e-01	2.470320e-06	2.873362e-02
4.007813e-01	1.756692e-07	2.158647e-02
4.084091e-01	-2.103559e-06	1.401699e-02
4.151780e-01	-4.303935e-06	1.322518e-03
4.207877e-01	-6.349343e-06	-1.198894e-02
4.265038e-01	-8.186025e-06	-3.380639e-02
4.242692e-01	-9.743239e-06	-5.637668e-02
4.116632e-01	-1.099146e-05	-9.409835e-02
3.860718e-01	-1.187648e-05	-1.365445e-01
2.963883e-01	-1.240202e-05	-2.088432e-01
8.785629e-02	-1.253042e-05	-1.727325e-01
9.978195e-02	-1.219371e-05	1.961793e-01
3.095631e-01	-1.148870e-05	2.181265e-01
3.961498e-01	-1.039602e-05	1.401089e-01
4.192130e-01	-8.985743e-06	9.582409e-02
4.300774e-01	-7.243327e-06	5.714846e-02
4.310875e-01	-5.240596e-06	3.416978e-02
4.244401e-01	-3.009665e-06	1.209294e-02
4.181493e-01	-6.306737e-07	-1.331982e-03
4.108555e-01	1.840693e-06	-1.410096e-02
4.028764e-01	4.326792e-06	-2.169931e-02
3.952271e-01	6.768801e-06	-2.887183e-02
3.872762e-01	9.104017e-06	-3.300778e-02
3.802122e-01	1.128107e-05	-3.714657e-02
3.726002e-01	1.326349e-05	-3.956350e-02
3.659077e-01	1.502135e-05	-4.228672e-02
3.580215e-01	1.654324e-05	-4.378847e-02
3.513454e-01	1.782249e-05	-4.557298e-02
3.439600e-01	1.885725e-05	-4.629209e-02
3.365788e-01	1.963065e-05	-4.677764e-02
3.289558e-01	2.006981e-05	-4.630676e-02
2.886817e-01	7.965991e-06	4.063741e-02
3.076089e-01	7.890002e-06	4.275141e-02
3.252777e-01	7.658881e-06	4.377773e-02
3.400236e-01	7.235703e-06	4.410443e-02
3.511976e-01	6.622240e-06	4.295387e-02
3.616628e-01	5.833562e-06	4.179615e-02
3.697520e-01	4.895290e-06	3.926108e-02
3.780671e-01	3.832608e-06	3.693700e-02
3.854011e-01	2.675817e-06	3.284796e-02
3.933561e-01	1.455515e-06	2.873514e-02
4.008025e-01	2.050764e-07	2.158761e-02
4.084304e-01	-1.038806e-06	1.401773e-02
4.151993e-01	-2.241705e-06	1.322586e-03
4.208089e-01	-3.362936e-06	-1.198954e-02
4.265244e-01	-4.373987e-06	-3.380802e-02
4.242891e-01	-5.236159e-06	-5.637932e-02
4.116816e-01	-5.932917e-06	-9.410256e-02
3.860875e-01	-6.433225e-06	-1.365501e-01
2.963983e-01	-6.738377e-06	-2.088502e-01
8.785535e-02	-6.825882e-06	-1.727306e-01
9.979363e-02	-6.660528e-06	1.962022e-01
3.095869e-01	-6.290091e-06	2.181432e-01
3.961762e-01	-5.707318e-06	1.401182e-01
4.192393e-01	-4.950914e-06	9.583009e-02
4.301032e-01	-4.014539e-06	5.715190e-02
4.311128e-01	-2.937801e-06	3.417179e-02
4.244648e-01	-1.738281e-06	1.209364e-02
4.181733e-01	-4.589256e-07	-1.332059e-03
4.108789e-01	8.709447e-07	-1.410176e-02
4.028990e-01	2.210497e-06	-2.170053e-02
3.952490e-01	3.528332e-06	-2.887343e-02
3.872974e-01	4.792720e-06	-3.300959e-02
3.802328e-01	5.976914e-06	-3.714859e-02
3.726203e-01	7.060181e-06	-3.956564e-02
3.659275e-01	8.024810e-06	-4.228901e-02
3.580413e-01	8.861866e-06	-4.379089e-02
3.513657e-01	9.566184e-06	-4.557560e-02
3.439814e-01	1.013510e-05	-4.629497e-02
3.366020e-01	1.055680e-05	-4.678087e-02
3.289810e-01	1.079327e-05	-4.631032e-02
2.886867e-01	4.995469e-06	4.063813e-02
3.076160e-01	4.944623e-06	4.275240e-02
3.252865e-01	4.798020e-06	4.377891e-02
3.400336e-01	4.534719e-06	4.410573e-02
3.512085e-01	4.156183e-06	4.295519e-02
3.616741e-01	3.672978e-06	4.179746e-02
3.697637e-01	3.100615e-06	3.926232e-02
3.780791e-01	2.454520e-06	3.693817e-02
3.854133e-01	1.752384e-06	3.284900e-02
3.933685e-01	1.012724e-06	2.873605e-02
4.008150e-01	2.552244e-07	2.158828e-02
4.084431e-01	-4.989973e-07	1.401816e-02
4.152120e-01	-1.230348e-06	1.322626e-03
4.208215e-01	-1.914746e-06	-1.198990e-02
4.265369e-01	-2.535113e-06	-3.380901e-02
4.243011e-01	-3.067773e-06	-5.638092e-02
4.116929e-01	-3.502235e-06	-9.410512e-02
3.860973e-01	-3.818514e-06	-1.365535e-01
2.964047e-01	-4.016854e-06	-2.088548e-01
8.785522e-02	-4.082227e-06	-1.727304e-01
9.980017e-02	-3.994486e-06	1.962151e-01
3.096006e-01	-3.779056e-06	2.181529e-01
3.961915e-01	-3.433675e-06	1.401236e-01
4.192546e-01	-2.982016e-06	9.583360e-02
4.301184e-01	-2.421123e-06	5.715392e-02
4.311277e-01	-1.775434e-06	3.417297e-02
4.244793e-01	-1.056069e-06	1.209405e-02
4.181874e-01	-2.889273e-07	-1.332104e-03
4.108926e-01	5.087313e-07	-1.410223e-02
4.029123e-01	1.313213e-06	-2.170124e-02
3.952619e-01	2.106459e-06	-2.887437e-02
3.873100e-01	2.869799e-06	-3.301066e-02
3.802451e-01	3.587145e-06	-3.714978e-02
3.726323e-01	4.245099e-06	-3.956691e-02
3.659393e-01	4.832753e-06	-4.229038e-02
3.580530e-01	5.343846e-06	-4.379233e-02
3.513777e-01	5.773317e-06	-4.557717e-02
3.439940e-01	6.118624e-06	-4.629668e-02
3.366157e-01	6.372295e-06	-4.678277e-02
3.289957e-01	6.512806e-06	-4.631238e-02
2.886902e-01	3.148020e-06	4.063862e-02
3.076206e-01	3.138055e-06	4.275305e-02
3.252922e-01	3.100426e-06	4.377967e-02
3.400401e-01	3.028225e-06	4.410656e-02
3.512153e-01	2.925609e-06	4.295603e-02
3.616813e-01	2.797075e-06	4.179829e-02
3.697711e-01	2.636784e-06	3.926310e-02
3.780867e-01	2.428579e-06	3.693890e-02
3.854210e-01	2.152690e-06	3.284966e-02
3.933763e-01	1.799963e-06	2.873662e-02
4.008229e-01	1.365840e-06	2.158871e-02
4.084511e-01	8.822867e-07	1.401843e-02
4.152200e-01	3.890603e-07	1.322652e-03
4.208295e-01	-7.187933e-08	-1.199013e-02
4.265448e-01	-4.756646e-07	-3.380964e-02
4.243089e-01	-8.073970e-07	-5.638195e-02
4.117002e-01	-1.069566e-06	-9.410680e-02
3.861038e-01	-1.258573e-06	-1.365558e-01
2.964092e-01	-1.379202e-06	-2.088579e-01
8.785550e-02	-1.423470e-06	-1.727309e-01
9.980400e-02	-1.380503e-06	1.962226e-01
3.096090e-01	-1.262637e-06	2.181588e-01
3.962010e-01	-1.069559e-06	1.401269e-01
4.192642e-01	-8.133201e-07	9.583578e-02
4.301279e-01	-4.876505e-07	5.715517e-02
4.311369e-01	-9.827918e-08	3.417370e-02
4.244883e-01	3.574060e-07	1.209431e-02
4.181962e-01	8.629839e-07	-1.332132e-03
4.109011e-01	1.394417e-06	-1.410252e-02
4.029206e-01	1.910180e-06	-2.170169e-02
3.952700e-01	2.370884e-06	-2.887496e-02
3.873178e-01	2.747878e-06	-3.301133e-02
3.802528e-01	3.043067e-06	-3.715053e-02
3.726398e-01	3.270161e-06	-3.956771e-02
3.659468e-01	3.452706e-06	-4.229124e-02
3.580605e-01	3.610519e-06	-4.379324e-02
3.513854e-01	3.752330e-06	-4.557815e-02
3.440020e-01	3.876441e-06	-4.629775e-02
3.366241e-01	3.975513e-06	-4.678395e-02
3.290047e-01	4.033807e-06	-4.631365e-02
2.886884e-01	-3.336897e-04	4.063837e-02
3.076189e-01	-3.342838e-04	4.275280e-02
3.252904e-01	-3.361679e-04	4.377943e-02
3.400381e-01	-3.327635e-04	4.410631e-02
3.512132e-01	-3.223178e-04	4.295577e-02
3.616792e-01	-3.343053e-04	4.179805e-02
3.697695e-01	-2.813161e-04	3.926294e-02
3.780862e-01	-3.044159e-04	3.693885e-02
3.854220e-01	-2.180704e-04	3.284974e-02
3.933791e-01	-2.506778e-04	2.873683e-02
4.008274e-01	-1.321060e-04	2.158895e-02
4.084566e-01	-1.719914e-04	1.401862e-02
4.152260e-01	-2.868881e-05	1.322671e-03
4.208352e-01	-7.505907e-05	-1.199029e-02
4.265499e-01	8.686541e-05	-3.381004e-02
4.243133e-01	1.891932e-04	-5.638254e-02
4.117040e-01	2.367013e-04	-9.410768e-02
3.861071e-01	2.189665e-04	-1.365570e-01
2.964115e-01	2.103116e-04	-2.088595e-01
8.785575e-02	2.068782e-04	-1.727314e-01
9.980572e-02	2.068948e-04	1.962260e-01
3.096129e-01	2.103567e-04	2.181616e-01
3.962055e-01	2.190400e-04	1.401285e-01
4.192690e-01	2.368013e-04	9.583687e-02
4.301330e-01	1.893185e-04	5.715586e-02
4.311426e-01	8.701432e-05	3.417415e-02
4.244945e-01	-7.488824e-05	1.209449e-02
4.182026e-01	-2.849755e-05	-1.332152e-03
4.109071e-01	-1.717810e-04	-1.410273e-02
4.029255e-01	-1.318777e-04	-2.170195e-02
3.952732e-01	-2.504322e-04	-2.887519e-02
3.873193e-01	-2.178076e-04	-3.301145e-02
3.802527e-01	-3.041350e-04	-3.715052e-02
3.726387e-01	-2.810150e-04	-3.956759e-02
3.659453e-01	-3.339806e-04	-4.229107e-02
3.580591e-01	-3.219655e-04	-4.379308e-02
3.513844e-01	-3.323794e-04	-4.557804e-02
3.440017e-01	-3.357508e-04	-4.629770e-02
3.366244e-01	-3.338355e-04	-4.678398e-02
3.290055e-01	-3.332199e-04	-4.631376e-02
2.887905e-01	4.422749e-08	4.065273e-02
3.077694e-01	4.541535e-08	4.277372e-02
3.252076e-01	4.685512e-08	4.376829e-02
3.396710e-01	4.897238e-08	4.405869e-02
3.512888e-01	5.161108e-08	4.296502e-02
3.608905e-01	5.368485e-08	4.170691e-02
3.693616e-01	5.516766e-08	3.921962e-02
3.771217e-01	5.662949e-08	3.684462e-02
3.847113e-01	5.779017e-08	3.278917e-02
3.922074e-01	5.378661e-08	2.865123e-02
3.997469e-01	5.409287e-08	2.153075e-02
4.070673e-01	5.372862e-08	1.397094e-02
4.137156e-01	5.256468e-08	1.317859e-03
4.191637e-01	5.120855e-08	-1.194267e-02
4.218302e-01	4.987340e-08	-3.343594e-02
4.211735e-01	4.779269e-08	-5.596532e-02
4.107932e-01	4.516931e-08	-9.389947e-02
3.869529e-01	4.206982e-08	-1.368561e-01
2.969045e-01	3.842882e-08	-2.092069e-01
8.798371e-02	3.444451e-08	-1.729830e-01
9.993417e-02	2.942129e-08	1.964785e-01
3.101064e-01	2.476739e-08	2.185093e-01
3.970518e-01	1.981787e-08	1.404278e-01
4.183584e-01	1.483768e-08	9.562873e-02
4.269934e-01	9.737642e-09	5.673868e-02
4.264230e-01	4.667336e-09	3.380006e-02
4.228232e-01	-7.038837e-10	1.204687e-02
4.166923e-01	-5.217137e-09	-1.327341e-03
4.095179e-01	-9.130889e-09	-1.405505e-02
4.018450e-01	-1.383225e-08	-2.164376e-02
3.941016e-01	-1.854764e-08	-2.878960e-02
3.866087e-01	-2.061745e-08	-3.295089e-02
3.792883e-01	-2.460539e-08	-3.705631e-02
3.722309e-01	-2.764668e-08	-3.952429e-02
3.651569e-01	-2.955951e-08	-4.219996e-02
3.581352e-01	-3.023219e-08	-4.380237e-02
3.510179e-01	-2.998084e-08	-4.553049e-02
3.439196e-01	-2.898017e-08	-4.628666e-02
3.367758e-01	-2.815888e-08	-4.680502e-02
3.291086e-01	-2.755397e-08	-4.632828e-02
2.886882e-01	3.337601e-04	4.063834e-02
3.076187e-01	3.343517e-04	4.275278e-02
3.252903e-01	3.362372e-04	4.377942e-02
3.400380e-01	3.328374e-04	4.410629e-02
3.512131e-01	3.223994e-04	4.295576e-02
3.616791e-01	3.343962e-04	4.179804e-02
3.697695e-01	2.814169e-04	3.926293e-02
3.780861e-01	3.045263e-04	3.693885e-02
3.854220e-01	2.181895e-04	3.284975e-02
3.933791e-01	2.508044e-04	2.873683e-02
4.008274e-01	1.322383e-04	2.158895e-02
4.084567e-01	1.721274e-04	1.401863e-02
4.152260e-01	2.882677e-05	1.322671e-03
4.208352e-01	7.519683e-05	-1.199029e-02
4.265500e-01	-8.673016e-05	-3.381005e-02
4.243134e-01	-1.890626e-04	-5.638255e-02
4.117042e-01	-2.365772e-04	-9.410771e-02
3.861073e-01	-2.188504e-04	-1.365570e-01
2.964118e-01	-2.102052e-04	-2.088597e-01
8.785603e-02	-2.067824e-04	-1.727320e-01
9.980541e-02	-2.068123e-04	1.962254e-01
3.096125e-01	-2.102862e-04	2.181613e-01
3.962052e-01	-2.189817e-04	1.401284e-01
4.192687e-01	-2.367548e-04	9.583682e-02
4.301328e-01	-1.892834e-04	5.715583e-02
4.311424e-01	-8.698980e-05	3.417414e-02
4.244943e-01	7.490312e-05	1.209448e-02
4.182024e-01	2.850412e-05	-1.332152e-03
4.109070e-01	1.717810e-04	-1.410272e-02
4.029253e-01	1.318726e-04	-2.170195e-02
3.952731e-01	2.504235e-04	-2.887519e-02
3.873192e-01	2.177968e-04	-3.301144e-02
3.802526e-01	3.041236e-04	-3.715051e-02
3.726386e-01	2.810042e-04	-3.956758e-02
3.659453e-01	3.339713e-04	-4.229106e-02
3.580591e-01	3.219583e-04	-4.379307e-02
3.513845e-01	3.323741e-04	-4.557804e-02
3.440017e-01	3.357461e-04	-4.629771e-02
3.366245e-01	3.338293e-04	-4.678399e-02
3.290056e-01	3.332131e-04	-4.631378e-02
2.886906e-01	-3.089836e-06	4.063868e-02
3.076206e-01	-3.082707e-06	4.275304e-02
3.252920e-01	-3.044751e-06	4.377964e-02
3.400398e-01	-2.968448e-06	4.410652e-02
3.512150e-01	-2.858106e-06	4.295599e-02
3.616810e-01	-2.717606e-06	4.179825e-02
3.697708e-01	-2.543496e-06	3.926307e-02
3.780864e-01	-2.321471e-06	3.693888e-02
3.854207e-01	-2.032294e-06	3.284964e-02
3.933761e-01	-1.663117e-06	2.873661e-02
4.008228e-01	-1.219081e-06	2.158870e-02
4.084510e-01	-7.279213e-07	1.401843e-02
4.152200e-01	-2.315005e-07	1.322652e-03
4.208295e-01	2.883529e-07	-1.199013e-02
4.265449e-01	6.858431e-07	-3.380965e-02
4.243091e-01	1.009466e-06	-5.638198e-02
4.117006e-01	1.262601e-06	-9.410688e-02
3.861043e-01	1.441245e-06	-1.365560e-01
2.964100e-01	1.549495e-06	-2.088585e-01
8.785624e-02	1.579965e-06	-1.727324e-01
9.980321e-02	1.519523e-06	1.962211e-01
3.096081e-01	1.385698e-06	2.181582e-01
3.962003e-01	1.176181e-06	1.401267e-01
4.192636e-01	9.042441e-07	9.583565e-02
4.301274e-01	5.637800e-07	5.715512e-02
4.311365e-01	1.622073e-07	3.417367e-02
4.244880e-01	-3.584692e-07	1.209430e-02
4.181960e-01	-8.633549e-07	-1.332131e-03
4.109009e-01	-1.394404e-06	-1.410252e-02
4.029204e-01	-1.909607e-06	-2.170168e-02
3.952699e-01	-2.368761e-06	-2.887495e-02
3.873178e-01	-2.745423e-06	-3.301132e-02
3.802528e-01	-3.036844e-06	-3.715053e-02
3.726398e-01	-3.259542e-06	-3.956771e-02
3.659469e-01	-3.437621e-06	-4.229125e-02
3.580606e-01	-3.591732e-06	-4.379325e-02
3.513854e-01	-3.731515e-06	-4.557816e-02
3.440020e-01	-3.856653e-06	-4.629775e-02
3.366240e-01	-3.959346e-06	-4.678393e-02
3.290046e-01	-4.021891e-06	-4.631364e-02
2.886870e-01	-4.911482e-06	4.063817e-02
3.076159e-01	-4.861083e-06	4.275239e-02
3.252862e-01	-4.712926e-06	4.377887e-02
3.400332e-01	-4.443151e-06	4.410567e-02
3.512080e-01	-4.054435e-06	4.295513e-02
3.616736e-01	-3.557823e-06	4.179740e-02
3.697633e-01	-2.969936e-06	3.926227e-02
3.780787e-01	-2.307320e-06	3.693813e-02
3.854129e-01	-1.589230e-06	3.284897e-02
3.933682e-01	-8.344538e-07	2.873603e-02
4.008148e-01	-6.399157e-08	2.158827e-02
4.084430e-01	6.999029e-07	1.401816e-02
4.152112e-01	1.437330e-06	1.322623e-03
4.208206e-01	2.124373e-06	-1.198988e-02
4.265372e-01	2.744224e-06	-3.380903e-02
4.243016e-01	3.273281e-06	-5.638098e-02
4.116935e-01	3.701067e-06	-9.410526e-02
3.860982e-01	4.008029e-06	-1.365538e-01
2.964060e-01	4.194376e-06	-2.088556e-01