# vtk DataFile Version 2.0
OUTPUT by 3D-VPM
ASCII
DATASET UNSTRUCTURED_GRID
POINTS 820 double
9.510565e-01	0.000000e+00	-3.090170e-01
9.442611e-01	0.000000e+00	-3.078203e-01
9.267277e-01	0.000000e+00	-3.047010e-01
8.963175e-01	0.000000e+00	-2.991555e-01
8.562911e-01	0.000000e+00	-2.916579e-01
8.054250e-01	0.000000e+00	-2.817457e-01
7.470317e-01	0.000000e+00	-2.699633e-01
6.809074e-01	0.000000e+00	-2.559818e-01
6.100852e-01	0.000000e+00	-2.403847e-01
5.354138e-01	0.000000e+00	-2.229691e-01
4.593635e-01	0.000000e+00	-2.042585e-01
3.837764e-01	0.000000e+00	-1.841224e-01
3.103069e-01	0.000000e+00	-1.630077e-01
2.415927e-01	0.000000e+00	-1.409228e-01
1.782654e-01	0.000000e+00	-1.183331e-01
1.234349e-01	0.000000e+00	-9.558566e-02
7.662509e-02	0.000000e+00	-7.318920e-02
4.106998e-02	0.000000e+00	-5.193053e-02
1.528206e-02	0.000000e+00	-3.215886e-02
2.347037e-03	0.000000e+00	-1.488740e-02
0.000000e+00	0.000000e+00	0.000000e+00
1.064939e-02	0.000000e+00	1.066461e-02
3.126595e-02	0.000000e+00	1.703450e-02
6.375031e-02	0.000000e+00	1.787236e-02
1.050105e-01	0.000000e+00	1.417221e-02
1.560448e-01	0.000000e+00	4.777214e-03
2.137742e-01	0.000000e+00	-9.048270e-03
2.782849e-01	0.000000e+00	-2.799567e-02
3.468570e-01	0.000000e+00	-5.051783e-02
4.187060e-01	0.000000e+00	-7.662000e-02
4.916930e-01	0.000000e+00	-1.047585e-01
5.642168e-01	0.000000e+00	-1.343226e-01
6.348639e-01	0.000000e+00	-1.641238e-01
7.013280e-01	0.000000e+00	-1.931337e-01
7.630418e-01	0.000000e+00	-2.206893e-01
8.172084e-01	0.000000e+00	-2.454799e-01
8.641863e-01	0.000000e+00	-2.673591e-01
9.009752e-01	0.000000e+00	-2.848204e-01
9.288372e-01	0.000000e+00	-2.982085e-01
9.448555e-01	0.000000e+00	-3.059908e-01
9.510565e-01	0.000000e+00	-3.090170e-01
9.510565e-01	1.052632e+00	-3.090170e-01
9.442611e-01	1.052632e+00	-3.078203e-01
9.267277e-01	1.052632e+00	-3.047010e-01
8.963175e-01	1.052632e+00	-2.991555e-01
8.562911e-01	1.052632e+00	-2.916579e-01
8.054250e-01	1.052632e+00	-2.817457e-01
7.470317e-01	1.052632e+00	-2.699633e-01
6.809074e-01	1.052632e+00	-2.559818e-01
6.100852e-01	1.052632e+00	-2.403847e-01
5.354138e-01	1.052632e+00	-2.229691e-01
4.593635e-01	1.052632e+00	-2.042585e-01
3.837764e-01	1.052632e+00	-1.841224e-01
3.103069e-01	1.052632e+00	-1.630077e-01
2.415927e-01	1.052632e+00	-1.409228e-01
1.782654e-01	1.052632e+00	-1.183331e-01
1.234349e-01	1.052632e+00	-9.558566e-02
7.662509e-02	1.052632e+00	-7.318920e-02
4.106998e-02	1.052632e+00	-5.193053e-02
1.528206e-02	1.052632e+00	-3.215886e-02
2.347037e-03	1.052632e+00	-1.488740e-02
0.000000e+00	1.052632e+00	0.000000e+00
1.064939e-02	1.052632e+00	1.066461e-02
3.126595e-02	1.052632e+00	1.703450e-02
6.375031e-02	1.052632e+00	1.787236e-02
1.050105e-01	1.052632e+00	1.417221e-02
1.560448e-01	1.052632e+00	4.777214e-03
2.137742e-01	1.052632e+00	-9.048270e-03
2.782849e-01	1.052632e+00	-2.799567e-02
3.468570e-01	1.052632e+00	-5.051783e-02
4.187060e-01	1.052632e+00	-7.662000e-02
4.916930e-01	1.052632e+00	-1.047585e-01
5.642168e-01	1.052632e+00	-1.343226e-01
6.348639e-01	1.052632e+00	-1.641238e-01
7.013280e-01	1.052632e+00	-1.931337e-01
7.630418e-01	1.052632e+00	-2.206893e-01
8.172084e-01	1.052632e+00	-2.454799e-01
8.641863e-01	1.052632e+00	-2.673591e-01
9.009752e-01	1.052632e+00	-2.848204e-01
9.288372e-01	1.052632e+00	-2.982085e-01
9.448555e-01	1.052632e+00	-3.059908e-01
9.510565e-01	1.052632e+00	-3.090170e-01
9.510565e-01	2.105263e+00	-3.090170e-01
9.442611e-01	2.105263e+00	-3.078203e-01
9.267277e-01	2.105263e+00	-3.047010e-01
8.963175e-01	2.105263e+00	-2.991555e-01
8.562911e-01	2.105263e+00	-2.916579e-01
8.054250e-01	2.105263e+00	-2.817457e-01
7.470317e-01	2.105263e+00	-2.699633e-01
6.809074e-01	2.105263e+00	-2.559818e-01
6.100852e-01	2.105263e+00	-2.403847e-01
5.354138e-01	2.105263e+00	-2.229691e-01
4.593635e-01	2.105263e+00	-2.042585e-01
3.837764e-01	2.105263e+00	-1.841224e-01
3.103069e-01	2.105263e+00	-1.630077e-01
2.415927e-01	2.105263e+00	-1.409228e-01
1.782654e-01	2.105263e+00	-1.183331e-01
1.234349e-01	2.105263e+00	-9.558566e-02
7.662509e-02	2.105263e+00	-7.318920e-02
4.106998e-02	2.105263e+00	-5.193053e-02
1.528206e-02	2.105263e+00	-3.215886e-02
2.347037e-03	2.105263e+00	-1.488740e-02
0.000000e+00	2.105263e+00	0.000000e+00
1.064939e-02	2.105263e+00	1.066461e-02
3.126595e-02	2.105263e+00	1.703450e-02
6.375031e-02	2.105263e+00	1.787236e-02
1.050105e-01	2.105263e+00	1.417221e-02
1.560448e-01	2.105263e+00	4.777214e-03
2.137742e-01	2.105263e+00	-9.048270e-03
2.782849e-01	2.105263e+00	-2.799567e-02
3.468570e-01	2.105263e+00	-5.051783e-02
4.187060e-01	2.105263e+00	-7.662000e-02
4.916930e-01	2.105263e+00	-1.047585e-01
5.642168e-01	2.105263e+00	-1.343226e-01
6.348639e-01	2.105263e+00	-1.641238e-01
7.013280e-01	2.105263e+00	-1.931337e-01
7.630418e-01	2.105263e+00	-2.206893e-01
8.172084e-01	2.105263e+00	-2.454799e-01
8.641863e-01	2.105263e+00	-2.673591e-01
9.009752e-01	2.105263e+00	-2.848204e-01
9.288372e-01	2.105263e+00	-2.982085e-01
9.448555e-01	2.105263e+00	-3.059908e-01
9.510565e-01	2.105263e+00	-3.090170e-01
9.510565e-01	3.157895e+00	-3.090170e-01
9.442611e-01	3.157895e+00	-3.078203e-01
9.267277e-01	3.157895e+00	-3.047010e-01
8.963175e-01	3.157895e+00	-2.991555e-01
8.562911e-01	3.157895e+00	-2.916579e-01
8.054250e-01	3.157895e+00	-2.817457e-01
7.470317e-01	3.157895e+00	-2.699633e-01
6.809074e-01	3.157895e+00	-2.559818e-01
6.100852e-01	3.157895e+00	-2.403847e-01
5.354138e-01	3.157895e+00	-2.229691e-01
4.593635e-01	3.157895e+00	-2.042585e-01
3.837764e-01	3.157895e+00	-1.841224e-01
3.103069e-01	3.157895e+00	-1.630077e-01
2.415927e-01	3.157895e+00	-1.409228e-01
1.782654e-01	3.157895e+00	-1.183331e-01
1.234349e-01	3.157895e+00	-9.558566e-02
7.662509e-02	3.157895e+00	-7.318920e-02
4.106998e-02	3.157895e+00	-5.193053e-02
1.528206e-02	3.157895e+00	-3.215886e-02
2.347037e-03	3.157895e+00	-1.488740e-02
0.000000e+00	3.157895e+00	0.000000e+00
1.064939e-02	3.157895e+00	1.066461e-02
3.126595e-02	3.157895e+00	1.703450e-02
6.375031e-02	3.157895e+00	1.787236e-02
1.050105e-01	3.157895e+00	1.417221e-02
1.560448e-01	3.157895e+00	4.777214e-03
2.137742e-01	3.157895e+00	-9.048270e-03
2.782849e-01	3.157895e+00	-2.799567e-02
3.468570e-01	3.157895e+00	-5.051783e-02
4.187060e-01	3.157895e+00	-7.662000e-02
4.916930e-01	3.157895e+00	-1.047585e-01
5.642168e-01	3.157895e+00	-1.343226e-01
6.348639e-01	3.157895e+00	-1.641238e-01
7.013280e-01	3.157895e+00	-1.931337e-01
7.630418e-01	3.157895e+00	-2.206893e-01
8.172084e-01	3.157895e+00	-2.454799e-01
8.641863e-01	3.157895e+00	-2.673591e-01
9.009752e-01	3.157895e+00	-2.848204e-01
9.288372e-01	3.157895e+00	-2.982085e-01
9.448555e-01	3.157895e+00	-3.059908e-01
9.510565e-01	3.157895e+00	-3.090170e-01
9.510565e-01	4.210526e+00	-3.090170e-01
9.442611e-01	4.210526e+00	-3.078203e-01
9.267277e-01	4.210526e+00	-3.047010e-01
8.963175e-01	4.210526e+00	-2.991555e-01
8.562911e-01	4.210526e+00	-2.916579e-01
8.054250e-01	4.210526e+00	-2.817457e-01
7.470317e-01	4.210526e+00	-2.699633e-01
6.809074e-01	4.210526e+00	-2.559818e-01
6.100852e-01	4.210526e+00	-2.403847e-01
5.354138e-01	4.210526e+00	-2.229691e-01
4.593635e-01	4.210526e+00	-2.042585e-01
3.837764e-01	4.210526e+00	-1.841224e-01
3.103069e-01	4.210526e+00	-1.630077e-01
2.415927e-01	4.210526e+00	-1.409228e-01
1.782654e-01	4.210526e+00	-1.183331e-01
1.234349e-01	4.210526e+00	-9.558566e-02
7.662509e-02	4.210526e+00	-7.318920e-02
4.106998e-02	4.210526e+00	-5.193053e-02
1.528206e-02	4.210526e+00	-3.215886e-02
2.347037e-03	4.210526e+00	-1.488740e-02
0.000000e+00	4.210526e+00	0.000000e+00
1.064939e-02	4.210526e+00	1.066461e-02
3.126595e-02	4.210526e+00	1.703450e-02
6.375031e-02	4.210526e+00	1.787236e-02
1.050105e-01	4.210526e+00	1.417221e-02
1.560448e-01	4.210526e+00	4.777214e-03
2.137742e-01	4.210526e+00	-9.048270e-03
2.782849e-01	4.210526e+00	-2.799567e-02
3.468570e-01	4.210526e+00	-5.051783e-02
4.187060e-01	4.210526e+00	-7.662000e-02
4.916930e-01	4.210526e+00	-1.047585e-01
5.642168e-01	4.210526e+00	-1.343226e-01
6.348639e-01	4.210526e+00	-1.641238e-01
7.013280e-01	4.210526e+00	-1.931337e-01
7.630418e-01	4.210526e+00	-2.206893e-01
8.172084e-01	4.210526e+00	-2.454799e-01
8.641863e-01	4.210526e+00	-2.673591e-01
9.009752e-01	4.210526e+00	-2.848204e-01
9.288372e-01	4.210526e+00	-2.982085e-01
9.448555e-01	4.210526e+00	-3.059908e-01
9.510565e-01	4.210526e+00	-3.090170e-01
9.510565e-01	5.263158e+00	-3.090170e-01
9.442611e-01	5.263158e+00	-3.078203e-01
9.267277e-01	5.263158e+00	-3.047010e-01
8.963175e-01	5.263158e+00	-2.991555e-01
8.562911e-01	5.263158e+00	-2.916579e-01
8.054250e-01	5.263158e+00	-2.817457e-01
7.470317e-01	5.263158e+00	-2.699633e-01
6.809074e-01	5.263158e+00	-2.559818e-01
6.100852e-01	5.263158e+00	-2.403847e-01
5.354138e-01	5.263158e+00	-2.229691e-01
4.593635e-01	5.263158e+00	-2.042585e-01
3.837764e-01	5.263158e+00	-1.841224e-01
3.103069e-01	5.263158e+00	-1.630077e-01
2.415927e-01	5.263158e+00	-1.409228e-01
1.782654e-01	5.263158e+00	-1.183331e-01
1.234349e-01	5.263158e+00	-9.558566e-02
7.662509e-02	5.263158e+00	-7.318920e-02
4.106998e-02	5.263158e+00	-5.193053e-02
1.528206e-02	5.263158e+00	-3.215886e-02
2.347037e-03	5.263158e+00	-1.488740e-02
0.000000e+00	5.263158e+00	0.000000e+00
1.064939e-02	5.263158e+00	1.066461e-02
3.126595e-02	5.263158e+00	1.703450e-02
6.375031e-02	5.263158e+00	1.787236e-02
1.050105e-01	5.263158e+00	1.417221e-02
1.560448e-01	5.263158e+00	4.777214e-03
2.137742e-01	5.263158e+00	-9.048270e-03
2.782849e-01	5.263158e+00	-2.799567e-02
3.468570e-01	5.263158e+00	-5.051783e-02
4.187060e-01	5.263158e+00	-7.662000e-02
4.916930e-01	5.263158e+00	-1.047585e-01
5.642168e-01	5.263158e+00	-1.343226e-01
6.348639e-01	5.263158e+00	-1.641238e-01
7.013280e-01	5.263158e+00	-1.931337e-01
7.630418e-01	5.263158e+00	-2.206893e-01
8.172084e-01	5.263158e+00	-2.454799e-01
8.641863e-01	5.263158e+00	-2.673591e-01
9.009752e-01	5.263158e+00	-2.848204e-01
9.288372e-01	5.263158e+00	-2.982085e-01
9.448555e-01	5.263158e+00	-3.059908e-01
9.510565e-01	5.263158e+00	-3.090170e-01
9.510565e-01	6.315789e+00	-3.090170e-01
9.442611e-01	6.315789e+00	-3.078203e-01
[...]
CELL_DATA 760
VECTORS V double
8.414261e-01	-6.902991e-02	-1.481721e-01
8.655477e-01	-6.885633e-02	-1.539863e-01
8.835634e-01	-6.840658e-02	-1.611262e-01
8.953302e-01	-6.761220e-02	-1.677091e-01
8.977961e-01	-6.645130e-02	-1.749525e-01
8.991096e-01	-6.490625e-02	-1.814191e-01
8.920728e-01	-6.296672e-02	-1.886222e-01
8.847634e-01	-6.060866e-02	-1.948506e-01
8.704303e-01	-5.780360e-02	-2.030107e-01
8.547914e-01	-5.451897e-02	-2.103033e-01
8.294877e-01	-5.072928e-02	-2.209728e-01
7.985674e-01	-4.642035e-02	-2.295033e-01
7.512200e-01	-4.162513e-02	-2.414433e-01
6.891980e-01	-3.639478e-02	-2.458463e-01
6.025502e-01	-3.076725e-02	-2.499790e-01
4.718772e-01	-2.486533e-02	-2.257728e-01
2.701715e-01	-1.869702e-02	-1.615376e-01
-1.739458e-02	-1.242833e-02	1.333647e-02
-4.217808e-01	-5.860724e-03	5.631819e-01
-3.426852e-01	7.196927e-04	2.173673e+00
2.327014e+00	8.432690e-03	2.330340e+00
2.541693e+00	1.519736e-02	7.853057e-01
2.210553e+00	2.214348e-02	5.701617e-02
1.925527e+00	2.899079e-02	-1.726781e-01
1.720186e+00	3.598026e-02	-3.166724e-01
1.570406e+00	4.294682e-02	-3.760928e-01
1.435555e+00	4.988478e-02	-4.216357e-01
1.336739e+00	5.661567e-02	-4.390454e-01
1.250642e+00	6.302129e-02	-4.543482e-01
1.181701e+00	6.890383e-02	-4.555784e-01
1.121872e+00	7.414778e-02	-4.573276e-01
1.071615e+00	7.861603e-02	-4.520418e-01
1.027476e+00	8.224639e-02	-4.484676e-01
9.872020e-01	8.503113e-02	-4.407923e-01
9.499811e-01	8.702165e-02	-4.347796e-01
9.115293e-01	8.831586e-02	-4.245309e-01
8.743624e-01	8.904205e-02	-4.150014e-01
8.341882e-01	8.934931e-02	-4.008427e-01
7.910600e-01	8.939324e-02	-3.843275e-01
7.483089e-01	8.934756e-02	-3.651819e-01
8.268606e-01	-4.834099e-02	-1.456071e-01
8.473494e-01	-4.821668e-02	-1.507487e-01
8.618132e-01	-4.789817e-02	-1.571598e-01
8.705006e-01	-4.733438e-02	-1.630581e-01
8.702534e-01	-4.650268e-02	-1.695852e-01
8.688708e-01	-4.538424e-02	-1.753176e-01
8.588734e-01	-4.396839e-02	-1.816024e-01
8.480057e-01	-4.224014e-02	-1.867555e-01
8.293373e-01	-4.018467e-02	-1.934265e-01
8.083513e-01	-3.778681e-02	-1.988777e-01
7.765659e-01	-3.501682e-02	-2.068745e-01
7.379086e-01	-3.192513e-02	-2.120704e-01
6.816071e-01	-2.848911e-02	-2.190696e-01
6.085587e-01	-2.476385e-02	-2.170812e-01
5.087628e-01	-2.077528e-02	-2.110696e-01
3.607670e-01	-1.660647e-02	-1.726114e-01
1.373653e-01	-1.225919e-02	-8.213171e-02
-1.815098e-01	-7.846829e-03	1.391641e-01
-6.032070e-01	-3.229548e-03	8.054308e-01
-4.198493e-01	1.389758e-03	2.663130e+00
2.682518e+00	6.789689e-03	2.686351e+00
2.844114e+00	1.150552e-02	8.787446e-01
2.433277e+00	1.631943e-02	6.276082e-02
2.097355e+00	2.102850e-02	-1.880874e-01
1.860502e+00	2.579146e-02	-3.425036e-01
1.689661e+00	3.048864e-02	-4.046529e-01
1.539075e+00	3.511424e-02	-4.520405e-01
1.427819e+00	3.955012e-02	-4.689600e-01
1.330727e+00	4.372444e-02	-4.834423e-01
1.251911e+00	4.752957e-02	-4.826462e-01
1.182675e+00	5.085516e-02	-4.821136e-01
1.123344e+00	5.367245e-02	-4.738624e-01
1.070397e+00	5.593173e-02	-4.672017e-01
1.021745e+00	5.763742e-02	-4.562162e-01
9.765936e-01	5.883076e-02	-4.469594e-01
9.307632e-01	5.958260e-02	-4.334888e-01
8.867515e-01	5.998132e-02	-4.208816e-01
8.402943e-01	6.012771e-02	-4.037767e-01
7.917020e-01	6.012408e-02	-3.846394e-01
7.448112e-01	6.008077e-02	-3.634750e-01
8.205653e-01	-2.040949e-02	-1.444985e-01
8.397246e-01	-2.035765e-02	-1.493922e-01
8.527085e-01	-2.022730e-02	-1.554995e-01
8.598682e-01	-1.999128e-02	-1.610665e-01
8.580785e-01	-1.963269e-02	-1.672127e-01
8.551131e-01	-1.913485e-02	-1.725416e-01
8.434910e-01	-1.848801e-02	-1.783499e-01
8.308887e-01	-1.768684e-02	-1.829858e-01
8.103307e-01	-1.670423e-02	-1.889936e-01
7.869414e-01	-1.558405e-02	-1.936102e-01
7.528750e-01	-1.431203e-02	-2.005634e-01
7.115811e-01	-1.290296e-02	-2.045040e-01
6.517613e-01	-1.134689e-02	-2.094771e-01
5.746064e-01	-9.679985e-03	-2.049699e-01
4.698217e-01	-7.912337e-03	-1.949141e-01
3.150752e-01	-6.076401e-03	-1.507498e-01
8.308110e-02	-4.168911e-03	-4.967481e-02
-2.483090e-01	-2.237781e-03	1.903792e-01
-6.767268e-01	-2.221619e-04	9.035980e-01
-4.508900e-01	1.786032e-03	2.860023e+00
2.823618e+00	4.115043e-03	2.827653e+00
2.961839e+00	6.122938e-03	9.151179e-01
2.517900e+00	8.136333e-03	6.494348e-02
2.160653e+00	1.006009e-02	-1.937638e-01
1.910324e+00	1.195046e-02	-3.516754e-01
1.730265e+00	1.375389e-02	-4.143772e-01
1.572770e+00	1.546578e-02	-4.619369e-01
1.456112e+00	1.704550e-02	-4.782528e-01
1.354642e+00	1.847556e-02	-4.921305e-01
1.271688e+00	1.974151e-02	-4.902707e-01
1.198788e+00	2.080671e-02	-4.886820e-01
1.136474e+00	2.166696e-02	-4.794014e-01
1.080546e+00	2.230395e-02	-4.716311e-01
1.029165e+00	2.277552e-02	-4.595292e-01
9.815313e-01	2.307757e-02	-4.492192e-01
9.334864e-01	2.324221e-02	-4.347571e-01
8.875232e-01	2.330467e-02	-4.212479e-01
8.394016e-01	2.330243e-02	-4.033478e-01
7.894773e-01	2.327197e-02	-3.835585e-01
7.416771e-01	2.324518e-02	-3.619455e-01
8.181618e-01	-1.021820e-02	-1.440753e-01
8.367479e-01	-1.019717e-02	-1.488626e-01
8.489766e-01	-1.014089e-02	-1.548190e-01
8.553639e-01	-1.003509e-02	-1.602228e-01
8.527861e-01	-9.869923e-03	-1.661814e-01
8.489819e-01	-9.622071e-03	-1.713045e-01
8.364914e-01	-9.309430e-03	-1.768699e-01
8.225952e-01	-8.912021e-03	-1.811594e-01
8.009654e-01	-8.438761e-03	-1.868094e-01
7.769448e-01	-7.874951e-03	-1.911508e-01
7.415231e-01	-7.235642e-03	-1.975393e-01
6.983937e-01	-6.498180e-03	-2.007140e-01
6.368365e-01	-5.692781e-03	-2.046803e-01
5.575254e-01	-4.816728e-03	-1.988769e-01
4.501170e-01	-3.882064e-03	-1.867393e-01
2.918302e-01	-2.906218e-03	-1.396281e-01
5.536702e-02	-1.892518e-03	-3.310436e-02
-2.824607e-01	-8.590427e-04	2.165635e-01
-7.143182e-01	2.209353e-04	9.537918e-01
-4.667227e-01	1.280913e-03	2.960451e+00
2.895182e+00	2.539356e-03	2.899320e+00
3.021081e+00	3.602870e-03	9.334220e-01
2.560105e+00	4.661798e-03	6.603207e-02
2.191875e+00	5.664710e-03	-1.965637e-01
1.934635e+00	6.644149e-03	-3.561508e-01
1.749867e+00	7.564098e-03	-4.190716e-01
1.588872e+00	8.428377e-03	-4.666664e-01
1.469521e+00	9.225311e-03	-4.826568e-01
1.365855e+00	9.933937e-03	-4.962040e-01
1.281326e+00	1.055295e-02	-4.939864e-01
1.206787e+00	1.109140e-02	-4.919426e-01
1.142487e+00	1.152273e-02	-4.819376e-01
1.085239e+00	1.186080e-02	-4.736798e-01
1.032966e+00	1.209896e-02	-4.612263e-01
9.841964e-01	1.225904e-02	-4.504390e-01
9.351529e-01	1.234003e-02	-4.355332e-01
8.883125e-01	1.238399e-02	-4.216226e-01
8.394628e-01	1.239419e-02	-4.033772e-01
7.889784e-01	1.238736e-02	-3.833162e-01
7.407078e-01	1.237870e-02	-3.614725e-01
8.170344e-01	-5.649753e-03	-1.438768e-01
8.351935e-01	-5.638637e-03	-1.485861e-01
8.470122e-01	-5.607147e-03	-1.544607e-01
8.529593e-01	-5.547796e-03	-1.597724e-01
8.496260e-01	-5.451649e-03	-1.655656e-01
8.453838e-01	-5.311415e-03	-1.705785e-01
8.325089e-01	-5.140139e-03	-1.760278e-01
8.184914e-01	-4.920540e-03	-1.802556e-01
7.963323e-01	-4.655731e-03	-1.857288e-01
7.711461e-01	-4.320081e-03	-1.897241e-01
7.348823e-01	-3.929299e-03	-1.957702e-01
6.910179e-01	-3.493198e-03	-1.985943e-01
6.284098e-01	-3.021869e-03	-2.019719e-01
5.477053e-01	-2.601719e-03	-1.953740e-01
4.387347e-01	-2.058631e-03	-1.820171e-01
2.784366e-01	-1.451311e-03	-1.332198e-01
3.936842e-02	-8.421509e-04	-2.353867e-02
-3.023622e-01	-2.228295e-04	2.318220e-01
-7.359090e-01	4.246904e-04	9.826209e-01
-4.758940e-01	1.069071e-03	3.018624e+00
2.937277e+00	1.811981e-03	2.941474e+00
3.055175e+00	2.446467e-03	9.439559e-01
2.584271e+00	3.074599e-03	6.665538e-02
2.209761e+00	3.665119e-03	-1.981677e-01
1.948418e+00	4.234484e-03	-3.586881e-01
1.760813e+00	4.757545e-03	-4.216931e-01
1.597901e+00	5.243061e-03	-4.693182e-01
1.476966e+00	5.786701e-03	-4.851023e-01
1.371938e+00	6.190847e-03	-4.984141e-01
1.286294e+00	6.529118e-03	-4.959019e-01
1.210932e+00	6.809913e-03	-4.936326e-01
1.146306e+00	7.039274e-03	-4.835489e-01
1.088266e+00	7.236685e-03	-4.750010e-01
1.034935e+00	7.379056e-03	-4.621054e-01
9.854671e-01	7.477148e-03	-4.510205e-01
9.358687e-01	7.525597e-03	-4.358666e-01
8.888561e-01	7.548921e-03	-4.218805e-01
8.396029e-01	7.555341e-03	-4.034445e-01
7.887834e-01	7.551499e-03	-3.832214e-01
7.403501e-01	7.547241e-03	-3.612979e-01
8.162963e-01	-3.272916e-03	-1.437468e-01
8.342351e-01	-3.265907e-03	-1.484156e-01
8.457833e-01	-3.247068e-03	-1.542366e-01
8.513904e-01	-3.210705e-03	-1.594785e-01
8.479545e-01	-3.149127e-03	-1.652399e-01
8.435802e-01	-3.096653e-03	-1.702146e-01
8.304446e-01	-2.979700e-03	-1.755914e-01
8.156964e-01	-2.836018e-03	-1.796401e-01
7.928557e-01	-2.652073e-03	-1.849179e-01
7.674071e-01	-2.420044e-03	-1.888042e-01
7.307156e-01	-2.180973e-03	-1.946602e-01
6.862982e-01	-1.955574e-03	-1.972379e-01
6.244165e-01	-1.641831e-03	-2.006885e-01
5.432810e-01	-1.424035e-03	-1.937957e-01
4.314395e-01	-1.059934e-03	-1.789906e-01
2.693934e-01	-6.826416e-04	-1.288930e-01
2.913140e-02	-2.873330e-04	-1.741788e-02
-3.148599e-01	1.071391e-04	2.414040e-01
-7.499963e-01	5.184072e-04	1.001431e+00
-4.817234e-01	9.418288e-04	3.055601e+00
2.962668e+00	1.395954e-03	2.966902e+00
3.076573e+00	1.797763e-03	9.505674e-01
2.599310e+00	2.193650e-03	6.704328e-02
2.220587e+00	2.563486e-03	-1.991386e-01
1.956523e+00	2.913210e-03	-3.601802e-01
1.767128e+00	3.239477e-03	-4.232055e-01
1.604515e+00	3.652790e-03	-4.712608e-01
1.482612e+00	3.902219e-03	-4.869565e-01
1.375523e+00	4.152306e-03	-4.997163e-01
1.289137e+00	4.370864e-03	-4.969978e-01
1.213175e+00	4.535696e-03	-4.945468e-01
1.147936e+00	4.641225e-03	-4.842361e-01
1.089790e+00	4.735638e-03	-4.756662e-01
1.036448e+00	4.810470e-03	-4.627811e-01
9.865906e-01	4.856422e-03	-4.515347e-01
9.365279e-01	4.917882e-03	-4.361736e-01
8.890397e-01	4.926968e-03	-4.219677e-01
8.396007e-01	4.928858e-03	-4.034434e-01
7.886074e-01	4.925913e-03	-3.831359e-01
7.400558e-01	4.922809e-03	-3.611543e-01
8.158582e-01	-2.024728e-03	-1.436696e-01
8.336779e-01	-2.020715e-03	-1.483164e-01
8.450680e-01	-2.010580e-03	-1.541062e-01
8.504502e-01	-1.992069e-03	-1.593024e-01
8.473512e-01	-1.962084e-03	-1.651223e-01
8.423917e-01	-2.006238e-03	-1.699748e-01
8.284810e-01	-1.884265e-03	-1.751762e-01
8.138211e-01	-1.779761e-03	-1.792271e-01
7.907144e-01	-1.681129e-03	-1.844185e-01
7.649626e-01	-1.540477e-03	-1.882028e-01
7.288085e-01	-1.385174e-03	-1.941522e-01
6.838494e-01	-1.216082e-03	-1.965341e-01
6.209754e-01	-1.018533e-03	-1.995825e-01
5.391520e-01	-7.409758e-04	-1.923229e-01
4.266681e-01	-5.057282e-04	-1.770111e-01
2.642141e-01	-2.983681e-04	-1.264150e-01
2.248344e-02	-5.492915e-05	-1.344302e-02
-3.229735e-01	1.673324e-04	2.476247e-01
-7.588803e-01	4.282935e-04	1.013293e+00
-4.854436e-01	6.868832e-04	3.079199e+00
2.979345e+00	9.834722e-04	2.983603e+00
3.090216e+00	1.234098e-03	9.547826e-01
2.608893e+00	1.505778e-03	6.729044e-02
2.227553e+00	1.734609e-03	-1.997633e-01
1.961971e+00	1.954499e-03	-3.611832e-01
1.773598e+00	2.167660e-03	-4.247548e-01
1.607827e+00	2.393610e-03	-4.722335e-01
1.483899e+00	2.465538e-03	-4.873792e-01
1.378044e+00	2.608945e-03	-5.006322e-01
1.291130e+00	2.744204e-03	-4.977663e-01
1.214320e+00	2.856103e-03	-4.950135e-01
1.148858e+00	2.945750e-03	-4.846253e-01
1.090530e+00	3.043643e-03	-4.759890e-01
1.036689e+00	3.108591e-03	-4.628884e-01
9.871671e-01	3.228958e-03	-4.517986e-01
9.372677e-01	3.220288e-03	-4.365181e-01
8.891272e-01	3.214244e-03	-4.220092e-01
8.395987e-01	3.211250e-03	-4.034425e-01
7.885039e-01	3.207994e-03	-3.830856e-01
7.398749e-01	3.205711e-03	-3.610660e-01
8.156229e-01	-1.123498e-03	-1.436282e-01
8.334115e-01	-1.120673e-03	-1.482690e-01
8.447789e-01	-1.112004e-03	-1.540535e-01
8.501512e-01	-1.121261e-03	-1.592464e-01
8.483769e-01	-1.101482e-03	-1.653222e-01
8.420505e-01	-1.050526e-03	-1.699059e-01
8.269749e-01	-1.009792e-03	-1.748577e-01
8.128145e-01	-9.817504e-04	-1.790054e-01
7.896204e-01	-9.892953e-04	-1.841633e-01
7.635218e-01	-9.096140e-04	-1.878483e-01
7.264754e-01	-8.070457e-04	-1.935306e-01
6.814148e-01	-6.524978e-04	-1.958344e-01
6.178451e-01	-5.729824e-04	-1.985764e-01
5.356200e-01	-3.389013e-04	-1.910630e-01
4.241983e-01	-2.492128e-04	-1.759864e-01
2.611364e-01	-1.214651e-04	-1.249425e-01
1.912364e-02	1.547250e-05	-1.143417e-02
-3.271030e-01	1.572255e-04	2.507908e-01
-7.643508e-01	3.063937e-04	1.020598e+00
-4.877293e-01	4.550507e-04	3.093697e+00
2.989454e+00	6.261487e-04	2.993726e+00
3.099742e+00	7.714949e-04	9.577257e-01
2.615270e+00	9.143493e-04	6.745493e-02
2.231693e+00	1.047711e-03	-2.001345e-01
1.965220e+00	1.174987e-03	-3.617813e-01
1.774676e+00	1.294348e-03	-4.250130e-01
1.608917e+00	1.320561e-03	-4.725538e-01
1.485632e+00	1.430598e-03	-4.879485e-01
1.379156e+00	1.536876e-03	-5.010362e-01
1.292255e+00	1.596618e-03	-4.982001e-01
1.215699e+00	1.664195e-03	-4.955757e-01
1.150325e+00	1.809239e-03	-4.852439e-01
1.091974e+00	1.829537e-03	-4.766194e-01
1.039069e+00	1.871046e-03	-4.639514e-01
9.885117e-01	1.882714e-03	-4.524140e-01
9.362504e-01	1.867799e-03	-4.360443e-01
8.888248e-01	1.870741e-03	-4.218657e-01
8.394120e-01	1.892407e-03	-4.033528e-01
7.883344e-01	1.888868e-03	-3.830033e-01
7.397062e-01	1.887301e-03	-3.609837e-01
8.153840e-01	-1.352107e-03	-1.435861e-01
8.329942e-01	-1.352158e-03	-1.481948e-01
8.452008e-01	-1.352833e-03	-1.541304e-01
8.500975e-01	-1.335046e-03	-1.592363e-01
8.458720e-01	-1.293642e-03	-1.648341e-01
8.408238e-01	-1.216449e-03	-1.696584e-01
8.274328e-01	-1.120339e-03	-1.749546e-01
8.135460e-01	-1.184148e-03	-1.791665e-01
7.897199e-01	-9.655371e-04	-1.841866e-01
7.625692e-01	-1.015729e-03	-1.876140e-01
7.254510e-01	-6.599992e-04	-1.932577e-01
6.807070e-01	-7.489158e-04	-1.956310e-01
6.166831e-01	-3.145328e-04	-1.982029e-01
5.342305e-01	-3.793130e-04	-1.905673e-01
4.231652e-01	7.890556e-05	-1.755579e-01
2.593465e-01	4.175051e-04	-1.240861e-01
1.653793e-02	6.119952e-04	-9.888150e-03
-3.304099e-01	6.589293e-04	2.533262e-01
-7.671040e-01	7.044342e-04	1.024274e+00
-4.889017e-01	7.632042e-04	3.101133e+00
2.994842e+00	8.418844e-04	2.999122e+00
3.102873e+00	9.189349e-04	9.586932e-01
2.617774e+00	9.834453e-04	6.751951e-02
2.234001e+00	1.093656e-03	-2.003415e-01
1.966918e+00	1.026807e-03	-3.620938e-01
1.775992e+00	8.425532e-04	-4.253282e-01
1.609953e+00	4.607543e-04	-4.728581e-01
1.486899e+00	6.206873e-04	-4.883647e-01
1.380197e+00	3.023122e-04	-5.014146e-01
1.292738e+00	4.308327e-04	-4.983862e-01
1.216976e+00	1.349620e-04	-4.960963e-01
1.150997e+00	2.847193e-04	-4.855273e-01
1.091345e+00	2.489180e-05	-4.763446e-01
1.037473e+00	8.016854e-05	-4.632384e-01
9.871433e-01	-1.378414e-04	-4.517877e-01
9.370148e-01	-8.016148e-05	-4.364004e-01
8.896339e-01	-9.461523e-05	-4.222497e-01
8.402964e-01	-1.005751e-04	-4.037777e-01
7.882360e-01	-9.547484e-05	-3.829555e-01
7.396350e-01	-9.438858e-05	-3.609489e-01
8.156315e-01	4.520717e-05	-1.436297e-01
8.334589e-01	2.753021e-05	-1.482775e-01
8.440938e-01	2.584827e-05	-1.539285e-01
8.486084e-01	4.708904e-05	-1.589574e-01
8.459274e-01	4.444687e-05	-1.648449e-01
8.390435e-01	4.291282e-05	-1.692992e-01
8.265974e-01	4.084461e-05	-1.747779e-01
8.104904e-01	4.094884e-05	-1.784935e-01
7.874199e-01	8.271099e-05	-1.836501e-01
7.594855e-01	7.010565e-05	-1.868553e-01
7.229520e-01	6.095655e-05	-1.925920e-01
6.769461e-01	2.706074e-05	-1.945501e-01
6.124834e-01	-4.888067e-07	-1.968532e-01
5.301419e-01	2.904295e-06	-1.891088e-01
4.110890e-01	3.454441e-05	-1.705478e-01
2.510682e-01	2.068057e-06	-1.201252e-01
1.359613e-02	5.349753e-06	-8.129226e-03
-3.294815e-01	7.723259e-06	2.526144e-01
-7.671542e-01	8.687450e-06	1.024341e+00
-4.891960e-01	8.642608e-06	3.103000e+00
2.997177e+00	7.875002e-06	3.001460e+00
3.105857e+00	6.787574e-06	9.596151e-01
2.621156e+00	5.247875e-06	6.760675e-02
2.232258e+00	2.899419e-06	-2.001852e-01
1.959962e+00	3.521660e-05	-3.608133e-01
1.764746e+00	3.149754e-05	-4.226350e-01
1.605951e+00	-1.985255e-06	-4.716826e-01
1.483221e+00	5.074780e-05	-4.871566e-01
1.376796e+00	3.839181e-05	-5.001788e-01
1.290110e+00	2.678407e-05	-4.973731e-01
1.213843e+00	1.820379e-05	-4.948189e-01
1.149021e+00	-2.636059e-05	-4.846939e-01
1.089117e+00	-2.379906e-05	-4.753721e-01
1.036924e+00	-2.550182e-05	-4.629934e-01
9.856586e-01	-2.492248e-05	-4.511082e-01
9.371763e-01	-2.528243e-05	-4.364756e-01
8.883347e-01	-2.434843e-05	-4.216331e-01
8.393218e-01	-4.687081e-05	-4.033094e-01
7.886839e-01	-4.578176e-05	-3.831731e-01
7.398725e-01	-2.823546e-05	-3.610648e-01
8.183506e-01	1.463792e-03	-1.441085e-01
8.337148e-01	1.463922e-03	-1.483230e-01
8.444063e-01	1.465025e-03	-1.539855e-01
8.497116e-01	1.448709e-03	-1.591640e-01
8.459539e-01	1.409295e-03	-1.648500e-01
8.408865e-01	1.421624e-03	-1.696710e-01
8.274614e-01	1.281931e-03	-1.749606e-01
8.129329e-01	1.342834e-03	-1.790314e-01
7.893409e-01	1.073579e-03	-1.840982e-01
7.628545e-01	1.126474e-03	-1.876842e-01
7.260118e-01	7.786213e-04	-1.934071e-01
6.815284e-01	7.927087e-04	-1.958671e-01
6.170328e-01	3.624548e-04	-1.983153e-01
5.337295e-01	4.535014e-04	-1.903886e-01
4.231114e-01	-4.107296e-05	-1.755355e-01
2.599432e-01	-3.815242e-04	-1.243716e-01
1.641478e-02	-5.786362e-04	-9.814520e-03
-3.305014e-01	-6.032975e-04	2.533963e-01
-7.671351e-01	-6.823982e-04	1.024315e+00
-4.888941e-01	-7.458749e-04	3.101085e+00
2.994747e+00	-8.317395e-04	2.999027e+00
3.102754e+00	-8.861520e-04	9.586563e-01
2.617644e+00	-9.837861e-04	6.751616e-02
2.234845e+00	-1.099901e-03	-2.004172e-01
1.967429e+00	-1.039842e-03	-3.621879e-01
1.775321e+00	-8.296134e-04	-4.251674e-01
1.610308e+00	-4.857928e-04	-4.729624e-01
1.487431e+00	-6.548041e-04	-4.885392e-01
1.379885e+00	-3.493815e-04	-5.013011e-01
1.292484e+00	-4.125202e-04	-4.982881e-01
1.216313e+00	-1.313436e-04	-4.958261e-01
1.150450e+00	-2.301744e-04	-4.852966e-01
1.091358e+00	-1.813464e-05	-4.763504e-01
1.037455e+00	-1.193053e-04	-4.632305e-01
9.871478e-01	-1.012548e-05	-4.517898e-01
9.370233e-01	-4.384011e-05	-4.364043e-01
8.892098e-01	-1.823961e-05	-4.220484e-01
8.395074e-01	-9.706939e-06	-4.033986e-01
7.888535e-01	-1.417563e-05	-3.832555e-01
7.423221e-01	-1.515497e-05	-3.622603e-01
8.156097e-01	1.252580e-03	-1.436259e-01
8.333798e-01	1.267341e-03	-1.482634e-01
8.447092e-01	1.260102e-03	-1.540408e-01
8.500637e-01	1.254239e-03	-1.592300e-01
8.463756e-01	1.142279e-03	-1.649322e-01
8.414106e-01	1.116963e-03	-1.697768e-01
8.276595e-01	1.041893e-03	-1.750025e-01
8.135962e-01	1.021452e-03	-1.791775e-01
7.902527e-01	9.934483e-04	-1.843108e-01
7.633826e-01	9.110848e-04	-1.878141e-01
7.273443e-01	8.184619e-04	-1.937621e-01
6.823790e-01	7.438428e-04	-1.961115e-01
6.174323e-01	6.589590e-04	-1.984437e-01
5.357251e-01	5.053719e-04	-1.911004e-01
4.248571e-01	3.662318e-04	-1.762598e-01
2.612177e-01	2.546627e-04	-1.249813e-01
1.876543e-02	1.016066e-04	-1.121999e-02
-3.270426e-01	-5.339314e-05	2.507445e-01
-7.631304e-01	-2.140210e-04	1.018968e+00
-4.876039e-01	-3.728459e-04	3.092901e+00
2.990482e+00	-5.550680e-04	2.994756e+00
3.098778e+00	-7.097584e-04	9.574281e-01
2.614149e+00	-8.617412e-04	6.742603e-02
2.231375e+00	-1.003031e-03	-2.001060e-01
1.965664e+00	-1.172277e-03	-3.618630e-01
1.774399e+00	-1.294931e-03	-4.249467e-01
1.608225e+00	-1.408389e-03	-4.723505e-01
1.485324e+00	-1.543737e-03	-4.878475e-01
1.379860e+00	-1.632953e-03	-5.012922e-01
1.292889e+00	-1.701714e-03	-4.984445e-01
1.216148e+00	-1.758817e-03	-4.957589e-01
1.150389e+00	-1.838912e-03	-4.852709e-01
1.090725e+00	-1.863391e-03	-4.760742e-01
1.036893e+00	-1.871154e-03	-4.629794e-01
9.870154e-01	-1.894234e-03	-4.517292e-01
9.369239e-01	-1.916146e-03	-4.363581e-01
8.891625e-01	-1.833816e-03	-4.220260e-01
8.395208e-01	-1.844152e-03	-4.034050e-01
7.883768e-01	-1.843811e-03	-3.830239e-01
7.397225e-01	-1.860329e-03	-3.609916e-01
8.158733e-01	2.126344e-03	-1.436723e-01
8.336981e-01	2.122121e-03	-1.483200e-01
8.448328e-01	2.115817e-03	-1.540633e-01
8.529694e-01	2.017180e-03	-1.597743e-01
8.485513e-01	1.985674e-03	-1.653562e-01
8.426724e-01	1.949897e-03	-1.700314e-01
8.288895e-01	1.871535e-03	-1.752625e-01
8.136242e-01	1.777691e-03	-1.791837e-01
7.908422e-01	1.680643e-03	-1.844483e-01
7.651518e-01	1.536961e-03	-1.882494e-01
7.281998e-01	1.370213e-03	-1.939900e-01
6.836534e-01	1.268050e-03	-1.964778e-01
6.203185e-01	1.046926e-03	-1.993714e-01
5.380956e-01	8.381920e-04	-1.919460e-01