# vtk DataFile Version 2.0
OUTPUT by 3D-VPM
ASCII
DATASET UNSTRUCTURED_GRID
POINTS 820 double
9.510565e-01	0.000000e+00	-3.090170e-01
9.442611e-01	0.000000e+00	-3.078203e-01
9.267277e-01	0.000000e+00	-3.047010e-01
8.963175e-01	0.000000e+00	-2.991555e-01
8.562911e-01	0.000000e+00	-2.916579e-01
8.054250e-01	0.000000e+00	-2.817457e-01
7.470317e-01	0.000000e+00	-2.699633e-01
6.809074e-01	0.000000e+00	-2.559818e-01
6.100852e-01	0.000000e+00	-2.403847e-01
5.354138e-01	0.000000e+00	-2.229691e-01
4.593635e-01	0.000000e+00	-2.042585e-01
3.837764e-01	0.000000e+00	-1.841224e-01
3.103069e-01	0.000000e+00	-1.630077e-01
2.415927e-01	0.000000e+00	-1.409228e-01
1.782654e-01	0.000000e+00	-1.183331e-01
1.234349e-01	0.000000e+00	-9.558566e-02
7.662509e-02	0.000000e+00	-7.318920e-02
4.106998e-02	0.000000e+00	-5.193053e-02
1.528206e-02	0.000000e+00	-3.215886e-02
2.347037e-03	0.000000e+00	-1.488740e-02
0.000000e+00	0.000000e+00	0.000000e+00
1.064939e-02	0.000000e+00	1.066461e-02
3.126595e-02	0.000000e+00	1.703450e-02
6.375031e-02	0.000000e+00	1.787236e-02
1.050105e-01	0.000000e+00	1.417221e-02
1.560448e-01	0.000000e+00	4.777214e-03
2.137742e-01	0.000000e+00	-9.048270e-03
2.782849e-01	0.000000e+00	-2.799567e-02
3.468570e-01	0.000000e+00	-5.051783e-02
4.187060e-01	0.000000e+00	-7.662000e-02
4.916930e-01	0.000000e+00	-1.047585e-01
5.642168e-01	0.000000e+00	-1.343226e-01
6.348639e-01	0.000000e+00	-1.641238e-01
7.013280e-01	0.000000e+00	-1.931337e-01
7.630418e-01	0.000000e+00	-2.206893e-01
8.172084e-01	0.000000e+00	-2.454799e-01
8.641863e-01	0.000000e+00	-2.673591e-01
9.009752e-01	0.000000e+00	-2.848204e-01
9.288372e-01	0.000000e+00	-2.982085e-01
9.448555e-01	0.000000e+00	-3.059908e-01
9.510565e-01	0.000000e+00	-3.090170e-01
9.510565e-01	1.052632e+00	-3.090170e-01
9.442611e-01	1.052632e+00	-3.078203e-01
9.267277e-01	1.052632e+00	-3.047010e-01
8.963175e-01	1.052632e+00	-2.991555e-01
8.562911e-01	1.052632e+00	-2.916579e-01
8.054250e-01	1.052632e+00	-2.817457e-01
7.470317e-01	1.052632e+00	-2.699633e-01
6.809074e-01	1.052632e+00	-2.559818e-01
6.100852e-01	1.052632e+00	-2.403847e-01
5.354138e-01	1.052632e+00	-2.229691e-01
4.593635e-01	1.052632e+00	-2.042585e-01
3.837764e-01	1.052632e+00	-1.841224e-01
3.103069e-01	1.052632e+00	-1.630077e-01
2.415927e-01	1.052632e+00	-1.409228e-01
1.782654e-01	1.052632e+00	-1.183331e-01
1.234349e-01	1.052632e+00	-9.558566e-02
7.662509e-02	1.052632e+00	-7.318920e-02
4.106998e-02	1.052632e+00	-5.193053e-02
1.528206e-02	1.052632e+00	-3.215886e-02
2.347037e-03	1.052632e+00	-1.488740e-02
0.000000e+00	1.052632e+00	0.000000e+00
1.064939e-02	1.052632e+00	1.066461e-02
3.126595e-02	1.052632e+00	1.703450e-02
6.375031e-02	1.052632e+00	1.787236e-02
1.050105e-01	1.052632e+00	1.417221e-02
1.560448e-01	1.052632e+00	4.777214e-03
2.137742e-01	1.052632e+00	-9.048270e-03
2.782849e-01	1.052632e+00	-2.799567e-02
3.468570e-01	1.052632e+00	-5.051783e-02
4.187060e-01	1.052632e+00	-7.662000e-02
4.916930e-01	1.052632e+00	-1.047585e-01
5.642168e-01	1.052632e+00	-1.343226e-01
6.348639e-01	1.052632e+00	-1.641238e-01
7.013280e-01	1.052632e+00	-1.931337e-01
7.630418e-01	1.052632e+00	-2.206893e-01
8.172084e-01	1.052632e+00	-2.454799e-01
8.641863e-01	1.052632e+00	-2.673591e-01
9.009752e-01	1.052632e+00	-2.848204e-01
9.288372e-01	1.052632e+00	-2.982085e-01
9.448555e-01	1.052632e+00	-3.059908e-01
9.510565e-01	1.052632e+00	-3.090170e-01
9.510565e-01	2.105263e+00	-3.090170e-01
9.442611e-01	2.105263e+00	-3.078203e-01
9.267277e-01	2.105263e+00	-3.047010e-01
8.963175e-01	2.105263e+00	-2.991555e-01
8.562911e-01	2.105263e+00	-2.916579e-01
8.054250e-01	2.105263e+00	-2.817457e-01
7.470317e-01	2.105263e+00	-2.699633e-01
6.809074e-01	2.105263e+00	-2.559818e-01
6.100852e-01	2.105263e+00	-2.403847e-01
5.354138e-01	2.105263e+00	-2.229691e-01
4.593635e-01	2.105263e+00	-2.042585e-01
3.837764e-01	2.105263e+00	-1.841224e-01
3.103069e-01	2.105263e+00	-1.630077e-01
2.415927e-01	2.105263e+00	-1.409228e-01
1.782654e-01	2.105263e+00	-1.183331e-01
1.234349e-01	2.105263e+00	-9.558566e-02
7.662509e-02	2.105263e+00	-7.318920e-02
4.106998e-02	2.105263e+00	-5.193053e-02
1.528206e-02	2.105263e+00	-3.215886e-02
2.347037e-03	2.105263e+00	-1.488740e-02
0.000000e+00	2.105263e+00	0.000000e+00
1.064939e-02	2.105263e+00	1.066461e-02
3.126595e-02	2.105263e+00	1.703450e-02
6.375031e-02	2.105263e+00	1.787236e-02
1.050105e-01	2.105263e+00	1.417221e-02
1.560448e-01	2.105263e+00	4.777214e-03
2.137742e-01	2.105263e+00	-9.048270e-03
2.782849e-01	2.105263e+00	-2.799567e-02
3.468570e-01	2.105263e+00	-5.051783e-02
4.187060e-01	2.105263e+00	-7.662000e-02
4.916930e-01	2.105263e+00	-1.047585e-01
5.642168e-01	2.105263e+00	-1.343226e-01
6.348639e-01	2.105263e+00	-1.641238e-01
7.013280e-01	2.105263e+00	-1.931337e-01
7.630418e-01	2.105263e+00	-2.206893e-01
8.172084e-01	2.105263e+00	-2.454799e-01
8.641863e-01	2.105263e+00	-2.673591e-01
9.009752e-01	2.105263e+00	-2.848204e-01
9.288372e-01	2.105263e+00	-2.982085e-01
9.448555e-01	2.105263e+00	-3.059908e-01
9.510565e-01	2.105263e+00	-3.090170e-01
9.510565e-01	3.157895e+00	-3.090170e-01
9.442611e-01	3.157895e+00	-3.078203e-01
9.267277e-01	3.157895e+00	-3.047010e-01
8.963175e-01	3.157895e+00	-2.991555e-01
8.562911e-01	3.157895e+00	-2.916579e-01
8.054250e-01	3.157895e+00	-2.817457e-01
7.470317e-01	3.157895e+00	-2.699633e-01
6.809074e-01	3.157895e+00	-2.559818e-01
6.100852e-01	3.157895e+00	-2.403847e-01
5.354138e-01	3.157895e+00	-2.229691e-01
4.593635e-01	3.157895e+00	-2.042585e-01
3.837764e-01	3.157895e+00	-1.841224e-01
3.103069e-01	3.157895e+00	-1.630077e-01
2.415927e-01	3.157895e+00	-1.409228e-01
1.782654e-01	3.157895e+00	-1.183331e-01
1.234349e-01	3.157895e+00	-9.558566e-02
7.662509e-02	3.157895e+00	-7.318920e-02
4.106998e-02	3.157895e+00	-5.193053e-02
1.528206e-02	3.157895e+00	-3.215886e-02
2.347037e-03	3.157895e+00	-1.488740e-02
0.000000e+00	3.157895e+00	0.000000e+00
1.064939e-02	3.157895e+00	1.066461e-02
3.126595e-02	3.157895e+00	1.703450e-02
6.375031e-02	3.157895e+00	1.787236e-02
1.050105e-01	3.157895e+00	1.417221e-02
1.560448e-01	3.157895e+00	4.777214e-03
2.137742e-01	3.157895e+00	-9.048270e-03
2.782849e-01	3.157895e+00	-2.799567e-02
3.468570e-01	3.157895e+00	-5.051783e-02
4.187060e-01	3.157895e+00	-7.662000e-02
4.916930e-01	3.157895e+00	-1.047585e-01
5.642168e-01	3.157895e+00	-1.343226e-01
6.348639e-01	3.157895e+00	-1.641238e-01
7.013280e-01	3.157895e+00	-1.931337e-01
7.630418e-01	3.157895e+00	-2.206893e-01
8.172084e-01	3.157895e+00	-2.454799e-01
8.641863e-01	3.157895e+00	-2.673591e-01
9.009752e-01	3.157895e+00	-2.848204e-01
9.288372e-01	3.157895e+00	-2.982085e-01
9.448555e-01	3.157895e+00	-3.059908e-01
9.510565e-01	3.157895e+00	-3.090170e-01
9.510565e-01	4.210526e+00	-3.090170e-01
9.442611e-01	4.210526e+00	-3.078203e-01
9.267277e-01	4.210526e+00	-3.047010e-01
8.963175e-01	4.210526e+00	-2.991555e-01
8.562911e-01	4.210526e+00	-2.916579e-01
8.054250e-01	4.210526e+00	-2.817457e-01
7.470317e-01	4.210526e+00	-2.699633e-01
6.809074e-01	4.210526e+00	-2.559818e-01
6.100852e-01	4.210526e+00	-2.403847e-01
5.354138e-01	4.210526e+00	-2.229691e-01
4.593635e-01	4.210526e+00	-2.042585e-01
3.837764e-01	4.210526e+00	-1.841224e-01
3.103069e-01	4.210526e+00	-1.630077e-01
2.415927e-01	4.210526e+00	-1.409228e-01
1.782654e-01	4.210526e+00	-1.183331e-01
1.234349e-01	4.210526e+00	-9.558566e-02
7.662509e-02	4.210526e+00	-7.318920e-02
4.106998e-02	4.210526e+00	-5.193053e-02
1.528206e-02	4.210526e+00	-3.215886e-02
2.347037e-03	4.210526e+00	-1.488740e-02
0.000000e+00	4.210526e+00	0.000000e+00
1.064939e-02	4.210526e+00	1.066461e-02
3.126595e-02	4.210526e+00	1.703450e-02
6.375031e-02	4.210526e+00	1.787236e-02
1.050105e-01	4.210526e+00	1.417221e-02
1.560448e-01	4.210526e+00	4.777214e-03
2.137742e-01	4.210526e+00	-9.048270e-03
2.782849e-01	4.210526e+00	-2.799567e-02
3.468570e-01	4.210526e+00	-5.051783e-02
4.187060e-01	4.210526e+00	-7.662000e-02
4.916930e-01	4.210526e+00	-1.047585e-01
5.642168e-01	4.210526e+00	-1.343226e-01
6.348639e-01	4.210526e+00	-1.641238e-01
7.013280e-01	4.210526e+00	-1.931337e-01
7.630418e-01	4.210526e+00	-2.206893e-01
8.172084e-01	4.210526e+00	-2.454799e-01
8.641863e-01	4.210526e+00	-2.673591e-01
9.009752e-01	4.210526e+00	-2.848204e-01
9.288372e-01	4.210526e+00	-2.982085e-01
9.448555e-01	4.210526e+00	-3.059908e-01
9.510565e-01	4.210526e+00	-3.090170e-01
9.510565e-01	5.263158e+00	-3.090170e-01
9.442611e-01	5.263158e+00	-3.078203e-01
9.267277e-01	5.263158e+00	-3.047010e-01
8.963175e-01	5.263158e+00	-2.991555e-01
8.562911e-01	5.263158e+00	-2.916579e-01
8.054250e-01	5.263158e+00	-2.817457e-01
7.470317e-01	5.263158e+00	-2.699633e-01
6.809074e-01	5.263158e+00	-2.559818e-01
6.100852e-01	5.263158e+00	-2.403847e-01
5.354138e-01	5.263158e+00	-2.229691e-01
4.593635e-01	5.263158e+00	-2.042585e-01
3.837764e-01	5.263158e+00	-1.841224e-01
3.103069e-01	5.263158e+00	-1.630077e-01
2.415927e-01	5.263158e+00	-1.409228e-01
1.782654e-01	5.263158e+00	-1.183331e-01
1.234349e-01	5.263158e+00	-9.558566e-02
7.662509e-02	5.263158e+00	-7.318920e-02
4.106998e-02	5.263158e+00	-5.193053e-02
1.528206e-02	5.263158e+00	-3.215886e-02
2.347037e-03	5.263158e+00	-1.488740e-02
0.000000e+00	5.263158e+00	0.000000e+00
1.064939e-02	5.263158e+00	1.066461e-02
3.126595e-02	5.263158e+00	1.703450e-02
6.375031e-02	5.263158e+00	1.787236e-02
1.050105e-01	5.263158e+00	1.417221e-02
1.560448e-01	5.263158e+00	4.777214e-03
2.137742e-01	5.263158e+00	-9.048270e-03
2.782849e-01	5.263158e+00	-2.799567e-02
3.468570e-01	5.263158e+00	-5.051783e-02
4.187060e-01	5.263158e+00	-7.662000e-02
4.916930e-01	5.263158e+00	-1.047585e-01
5.642168e-01	5.263158e+00	-1.343226e-01
6.348639e-01	5.263158e+00	-1.641238e-01
7.013280e-01	5.263158e+00	-1.931337e-01
7.630418e-01	5.263158e+00	-2.206893e-01
8.172084e-01	5.263158e+00	-2.454799e-01
8.641863e-01	5.263158e+00	-2.673591e-01
9.009752e-01	5.263158e+00	-2.848204e-01
9.288372e-01	5.263158e+00	-2.982085e-01
9.448555e-01	5.263158e+00	-3.059908e-01
9.510565e-01	5.263158e+00	-3.090170e-01
9.510565e-01	6.315789e+00	-3.090170e-01
9.442611e-01	6.315789e+00	-3.078203e-01
[...]
CELL_DATA 760
VECTORS V double
8.414236e-01	-6.903511e-02	-1.481716e-01
8.655448e-01	-6.886153e-02	-1.539858e-01
8.835596e-01	-6.841178e-02	-1.611255e-01
8.953252e-01	-6.761740e-02	-1.677082e-01
8.977900e-01	-6.645650e-02	-1.749513e-01
8.991023e-01	-6.491143e-02	-1.814176e-01
8.920642e-01	-6.297189e-02	-1.886204e-01
8.847535e-01	-6.061378e-02	-1.948484e-01
8.704192e-01	-5.780860e-02	-2.030081e-01
8.547789e-01	-5.452393e-02	-2.103002e-01
8.294736e-01	-5.073400e-02	-2.209690e-01
7.985516e-01	-4.642475e-02	-2.294988e-01
7.512019e-01	-4.162915e-02	-2.414375e-01
6.891769e-01	-3.639839e-02	-2.458388e-01
6.025253e-01	-3.077038e-02	-2.499687e-01
4.718485e-01	-2.486797e-02	-2.257591e-01
2.701371e-01	-1.869896e-02	-1.615170e-01
-1.744425e-02	-1.242971e-02	1.337455e-02
-4.218380e-01	-5.861931e-03	5.632583e-01
-3.427070e-01	7.190110e-04	2.173812e+00
2.327116e+00	8.432539e-03	2.330441e+00
2.541765e+00	1.519760e-02	7.853278e-01
2.210604e+00	2.214454e-02	5.701750e-02
1.925572e+00	2.899219e-02	-1.726821e-01
1.720218e+00	3.598180e-02	-3.166784e-01
1.570429e+00	4.294871e-02	-3.760984e-01
1.435573e+00	4.988703e-02	-4.216410e-01
1.336753e+00	5.661831e-02	-4.390499e-01
1.250653e+00	6.302430e-02	-4.543520e-01
1.181709e+00	6.890720e-02	-4.555813e-01
1.121878e+00	7.415176e-02	-4.573297e-01
1.071619e+00	7.862031e-02	-4.520434e-01
1.027478e+00	8.225094e-02	-4.484685e-01
9.872031e-01	8.503595e-02	-4.407928e-01
9.499814e-01	8.702669e-02	-4.347797e-01
9.115290e-01	8.832105e-02	-4.245307e-01
8.743616e-01	8.904737e-02	-4.150010e-01
8.341872e-01	8.935469e-02	-4.008422e-01
7.910588e-01	8.939865e-02	-3.843269e-01
7.483074e-01	8.935299e-02	-3.651811e-01
8.268584e-01	-4.834521e-02	-1.456067e-01
8.473464e-01	-4.822090e-02	-1.507482e-01
8.618092e-01	-4.790239e-02	-1.571591e-01
8.704955e-01	-4.733859e-02	-1.630572e-01
8.702471e-01	-4.650687e-02	-1.695840e-01
8.688632e-01	-4.538840e-02	-1.753161e-01
8.588643e-01	-4.397252e-02	-1.816005e-01
8.479946e-01	-4.224420e-02	-1.867530e-01
8.293252e-01	-4.018863e-02	-1.934237e-01
8.083370e-01	-3.779062e-02	-1.988742e-01
7.765481e-01	-3.502044e-02	-2.068698e-01
7.378881e-01	-3.192849e-02	-2.120645e-01
6.815836e-01	-2.849218e-02	-2.190621e-01
6.085312e-01	-2.476659e-02	-2.170714e-01
5.087300e-01	-2.077765e-02	-2.110560e-01
3.607275e-01	-1.660843e-02	-1.725925e-01
1.373172e-01	-1.226078e-02	-8.210297e-02
-1.815697e-01	-7.847979e-03	1.392100e-01
-6.032728e-01	-3.230436e-03	8.055187e-01
-4.198770e-01	1.389301e-03	2.663305e+00
2.682641e+00	6.789688e-03	2.686475e+00
2.844215e+00	1.150587e-02	8.787756e-01
2.433346e+00	1.632034e-02	6.276261e-02
2.097405e+00	2.102991e-02	-1.880918e-01
1.860540e+00	2.579309e-02	-3.425105e-01
1.689690e+00	3.049056e-02	-4.046600e-01
1.539099e+00	3.511645e-02	-4.520475e-01
1.427838e+00	3.955260e-02	-4.689662e-01
1.330742e+00	4.372717e-02	-4.834478e-01
1.251925e+00	4.753254e-02	-4.826515e-01
1.182686e+00	5.085838e-02	-4.821181e-01
1.123351e+00	5.367587e-02	-4.738655e-01
1.070403e+00	5.593534e-02	-4.672042e-01
1.021750e+00	5.764118e-02	-4.562183e-01
9.765970e-01	5.883463e-02	-4.469610e-01
9.307654e-01	5.958655e-02	-4.334898e-01
8.867529e-01	5.998532e-02	-4.208823e-01
8.402949e-01	6.013174e-02	-4.037770e-01
7.917019e-01	6.012812e-02	-3.846394e-01
7.448106e-01	6.008482e-02	-3.634747e-01
8.205627e-01	-2.041335e-02	-1.444981e-01
8.397213e-01	-2.036151e-02	-1.493916e-01
8.527041e-01	-2.023116e-02	-1.554987e-01
8.598626e-01	-1.999514e-02	-1.610655e-01
8.580715e-01	-1.963653e-02	-1.672114e-01
8.551046e-01	-1.913866e-02	-1.725399e-01
8.434807e-01	-1.849177e-02	-1.783478e-01
8.308766e-01	-1.769053e-02	-1.829832e-01
8.103164e-01	-1.670781e-02	-1.889903e-01
7.869244e-01	-1.558741e-02	-1.936061e-01
7.528551e-01	-1.431522e-02	-2.005581e-01
7.115581e-01	-1.290594e-02	-2.044974e-01
6.517345e-01	-1.134961e-02	-2.094685e-01
5.745748e-01	-9.682391e-03	-2.049587e-01
4.697841e-01	-7.914397e-03	-1.948986e-01
3.150322e-01	-6.078106e-03	-1.507293e-01
8.302955e-02	-4.170232e-03	-4.964398e-02
-2.483774e-01	-2.238727e-03	1.904317e-01
-6.768022e-01	-2.226978e-04	9.036987e-01
-4.509215e-01	1.785906e-03	2.860223e+00
2.823758e+00	4.115390e-03	2.827794e+00
2.961953e+00	6.123690e-03	9.151531e-01
2.517985e+00	8.137484e-03	6.494568e-02
2.160714e+00	1.006162e-02	-1.937693e-01
1.910368e+00	1.195235e-02	-3.516834e-01
1.730299e+00	1.375609e-02	-4.143852e-01
1.572796e+00	1.546828e-02	-4.619447e-01
1.456133e+00	1.704825e-02	-4.782597e-01
1.354659e+00	1.847853e-02	-4.921366e-01
1.271701e+00	1.974467e-02	-4.902760e-01
1.198799e+00	2.080990e-02	-4.886864e-01
1.136483e+00	2.167026e-02	-4.794050e-01
1.080552e+00	2.230732e-02	-4.716340e-01
1.029170e+00	2.277893e-02	-4.595314e-01
9.815346e-01	2.308099e-02	-4.492208e-01
9.334885e-01	2.324563e-02	-4.347580e-01
8.875242e-01	2.330808e-02	-4.212484e-01
8.394018e-01	2.330583e-02	-4.033479e-01
7.894768e-01	2.327538e-02	-3.835583e-01
7.416762e-01	2.324858e-02	-3.619450e-01
8.181595e-01	-1.022620e-02	-1.440749e-01
8.367452e-01	-1.020518e-02	-1.488621e-01
8.489726e-01	-1.014893e-02	-1.548182e-01
8.553583e-01	-1.004317e-02	-1.602217e-01
8.527789e-01	-9.878052e-03	-1.661800e-01
8.489728e-01	-9.630193e-03	-1.713027e-01
8.364804e-01	-9.317517e-03	-1.768676e-01
8.225814e-01	-8.919996e-03	-1.811563e-01
8.009489e-01	-8.446534e-03	-1.868055e-01
7.769254e-01	-7.882435e-03	-1.911460e-01
7.415003e-01	-7.242732e-03	-1.975332e-01
6.983668e-01	-6.504788e-03	-2.007063e-01
6.368050e-01	-5.698786e-03	-2.046702e-01
5.574880e-01	-4.822051e-03	-1.988636e-01
4.500728e-01	-3.886642e-03	-1.867210e-01
2.917772e-01	-2.910006e-03	-1.396027e-01
5.530269e-02	-1.895308e-03	-3.306589e-02
-2.825406e-01	-8.609836e-04	2.166247e-01
-7.144067e-01	2.198917e-04	9.539099e-01
-4.667599e-01	1.280768e-03	2.960687e+00
2.895349e+00	2.540268e-03	2.899487e+00
3.021217e+00	3.604688e-03	9.334640e-01
2.560199e+00	4.664525e-03	6.603450e-02
2.191943e+00	5.668116e-03	-1.965698e-01
1.934686e+00	6.648375e-03	-3.561602e-01
1.749907e+00	7.569114e-03	-4.190812e-01
1.588904e+00	8.434125e-03	-4.666758e-01
1.469546e+00	9.231704e-03	-4.826652e-01
1.365875e+00	9.940901e-03	-4.962114e-01
1.281342e+00	1.056038e-02	-4.939927e-01
1.206799e+00	1.109917e-02	-4.919479e-01
1.142496e+00	1.153072e-02	-4.819417e-01
1.085247e+00	1.186892e-02	-4.736830e-01
1.032972e+00	1.210712e-02	-4.612288e-01
9.841999e-01	1.226720e-02	-4.504406e-01
9.351549e-01	1.234814e-02	-4.355342e-01
8.883134e-01	1.239207e-02	-4.216230e-01
8.394631e-01	1.240225e-02	-4.033773e-01
7.889783e-01	1.239543e-02	-3.833161e-01
7.407070e-01	1.238677e-02	-3.614721e-01
8.170345e-01	-5.681414e-03	-1.438768e-01
8.351930e-01	-5.670334e-03	-1.485860e-01
8.470105e-01	-5.638899e-03	-1.544604e-01
8.529558e-01	-5.579578e-03	-1.597717e-01
8.496196e-01	-5.483330e-03	-1.655644e-01
8.453745e-01	-5.342760e-03	-1.705766e-01
8.324963e-01	-5.170822e-03	-1.760252e-01
8.184748e-01	-4.950172e-03	-1.802519e-01
7.963113e-01	-4.683944e-03	-1.857239e-01
7.711201e-01	-4.346477e-03	-1.897177e-01
7.348509e-01	-3.953543e-03	-1.957618e-01
6.909803e-01	-3.515017e-03	-1.985835e-01
6.283652e-01	-3.041068e-03	-2.019576e-01
5.476525e-01	-2.618204e-03	-1.953551e-01
4.386722e-01	-2.072297e-03	-1.819912e-01
2.783610e-01	-1.462079e-03	-1.331837e-01
3.927702e-02	-8.500347e-04	-2.348402e-02
-3.024753e-01	-2.278424e-04	2.319087e-01
-7.360340e-01	4.226313e-04	9.827877e-01
-4.759466e-01	1.069937e-03	3.018958e+00
2.937514e+00	1.816246e-03	2.941712e+00
3.055369e+00	2.453702e-03	9.440158e-01
2.584406e+00	3.084880e-03	6.665887e-02
2.209860e+00	3.678411e-03	-1.981766e-01
1.948493e+00	4.250848e-03	-3.587020e-01
1.760873e+00	4.776964e-03	-4.217073e-01
1.597948e+00	5.265570e-03	-4.693321e-01
1.477004e+00	5.812220e-03	-4.851147e-01
1.371969e+00	6.219229e-03	-4.984251e-01
1.286318e+00	6.560115e-03	-4.959110e-01
1.210950e+00	6.843200e-03	-4.936399e-01
1.146320e+00	7.074411e-03	-4.835544e-01
1.088275e+00	7.273184e-03	-4.750049e-01
1.034941e+00	7.416371e-03	-4.621079e-01
9.854697e-01	7.514846e-03	-4.510217e-01
9.358693e-01	7.563373e-03	-4.358669e-01
8.888561e-01	7.586630e-03	-4.218805e-01
8.396025e-01	7.592973e-03	-4.034443e-01
7.887831e-01	7.589095e-03	-3.832213e-01
7.403501e-01	7.584843e-03	-3.612979e-01
8.163000e-01	-3.808529e-03	-1.437474e-01
8.342374e-01	-3.694740e-03	-1.484160e-01
8.457819e-01	-3.609511e-03	-1.542364e-01
8.513827e-01	-3.517360e-03	-1.594770e-01
8.479381e-01	-3.407196e-03	-1.652367e-01
8.435536e-01	-3.312838e-03	-1.702092e-01
8.304070e-01	-3.159958e-03	-1.755834e-01
8.156474e-01	-2.985783e-03	-1.796293e-01
7.927954e-01	-2.776107e-03	-1.849039e-01
7.673356e-01	-2.522430e-03	-1.887866e-01
7.306330e-01	-2.265240e-03	-1.946382e-01
6.862041e-01	-2.024618e-03	-1.972108e-01
6.243109e-01	-1.697994e-03	-2.006545e-01
5.431613e-01	-1.469202e-03	-1.937531e-01
4.313022e-01	-1.095505e-03	-1.789337e-01
2.692336e-01	-7.097600e-04	-1.288166e-01
2.894403e-02	-3.067165e-04	-1.730585e-02
-3.150889e-01	9.488684e-05	2.415796e-01
-7.502471e-01	5.131435e-04	1.001766e+00
-4.818290e-01	9.433037e-04	3.056270e+00
2.963148e+00	1.405222e-03	2.967382e+00
3.076974e+00	1.813969e-03	9.506913e-01
2.599600e+00	2.217255e-03	6.705076e-02
2.220806e+00	2.594879e-03	-1.991582e-01
1.956697e+00	2.953278e-03	-3.602123e-01
1.767274e+00	3.289263e-03	-4.232403e-01
1.604639e+00	3.713841e-03	-4.712973e-01
1.482719e+00	3.976483e-03	-4.869916e-01
1.375615e+00	4.242375e-03	-4.997497e-01
1.289215e+00	4.479941e-03	-4.970280e-01
1.213240e+00	4.667868e-03	-4.945732e-01
1.147986e+00	4.801369e-03	-4.842575e-01
1.089827e+00	4.929641e-03	-4.756822e-01
1.036471e+00	5.045015e-03	-4.627913e-01
9.866017e-01	5.138859e-03	-4.515398e-01
9.365304e-01	5.255834e-03	-4.361748e-01
8.890374e-01	5.327805e-03	-4.219666e-01
8.395973e-01	5.398929e-03	-4.034418e-01
7.886052e-01	5.472482e-03	-3.831348e-01
7.400558e-01	5.595686e-03	-3.611543e-01
7.979380e-01	-2.033266e-03	-1.405140e-01
8.255191e-01	-2.029232e-03	-1.468649e-01
8.410754e-01	-2.019043e-03	-1.533781e-01
8.478804e-01	-2.000428e-03	-1.588210e-01
8.455394e-01	-1.970286e-03	-1.647693e-01
8.410487e-01	-2.014221e-03	-1.697038e-01
8.274511e-01	-1.891972e-03	-1.749584e-01
8.130083e-01	-1.787132e-03	-1.790480e-01
7.900560e-01	-1.688104e-03	-1.842649e-01
7.644150e-01	-1.547001e-03	-1.880681e-01
7.283410e-01	-1.391193e-03	-1.940276e-01
6.834364e-01	-1.221558e-03	-1.964154e-01
6.205979e-01	-1.023423e-03	-1.994612e-01
5.387918e-01	-7.452094e-04	-1.921944e-01
4.263103e-01	-5.093110e-04	-1.768627e-01
2.638387e-01	-3.013112e-04	-1.262354e-01
2.207276e-02	-5.719063e-05	-1.319746e-02
-3.234496e-01	1.657776e-04	2.479897e-01
-7.593856e-01	4.274382e-04	1.013968e+00
-4.856534e-01	6.867204e-04	3.080529e+00
2.980306e+00	9.841125e-04	2.984565e+00
3.091045e+00	1.235430e-03	9.550387e-01
2.609521e+00	1.507772e-03	6.730665e-02
2.228063e+00	1.737272e-03	-1.998090e-01
1.962419e+00	1.957792e-03	-3.612656e-01
1.774019e+00	2.171615e-03	-4.248556e-01
1.608246e+00	2.398149e-03	-4.723567e-01
1.484340e+00	2.470638e-03	-4.875243e-01
1.378529e+00	2.614588e-03	-5.008085e-01
1.291686e+00	2.750345e-03	-4.979805e-01
1.214977e+00	2.862680e-03	-4.952812e-01
1.149658e+00	2.952707e-03	-4.849628e-01
1.091528e+00	3.050916e-03	-4.764244e-01
1.037958e+00	3.116118e-03	-4.634553e-01
9.888141e-01	3.236672e-03	-4.525524e-01
9.394528e-01	3.228134e-03	-4.375358e-01
8.921210e-01	3.222168e-03	-4.234302e-01
8.439910e-01	3.219209e-03	-4.055530e-01
7.971943e-01	3.215960e-03	-3.873078e-01
7.592179e-01	3.213672e-03	-3.705056e-01
8.156231e-01	-6.108827e-04	-1.436282e-01
8.334093e-01	-7.147522e-04	-1.482687e-01
8.447720e-01	-7.722602e-04	-1.540522e-01
8.501368e-01	-8.369294e-04	-1.592437e-01
8.483528e-01	-8.651822e-04	-1.653175e-01
8.420153e-01	-8.553977e-04	-1.698988e-01
8.269278e-01	-8.496898e-04	-1.748478e-01
8.127551e-01	-8.510926e-04	-1.789923e-01
7.895486e-01	-8.831406e-04	-1.841466e-01
7.634378e-01	-8.238015e-04	-1.878277e-01
7.263791e-01	-7.379485e-04	-1.935050e-01
6.813057e-01	-5.971142e-04	-1.958031e-01
6.177222e-01	-5.289293e-04	-1.985369e-01
5.354810e-01	-3.042319e-04	-1.910134e-01
4.240399e-01	-2.224824e-04	-1.759208e-01
2.609524e-01	-1.015025e-04	-1.248544e-01
1.890665e-02	2.936753e-05	-1.130443e-02
-3.273682e-01	1.656631e-04	2.509941e-01
-7.646402e-01	3.095624e-04	1.020984e+00
-4.878510e-01	4.531786e-04	3.094469e+00
2.990007e+00	6.184287e-04	2.994280e+00
3.100202e+00	7.585141e-04	9.578679e-01
2.615603e+00	8.956544e-04	6.746352e-02
2.231944e+00	1.022868e-03	-2.001570e-01
1.965421e+00	1.143047e-03	-3.618182e-01
1.774843e+00	1.254238e-03	-4.250529e-01
1.609059e+00	1.270666e-03	-4.725954e-01
1.485754e+00	1.368889e-03	-4.879886e-01
1.379261e+00	1.460659e-03	-5.010745e-01
1.292345e+00	1.502532e-03	-4.982348e-01
1.215774e+00	1.548020e-03	-4.956062e-01
1.150384e+00	1.665920e-03	-4.852690e-01
1.092018e+00	1.652995e-03	-4.766387e-01
1.039099e+00	1.654461e-03	-4.639645e-01
9.885280e-01	1.618569e-03	-4.524215e-01
9.362568e-01	1.548352e-03	-4.360473e-01
8.888252e-01	1.488486e-03	-4.218659e-01
8.394100e-01	1.440913e-03	-4.033518e-01
7.883326e-01	1.360829e-03	-3.830024e-01
7.397054e-01	1.232914e-03	-3.609833e-01
8.153699e-01	-1.359907e-03	-1.435836e-01
8.329764e-01	-1.359916e-03	-1.481916e-01
8.451786e-01	-1.360481e-03	-1.541263e-01
8.500703e-01	-1.342479e-03	-1.592312e-01
8.458399e-01	-1.300733e-03	-1.648278e-01
8.407865e-01	-1.223069e-03	-1.696509e-01
8.273902e-01	-1.126383e-03	-1.749455e-01
8.134969e-01	-1.189570e-03	-1.791557e-01
7.896647e-01	-9.703042e-04	-1.841737e-01
7.625077e-01	-1.019888e-03	-1.875988e-01
7.253815e-01	-6.636018e-04	-1.932392e-01
6.806287e-01	-7.519979e-04	-1.956085e-01
6.165945e-01	-3.171734e-04	-1.981745e-01
5.341290e-01	-3.815563e-04	-1.905311e-01
4.230482e-01	7.701898e-05	-1.755093e-01
2.592091e-01	4.159396e-04	-1.240203e-01
1.637512e-02	6.107739e-04	-9.790807e-03
-3.306099e-01	6.580188e-04	2.534796e-01
-7.673234e-01	7.038762e-04	1.024567e+00
-4.889937e-01	7.629971e-04	3.101717e+00
2.995256e+00	8.420880e-04	2.999537e+00
3.103215e+00	9.194976e-04	9.587989e-01
2.618016e+00	9.844077e-04	6.752577e-02
2.234179e+00	1.094975e-03	-2.003575e-01
1.967056e+00	1.028535e-03	-3.621192e-01
1.776103e+00	8.446577e-04	-4.253548e-01
1.610044e+00	4.632249e-04	-4.728848e-01
1.486974e+00	6.235392e-04	-4.883893e-01
1.380259e+00	3.055339e-04	-5.014371e-01
1.292789e+00	4.344777e-04	-4.984058e-01
1.217017e+00	1.390507e-04	-4.961130e-01
1.151028e+00	2.892606e-04	-4.855408e-01
1.091369e+00	2.989599e-05	-4.763552e-01
1.037490e+00	8.561526e-05	-4.632463e-01
9.871548e-01	-1.320477e-04	-4.517929e-01
9.370211e-01	-7.415249e-05	-4.364033e-01
8.896357e-01	-8.852358e-05	-4.222506e-01
8.402947e-01	-9.449416e-05	-4.037769e-01
7.882315e-01	-8.943817e-05	-3.829533e-01
7.396286e-01	-8.838177e-05	-3.609458e-01
8.156246e-01	-2.041464e-04	-1.436285e-01
8.334479e-01	-2.322264e-04	-1.482755e-01
8.440754e-01	-1.777167e-04	-1.539252e-01
8.485797e-01	-1.248005e-04	-1.589520e-01
8.458868e-01	-1.020400e-04	-1.648369e-01
8.389901e-01	-8.167694e-05	-1.692884e-01
8.265318e-01	-6.461057e-05	-1.747640e-01
8.104128e-01	-4.785160e-05	-1.784765e-01
7.873311e-01	8.251498e-06	-1.836294e-01
7.593862e-01	8.008584e-06	-1.868309e-01
7.228416e-01	9.434402e-06	-1.925626e-01
6.768241e-01	-1.543468e-05	-1.945151e-01
6.123488e-01	-3.519911e-05	-1.968099e-01
5.299916e-01	-2.509128e-05	-1.890552e-01
4.109196e-01	1.248326e-05	-1.704776e-01
2.508719e-01	-1.470559e-05	-1.200313e-01
1.336505e-02	-6.497196e-06	-7.991064e-03
-3.297635e-01	4.711825e-07	2.528306e-01
-7.674629e-01	5.956126e-06	1.024753e+00
-4.893260e-01	1.034565e-05	3.103824e+00
2.997767e+00	1.475783e-05	3.002051e+00
3.106351e+00	1.830649e-05	9.597677e-01
2.621513e+00	2.177165e-05	6.761596e-02
2.232528e+00	2.462289e-05	-2.002094e-01
1.960178e+00	6.275727e-05	-3.608531e-01
1.764926e+00	6.546611e-05	-4.226779e-01
1.606104e+00	3.937668e-05	-4.717276e-01
1.483354e+00	1.005791e-04	-4.872001e-01
1.376912e+00	9.813345e-05	-5.002209e-01
1.290211e+00	9.812954e-05	-4.974121e-01
1.213929e+00	1.031692e-04	-4.948540e-01
1.149092e+00	7.450834e-05	-4.847240e-01
1.089173e+00	9.547162e-05	-4.753966e-01
1.036965e+00	1.147140e-04	-4.630116e-01
9.856840e-01	1.388496e-04	-4.511198e-01
9.371885e-01	1.646232e-04	-4.364812e-01
8.883370e-01	1.946325e-04	-4.216342e-01
8.393183e-01	2.059066e-04	-4.033078e-01
7.886783e-01	2.844134e-04	-3.831704e-01
7.398672e-01	2.738606e-04	-3.610622e-01
8.200824e-01	1.457536e-03	-1.444135e-01
8.302510e-01	1.457876e-03	-1.477068e-01
8.416207e-01	1.459495e-03	-1.534775e-01
8.482884e-01	1.443979e-03	-1.588974e-01
8.449778e-01	1.405526e-03	-1.646598e-01
8.401455e-01	1.418849e-03	-1.695215e-01
8.268703e-01	1.280076e-03	-1.748356e-01
8.124447e-01	1.341777e-03	-1.789239e-01
7.889265e-01	1.073135e-03	-1.840015e-01
7.624921e-01	1.126514e-03	-1.875950e-01
7.256860e-01	7.790011e-04	-1.933203e-01
6.812255e-01	7.932899e-04	-1.957800e-01
6.167421e-01	3.631784e-04	-1.982219e-01
5.334393e-01	4.542834e-04	-1.902851e-01
4.228109e-01	-4.028177e-05	-1.754109e-01
2.596168e-01	-3.807803e-04	-1.242154e-01
1.604761e-02	-5.780974e-04	-9.594986e-03
-3.309356e-01	-6.034014e-04	2.537293e-01
-7.676022e-01	-6.546899e-04	1.024939e+00
-4.890901e-01	-7.485355e-04	3.102328e+00
2.995644e+00	-8.354472e-04	2.999925e+00
3.103523e+00	-8.908928e-04	9.588940e-01
2.618218e+00	-9.883307e-04	6.753095e-02
2.235298e+00	-1.103744e-03	-2.004578e-01
1.967814e+00	-1.043176e-03	-3.622589e-01
1.775670e+00	-8.326580e-04	-4.252511e-01
1.610640e+00	-4.886170e-04	-4.730599e-01
1.487761e+00	-6.574304e-04	-4.886479e-01
1.380228e+00	-3.517248e-04	-5.014258e-01
1.292853e+00	-4.144984e-04	-4.984305e-01
1.216723e+00	-1.328214e-04	-4.959934e-01
1.150918e+00	-2.309901e-04	-4.854943e-01
1.091905e+00	-1.813798e-05	-4.765893e-01
1.038109e+00	-1.183656e-04	-4.635227e-01
9.879506e-01	-8.151065e-06	-4.521572e-01
9.380490e-01	-4.086989e-05	-4.368820e-01
8.906314e-01	-1.446377e-05	-4.227232e-01
8.426372e-01	-5.439933e-06	-4.049026e-01
7.927547e-01	-9.744929e-06	-3.851508e-01
7.380125e-01	-1.074133e-05	-3.601571e-01
8.155676e-01	1.508679e-03	-1.436185e-01
8.333266e-01	1.533824e-03	-1.482539e-01
8.446453e-01	1.470348e-03	-1.540291e-01
8.499909e-01	1.432739e-03	-1.592163e-01
8.462956e-01	1.295273e-03	-1.649166e-01
8.413244e-01	1.247940e-03	-1.697594e-01
8.275676e-01	1.153575e-03	-1.749831e-01
8.134987e-01	1.116284e-03	-1.791561e-01
7.901492e-01	1.073643e-03	-1.842867e-01
7.632725e-01	9.785953e-04	-1.877870e-01
7.272268e-01	8.749916e-04	-1.937308e-01
6.822525e-01	7.908542e-04	-1.960752e-01
6.172949e-01	6.976205e-04	-1.983996e-01
5.355738e-01	5.366822e-04	-1.910465e-01
4.246882e-01	3.909114e-04	-1.761897e-01
2.610258e-01	2.732960e-04	-1.248895e-01
1.855139e-02	1.145839e-04	-1.109202e-02
-3.279047e-01	-4.581584e-05	2.514055e-01
-7.636972e-01	-2.117983e-04	1.019725e+00
-4.873334e-01	-3.758919e-04	3.091186e+00
2.990969e+00	-5.642650e-04	2.995243e+00
3.099247e+00	-7.244314e-04	9.575728e-01
2.614538e+00	-8.822631e-04	6.743606e-02
2.231675e+00	-1.029598e-03	-2.001329e-01
1.965896e+00	-1.205431e-03	-3.619057e-01
1.774587e+00	-1.335262e-03	-4.249918e-01
1.608385e+00	-1.456808e-03	-4.723973e-01
1.485464e+00	-1.601266e-03	-4.878932e-01
1.379985e+00	-1.700949e-03	-5.013373e-01
1.293001e+00	-1.781790e-03	-4.984876e-01
1.216249e+00	-1.852906e-03	-4.957999e-01
1.150479e+00	-1.949205e-03	-4.853089e-01
1.090805e+00	-1.992285e-03	-4.761089e-01
1.036962e+00	-2.021150e-03	-4.630102e-01
9.870733e-01	-2.067902e-03	-4.517557e-01
9.369699e-01	-2.116021e-03	-4.363795e-01
8.891953e-01	-2.062795e-03	-4.220415e-01
8.395391e-01	-2.106937e-03	-4.034139e-01
7.883809e-01	-2.184006e-03	-3.830259e-01
7.397146e-01	-2.172416e-03	-3.609878e-01
8.158625e-01	2.168687e-03	-1.436704e-01
8.336839e-01	2.164241e-03	-1.483175e-01
8.448145e-01	2.157422e-03	-1.540600e-01
8.529467e-01	2.057784e-03	-1.597700e-01
8.485237e-01	2.024879e-03	-1.653508e-01
8.426400e-01	1.987309e-03	-1.700249e-01
8.288523e-01	1.906832e-03	-1.752547e-01
8.135822e-01	1.810582e-03	-1.791744e-01
7.907954e-01	1.710892e-03	-1.844374e-01
7.650998e-01	1.564389e-03	-1.882366e-01
7.281421e-01	1.394680e-03	-1.939746e-01
6.835891e-01	1.289474e-03	-1.964593e-01
6.202466e-01	1.065249e-03	-1.993483e-01
5.380140e-01	8.534236e-04	-1.919169e-01