# vtk DataFile Version 2.0
OUTPUT by 3D-VPM
ASCII
DATASET UNSTRUCTURED_GRID
POINTS 820 double
1.000000e+00	0.000000e+00	-2.991406e-04
9.931674e-01	0.000000e+00	-1.260966e-03
9.755282e-01	0.000000e+00	-3.712451e-03
9.448927e-01	0.000000e+00	-7.835551e-03
9.045085e-01	0.000000e+00	-1.307378e-02
8.530688e-01	0.000000e+00	-1.936520e-02
7.938926e-01	0.000000e+00	-2.620400e-02
7.266841e-01	0.000000e+00	-3.334034e-02
6.545085e-01	0.000000e+00	-4.039187e-02
5.781101e-01	0.000000e+00	-4.690336e-02
5.000000e-01	0.000000e+00	-5.260939e-02
4.218900e-01	0.000000e+00	-5.681647e-02
3.454915e-01	0.000000e+00	-5.943854e-02
2.733159e-01	0.000000e+00	-5.966845e-02
2.061074e-01	0.000000e+00	-5.775357e-02
1.469312e-01	0.000000e+00	-5.306303e-02
9.549150e-02	0.000000e+00	-4.622775e-02
5.510729e-02	0.000000e+00	-3.699669e-02
2.447174e-02	0.000000e+00	-2.616162e-02
6.832625e-03	0.000000e+00	-1.373263e-02
0.000000e+00	0.000000e+00	-2.991406e-04
6.832625e-03	0.000000e+00	1.313434e-02
2.447174e-02	0.000000e+00	2.556334e-02
5.510728e-02	0.000000e+00	3.639841e-02
9.549150e-02	0.000000e+00	4.562947e-02
1.469312e-01	0.000000e+00	5.246474e-02
2.061074e-01	0.000000e+00	5.715530e-02
2.733159e-01	0.000000e+00	5.907017e-02
3.454915e-01	0.000000e+00	5.884026e-02
4.218900e-01	0.000000e+00	5.621819e-02
5.000000e-01	0.000000e+00	5.201111e-02
5.781101e-01	0.000000e+00	4.630507e-02
6.545085e-01	0.000000e+00	3.979359e-02
7.266841e-01	0.000000e+00	3.274206e-02
7.938926e-01	0.000000e+00	2.560572e-02
8.530688e-01	0.000000e+00	1.876692e-02
9.045085e-01	0.000000e+00	1.247550e-02
9.448927e-01	0.000000e+00	7.237269e-03
9.755282e-01	0.000000e+00	3.114169e-03
9.931674e-01	0.000000e+00	6.626844e-04
1.000000e+00	0.000000e+00	-2.991406e-04
1.000000e+00	1.052632e+00	-2.991406e-04
9.931674e-01	1.052632e+00	-1.260966e-03
9.755282e-01	1.052632e+00	-3.712451e-03
9.448927e-01	1.052632e+00	-7.835551e-03
9.045085e-01	1.052632e+00	-1.307378e-02
8.530689e-01	1.052632e+00	-1.936520e-02
7.938926e-01	1.052632e+00	-2.620400e-02
7.266841e-01	1.052632e+00	-3.334034e-02
6.545085e-01	1.052632e+00	-4.039187e-02
5.781101e-01	1.052632e+00	-4.690336e-02
5.000000e-01	1.052632e+00	-5.260939e-02
4.218900e-01	1.052632e+00	-5.681647e-02
3.454915e-01	1.052632e+00	-5.943854e-02
2.733158e-01	1.052632e+00	-5.966845e-02
2.061074e-01	1.052632e+00	-5.775357e-02
1.469311e-01	1.052632e+00	-5.306303e-02
9.549150e-02	1.052632e+00	-4.622775e-02
5.510729e-02	1.052632e+00	-3.699669e-02
2.447174e-02	1.052632e+00	-2.616162e-02
6.832625e-03	1.052632e+00	-1.373263e-02
0.000000e+00	1.052632e+00	-2.991406e-04
6.832625e-03	1.052632e+00	1.313434e-02
2.447174e-02	1.052632e+00	2.556334e-02
5.510728e-02	1.052632e+00	3.639841e-02
9.549150e-02	1.052632e+00	4.562947e-02
1.469311e-01	1.052632e+00	5.246474e-02
2.061074e-01	1.052632e+00	5.715530e-02
2.733158e-01	1.052632e+00	5.907017e-02
3.454915e-01	1.052632e+00	5.884026e-02
4.218900e-01	1.052632e+00	5.621819e-02
5.000000e-01	1.052632e+00	5.201111e-02
5.781101e-01	1.052632e+00	4.630507e-02
6.545085e-01	1.052632e+00	3.979359e-02
7.266841e-01	1.052632e+00	3.274206e-02
7.938926e-01	1.052632e+00	2.560572e-02
8.530689e-01	1.052632e+00	1.876692e-02
9.045085e-01	1.052632e+00	1.247550e-02
9.448927e-01	1.052632e+00	7.237269e-03
9.755282e-01	1.052632e+00	3.114169e-03
9.931674e-01	1.052632e+00	6.626844e-04
1.000000e+00	1.052632e+00	-2.991406e-04
1.000000e+00	2.105263e+00	-2.991406e-04
9.931674e-01	2.105263e+00	-1.260966e-03
9.755282e-01	2.105263e+00	-3.712451e-03
9.448927e-01	2.105263e+00	-7.835551e-03
9.045085e-01	2.105263e+00	-1.307378e-02
8.530689e-01	2.105263e+00	-1.936520e-02
7.938926e-01	2.105263e+00	-2.620400e-02
7.266841e-01	2.105263e+00	-3.334034e-02
6.545085e-01	2.105263e+00	-4.039187e-02
5.781101e-01	2.105263e+00	-4.690336e-02
5.000000e-01	2.105263e+00	-5.260939e-02
4.218900e-01	2.105263e+00	-5.681647e-02
3.454915e-01	2.105263e+00	-5.943854e-02
2.733158e-01	2.105263e+00	-5.966845e-02
2.061074e-01	2.105263e+00	-5.775357e-02
1.469312e-01	2.105263e+00	-5.306303e-02
9.549150e-02	2.105263e+00	-4.622775e-02
5.510729e-02	2.105263e+00	-3.699669e-02
2.447174e-02	2.105263e+00	-2.616162e-02
6.832625e-03	2.105263e+00	-1.373263e-02
0.000000e+00	2.105263e+00	-2.991406e-04
6.832625e-03	2.105263e+00	1.313434e-02
2.447174e-02	2.105263e+00	2.556334e-02
5.510728e-02	2.105263e+00	3.639841e-02
9.549150e-02	2.105263e+00	4.562947e-02
1.469312e-01	2.105263e+00	5.246474e-02
2.061074e-01	2.105263e+00	5.715530e-02
2.733158e-01	2.105263e+00	5.907017e-02
3.454915e-01	2.105263e+00	5.884026e-02
4.218900e-01	2.105263e+00	5.621819e-02
5.000000e-01	2.105263e+00	5.201111e-02
5.781101e-01	2.105263e+00	4.630507e-02
6.545085e-01	2.105263e+00	3.979359e-02
7.266841e-01	2.105263e+00	3.274206e-02
7.938926e-01	2.105263e+00	2.560572e-02
8.530689e-01	2.105263e+00	1.876692e-02
9.045085e-01	2.105263e+00	1.247550e-02
9.448927e-01	2.105263e+00	7.237269e-03
9.755282e-01	2.105263e+00	3.114169e-03
9.931674e-01	2.105263e+00	6.626844e-04
1.000000e+00	2.105263e+00	-2.991406e-04
1.000000e+00	3.157895e+00	-2.991406e-04
9.931674e-01	3.157895e+00	-1.260966e-03
9.755282e-01	3.157895e+00	-3.712451e-03
9.448927e-01	3.157895e+00	-7.835551e-03
9.045085e-01	3.157895e+00	-1.307378e-02
8.530689e-01	3.157895e+00	-1.936520e-02
7.938926e-01	3.157895e+00	-2.620400e-02
7.266842e-01	3.157895e+00	-3.334034e-02
6.545085e-01	3.157895e+00	-4.039187e-02
5.781101e-01	3.157895e+00	-4.690336e-02
5.000000e-01	3.157895e+00	-5.260939e-02
4.218900e-01	3.157895e+00	-5.681647e-02
3.454915e-01	3.157895e+00	-5.943854e-02
2.733158e-01	3.157895e+00	-5.966845e-02
2.061074e-01	3.157895e+00	-5.775357e-02
1.469312e-01	3.157895e+00	-5.306303e-02
9.549150e-02	3.157895e+00	-4.622775e-02
5.510729e-02	3.157895e+00	-3.699669e-02
2.447174e-02	3.157895e+00	-2.616162e-02
6.832625e-03	3.157895e+00	-1.373263e-02
0.000000e+00	3.157895e+00	-2.991406e-04
6.832625e-03	3.157895e+00	1.313434e-02
2.447174e-02	3.157895e+00	2.556334e-02
5.510728e-02	3.157895e+00	3.639841e-02
9.549150e-02	3.157895e+00	4.562947e-02
1.469312e-01	3.157895e+00	5.246474e-02
2.061074e-01	3.157895e+00	5.715530e-02
2.733158e-01	3.157895e+00	5.907017e-02
3.454915e-01	3.157895e+00	5.884026e-02
4.218900e-01	3.157895e+00	5.621819e-02
5.000000e-01	3.157895e+00	5.201111e-02
5.781101e-01	3.157895e+00	4.630507e-02
6.545085e-01	3.157895e+00	3.979359e-02
7.266842e-01	3.157895e+00	3.274206e-02
7.938926e-01	3.157895e+00	2.560572e-02
8.530689e-01	3.157895e+00	1.876692e-02
9.045085e-01	3.157895e+00	1.247550e-02
9.448927e-01	3.157895e+00	7.237269e-03
9.755282e-01	3.157895e+00	3.114169e-03
9.931674e-01	3.157895e+00	6.626844e-04
1.000000e+00	3.157895e+00	-2.991406e-04
1.000000e+00	4.210526e+00	-2.991406e-04
9.931674e-01	4.210526e+00	-1.260966e-03
9.755282e-01	4.210526e+00	-3.712451e-03
9.448927e-01	4.210526e+00	-7.835551e-03
9.045085e-01	4.210526e+00	-1.307378e-02
8.530689e-01	4.210526e+00	-1.936520e-02
7.938926e-01	4.210526e+00	-2.620400e-02
7.266841e-01	4.210526e+00	-3.334034e-02
6.545085e-01	4.210526e+00	-4.039187e-02
5.781101e-01	4.210526e+00	-4.690336e-02
5.000000e-01	4.210526e+00	-5.260939e-02
4.218900e-01	4.210526e+00	-5.681647e-02
3.454915e-01	4.210526e+00	-5.943854e-02
2.733158e-01	4.210526e+00	-5.966845e-02
2.061074e-01	4.210526e+00	-5.775357e-02
1.469311e-01	4.210526e+00	-5.306303e-02
9.549150e-02	4.210526e+00	-4.622775e-02
5.510729e-02	4.210526e+00	-3.699669e-02
2.447174e-02	4.210526e+00	-2.616162e-02
6.832625e-03	4.210526e+00	-1.373263e-02
0.000000e+00	4.210526e+00	-2.991406e-04
6.832625e-03	4.210526e+00	1.313434e-02
2.447174e-02	4.210526e+00	2.556334e-02
5.510728e-02	4.210526e+00	3.639841e-02
9.549150e-02	4.210526e+00	4.562947e-02
1.469311e-01	4.210526e+00	5.246474e-02
2.061074e-01	4.210526e+00	5.715530e-02
2.733158e-01	4.210526e+00	5.907017e-02
3.454915e-01	4.210526e+00	5.884026e-02
4.218900e-01	4.210526e+00	5.621819e-02
5.000000e-01	4.210526e+00	5.201111e-02
5.781101e-01	4.210526e+00	4.630507e-02
6.545085e-01	4.210526e+00	3.979359e-02
7.266841e-01	4.210526e+00	3.274206e-02
7.938926e-01	4.210526e+00	2.560572e-02
8.530689e-01	4.210526e+00	1.876692e-02
9.045085e-01	4.210526e+00	1.247550e-02
9.448927e-01	4.210526e+00	7.237269e-03
9.755282e-01	4.210526e+00	3.114169e-03
9.931674e-01	4.210526e+00	6.626844e-04
1.000000e+00	4.210526e+00	-2.991406e-04
1.000000e+00	5.263158e+00	-2.991406e-04
9.931674e-01	5.263158e+00	-1.260966e-03
9.755282e-01	5.263158e+00	-3.712451e-03
9.448927e-01	5.263158e+00	-7.835551e-03
9.045085e-01	5.263158e+00	-1.307378e-02
8.530689e-01	5.263158e+00	-1.936520e-02
7.938926e-01	5.263158e+00	-2.620400e-02
7.266842e-01	5.263158e+00	-3.334034e-02
6.545085e-01	5.263158e+00	-4.039187e-02
5.781101e-01	5.263158e+00	-4.690336e-02
5.000000e-01	5.263158e+00	-5.260939e-02
4.218900e-01	5.263158e+00	-5.681647e-02
3.454915e-01	5.263158e+00	-5.943854e-02
2.733158e-01	5.263158e+00	-5.966845e-02
2.061074e-01	5.263158e+00	-5.775357e-02
1.469311e-01	5.263158e+00	-5.306303e-02
9.549150e-02	5.263158e+00	-4.622775e-02
5.510729e-02	5.263158e+00	-3.699669e-02
2.447174e-02	5.263158e+00	-2.616162e-02
6.832625e-03	5.263158e+00	-1.373263e-02
0.000000e+00	5.263158e+00	-2.991406e-04
6.832625e-03	5.263158e+00	1.313434e-02
2.447174e-02	5.263158e+00	2.556334e-02
5.510728e-02	5.263158e+00	3.639841e-02
9.549150e-02	5.263158e+00	4.562947e-02
1.469311e-01	5.263158e+00	5.246474e-02
2.061074e-01	5.263158e+00	5.715530e-02
2.733158e-01	5.263158e+00	5.907017e-02
3.454915e-01	5.263158e+00	5.884026e-02
4.218900e-01	5.263158e+00	5.621819e-02
5.000000e-01	5.263158e+00	5.201111e-02
5.781101e-01	5.263158e+00	4.630507e-02
6.545085e-01	5.263158e+00	3.979359e-02
7.266842e-01	5.263158e+00	3.274206e-02
7.938926e-01	5.263158e+00	2.560572e-02
8.530689e-01	5.263158e+00	1.876692e-02
9.045085e-01	5.263158e+00	1.247550e-02
9.448927e-01	5.263158e+00	7.237269e-03
9.755282e-01	5.263158e+00	3.114169e-03
9.931674e-01	5.263158e+00	6.626844e-04
1.000000e+00	5.263158e+00	-2.991406e-04
1.000000e+00	6.315789e+00	-2.991406e-04
9.931673e-01	6.315789e+00	-1.260966e-03
9.755282e-01	6.315789e+00	-3.712451e-03
9.448927e-01	6.315789e+00	-7.835551e-03
[...]
CELL_DATA 760
VECTORS V double
3.413562e-01	9.786298e-04	4.805235e-02
3.517367e-01	9.428697e-04	4.888429e-02
3.601653e-01	8.656201e-04	4.847309e-02
3.667268e-01	7.629725e-04	4.756809e-02
3.712522e-01	6.421449e-04	4.540667e-02
3.764212e-01	5.035196e-04	4.350173e-02
3.801016e-01	3.447783e-04	4.036002e-02
3.846641e-01	1.642788e-04	3.758152e-02
3.886097e-01	-3.643010e-05	3.312144e-02
3.934831e-01	-2.513673e-04	2.874442e-02
3.979180e-01	-4.699069e-04	2.143225e-02
4.026173e-01	-6.778407e-04	1.381821e-02
4.062244e-01	-8.607821e-04	1.293997e-03
4.084449e-01	-1.005601e-03	-1.163727e-02
4.100010e-01	-1.105427e-03	-3.249831e-02
4.026875e-01	-1.158100e-03	-5.350891e-02
3.830247e-01	-1.168044e-03	-8.755213e-02
3.475349e-01	-1.142301e-03	-1.229149e-01
2.457440e-01	-1.087069e-03	-1.731578e-01
4.250894e-02	-1.010449e-03	-8.357596e-02
1.441937e-01	-8.992666e-04	2.834964e-01
3.571099e-01	-7.843911e-04	2.516292e-01
4.304899e-01	-6.484284e-04	1.522541e-01
4.429009e-01	-4.935139e-04	1.012387e-01
4.459892e-01	-3.104761e-04	5.926282e-02
4.412780e-01	-1.009056e-04	3.497752e-02
4.299672e-01	1.342854e-04	1.225041e-02
4.200121e-01	3.839580e-04	-1.337916e-03
4.095560e-01	6.345968e-04	-1.405636e-02
3.989334e-01	8.676719e-04	-2.148694e-02
3.888013e-01	1.067083e-03	-2.840241e-02
3.784718e-01	1.220542e-03	-3.225738e-02
3.688084e-01	1.322672e-03	-3.603243e-02
3.582317e-01	1.375197e-03	-3.803783e-02
3.478563e-01	1.385423e-03	-4.020059e-02
3.353225e-01	1.364609e-03	-4.101222e-02
3.226535e-01	1.325235e-03	-4.185135e-02
3.079648e-01	1.280149e-03	-4.144766e-02
2.928959e-01	1.241590e-03	-4.070660e-02
2.793300e-01	1.223728e-03	-3.932099e-02
3.443733e-01	5.613698e-04	4.847707e-02
3.549840e-01	5.395797e-04	4.933560e-02
3.632558e-01	4.937515e-04	4.888903e-02
3.695522e-01	4.328760e-04	4.793457e-02
3.739049e-01	3.611822e-04	4.573112e-02
3.790285e-01	2.792402e-04	4.380305e-02
3.827610e-01	1.861929e-04	4.064240e-02
3.874270e-01	8.157154e-05	3.785146e-02
3.914769e-01	-3.339789e-05	3.336581e-02
3.964049e-01	-1.551982e-04	2.895786e-02
4.007995e-01	-2.779559e-04	2.158745e-02
4.053318e-01	-3.940133e-04	1.391138e-02
4.086271e-01	-4.957313e-04	1.301650e-03
4.103938e-01	-5.761468e-04	-1.169280e-02
4.113687e-01	-6.316255e-04	-3.260672e-02
4.033603e-01	-6.609381e-04	-5.359832e-02
3.828833e-01	-6.663360e-04	-8.751980e-02
3.463725e-01	-6.514466e-04	-1.225038e-01
2.433448e-01	-6.194100e-04	-1.714673e-01
3.961248e-02	-5.746075e-04	-7.788129e-02
1.478070e-01	-5.091120e-04	2.906003e-01
3.619121e-01	-4.412052e-04	2.550130e-01
4.349709e-01	-3.609728e-04	1.538390e-01
4.470434e-01	-2.701537e-04	1.021856e-01
4.499922e-01	-1.639072e-04	5.979474e-02
4.452032e-01	-4.360271e-05	3.528865e-02
4.338012e-01	9.002865e-05	1.235965e-02
4.236663e-01	2.307396e-04	-1.349557e-03
4.129085e-01	3.712543e-04	-1.417142e-02
4.018536e-01	5.016662e-04	-2.164422e-02
3.911812e-01	6.134512e-04	-2.857627e-02
3.802405e-01	7.000756e-04	-3.240812e-02
3.699387e-01	7.586311e-04	-3.614286e-02
3.587382e-01	7.899416e-04	-3.809160e-02
3.477818e-01	7.977886e-04	-4.019197e-02
3.347284e-01	7.881409e-04	-4.093956e-02
3.216057e-01	7.677399e-04	-4.171544e-02
3.065447e-01	7.437052e-04	-4.125653e-02
2.912748e-01	7.229201e-04	-4.048131e-02
2.778229e-01	7.132059e-04	-3.910884e-02
3.450331e-01	9.392247e-05	4.856995e-02
3.556095e-01	8.886915e-05	4.942252e-02
3.638313e-01	7.950408e-05	4.896649e-02
3.700791e-01	6.704597e-05	4.800291e-02
3.743933e-01	5.233145e-05	4.579085e-02
3.794890e-01	3.589517e-05	4.385626e-02
3.831999e-01	1.815748e-05	4.068901e-02
3.878466e-01	-4.169753e-07	3.789245e-02
3.918759e-01	-1.925006e-05	3.339982e-02
3.967798e-01	-3.768691e-05	2.898525e-02
4.011452e-01	-5.503661e-05	2.160607e-02
4.056421e-01	-7.061468e-05	1.392203e-02
4.088947e-01	-8.386547e-05	1.302503e-03
4.106100e-01	-9.428324e-05	-1.169896e-02
4.115218e-01	-1.016065e-04	-3.261886e-02
4.034339e-01	-1.056271e-04	-5.360809e-02
3.828515e-01	-1.063722e-04	-8.751254e-02
3.461880e-01	-1.039502e-04	-1.224385e-01
2.429500e-01	-9.839675e-05	-1.711891e-01
3.910891e-02	-9.011563e-05	-7.689123e-02
1.484595e-01	-7.738066e-05	2.918833e-01
3.627810e-01	-6.386463e-05	2.556253e-01
4.357573e-01	-4.802705e-05	1.541171e-01
4.477292e-01	-3.076074e-05	1.023424e-01
4.506068e-01	-1.175960e-05	5.987641e-02
4.457587e-01	8.221769e-06	3.533268e-02
4.343050e-01	2.882981e-05	1.237400e-02
4.241199e-01	4.920872e-05	-1.351001e-03
4.133114e-01	6.871950e-05	-1.418524e-02
4.022041e-01	8.656818e-05	-2.166310e-02
3.914776e-01	1.021729e-04	-2.859792e-02
3.804808e-01	1.150503e-04	-3.242861e-02
3.701213e-01	1.249228e-04	-3.616069e-02
3.588615e-01	1.317276e-04	-3.810470e-02
3.478451e-01	1.356014e-04	-4.019928e-02
3.347321e-01	1.369419e-04	-4.094001e-02
3.215530e-01	1.363532e-04	-4.170860e-02
3.064445e-01	1.346905e-04	-4.124305e-02
2.911453e-01	1.329189e-04	-4.046330e-02
2.776908e-01	1.319881e-04	-3.909024e-02
3.452260e-01	3.136288e-05	4.859711e-02
3.557961e-01	2.975005e-05	4.944847e-02
3.640057e-01	2.669689e-05	4.898995e-02
3.702394e-01	2.258317e-05	4.802372e-02
3.745412e-01	1.771543e-05	4.580894e-02
3.796266e-01	1.231634e-05	4.387217e-02
3.833292e-01	6.558986e-06	4.070273e-02
3.879685e-01	6.056602e-07	3.790436e-02
3.919907e-01	-5.364878e-06	3.340960e-02
3.968872e-01	-1.117857e-05	2.899310e-02
4.012445e-01	-1.665610e-05	2.161142e-02
4.057323e-01	-2.161605e-05	1.392512e-02
4.089741e-01	-2.590653e-05	1.302756e-03
4.106763e-01	-2.937527e-05	-1.170085e-02
4.115719e-01	-3.193270e-05	-3.262283e-02
4.034628e-01	-3.348933e-05	-5.361194e-02
3.828515e-01	-3.402544e-05	-8.751254e-02
3.461447e-01	-3.353568e-05	-1.224232e-01
2.428450e-01	-3.201011e-05	-1.711152e-01
3.896750e-02	-2.954689e-05	-7.661321e-02
1.486481e-01	-2.560618e-05	2.922540e-01
3.630348e-01	-2.133993e-05	2.558041e-01
4.359873e-01	-1.630304e-05	1.541984e-01
4.479288e-01	-1.081089e-05	1.023880e-01
4.507842e-01	-4.794916e-06	5.989998e-02
4.459177e-01	1.489183e-06	3.534529e-02
4.344482e-01	7.931759e-06	1.237809e-02
4.242486e-01	1.428529e-05	-1.351411e-03
4.134263e-01	2.038375e-05	-1.418919e-02
4.023054e-01	2.601739e-05	-2.166856e-02
3.915653e-01	3.103695e-05	-2.860433e-02
3.805549e-01	3.531079e-05	-3.243492e-02
3.701815e-01	3.875338e-05	-3.616657e-02
3.589073e-01	4.132854e-05	-3.810956e-02
3.478758e-01	4.304087e-05	-4.020283e-02
3.347473e-01	4.396966e-05	-4.094187e-02
3.215528e-01	4.425103e-05	-4.170858e-02
3.064305e-01	4.410008e-05	-4.124116e-02
2.911221e-01	4.378862e-05	-4.046008e-02
2.776658e-01	4.360881e-05	-3.908673e-02
3.453053e-01	1.452061e-05	4.860826e-02
3.558731e-01	1.381797e-05	4.945916e-02
3.640779e-01	1.248222e-05	4.899968e-02
3.703062e-01	1.066879e-05	4.803238e-02
3.746029e-01	8.510344e-06	4.581649e-02
3.796842e-01	6.108642e-06	4.387882e-02
3.833831e-01	3.548427e-06	4.070846e-02
3.880192e-01	9.043934e-07	3.790931e-02
3.920384e-01	-1.746372e-06	3.341366e-02
3.969320e-01	-4.333861e-06	2.899637e-02
4.012862e-01	-6.783580e-06	2.161366e-02
4.057707e-01	-9.021486e-06	1.392644e-02
4.090085e-01	-1.098553e-05	1.302865e-03
4.107058e-01	-1.260857e-05	-1.170169e-02
4.115953e-01	-1.384827e-05	-3.262468e-02
4.034781e-01	-1.465855e-05	-5.361397e-02
3.828555e-01	-1.502461e-05	-8.751346e-02
3.461316e-01	-1.493403e-05	-1.224186e-01
2.428071e-01	-1.438004e-05	-1.710884e-01
3.891304e-02	-1.339616e-05	-7.650615e-02
1.487230e-01	-1.175572e-05	2.924012e-01
3.631371e-01	-9.941222e-06	2.558762e-01
4.360806e-01	-7.774291e-06	1.542314e-01
4.480101e-01	-5.395807e-06	1.024066e-01
4.508566e-01	-2.780669e-06	5.990960e-02
4.459827e-01	-4.222320e-08	3.535044e-02
4.345070e-01	2.772789e-06	1.237976e-02
4.243016e-01	5.560474e-06	-1.351580e-03
4.134740e-01	8.253601e-06	-1.419083e-02
4.023480e-01	1.076597e-05	-2.167085e-02
3.916029e-01	1.303615e-05	-2.860707e-02
3.805874e-01	1.500675e-05	-3.243769e-02
3.702088e-01	1.663669e-05	-3.616924e-02
3.589292e-01	1.790746e-05	-3.811189e-02
3.478921e-01	1.881505e-05	-4.020472e-02
3.347579e-01	1.938750e-05	-4.094317e-02
3.215576e-01	1.966913e-05	-4.170920e-02
3.064301e-01	1.973840e-05	-4.124110e-02
2.911178e-01	1.969504e-05	-4.045949e-02
2.776604e-01	1.965795e-05	-3.908597e-02
3.453446e-01	8.066078e-06	4.861380e-02
3.559114e-01	7.702632e-06	4.946448e-02
3.641141e-01	7.008700e-06	4.900455e-02
3.703399e-01	6.059215e-06	4.803675e-02
3.746343e-01	4.919948e-06	4.582033e-02
3.797134e-01	3.644337e-06	4.388220e-02
3.834106e-01	2.280017e-06	4.071138e-02
3.880451e-01	8.666296e-07	3.791184e-02
3.920629e-01	-5.562569e-07	3.341575e-02
3.969551e-01	-1.950932e-06	2.899806e-02
4.013078e-01	-3.278606e-06	2.161483e-02
4.057907e-01	-4.501550e-06	1.392713e-02
4.090267e-01	-5.587088e-06	1.302923e-03
4.107218e-01	-6.499236e-06	-1.170214e-02
4.116084e-01	-7.215308e-06	-3.262572e-02
4.034874e-01	-7.708415e-06	-5.361521e-02
3.828595e-01	-7.968564e-06	-8.751436e-02
3.461273e-01	-7.984959e-06	-1.224171e-01
2.427905e-01	-7.753574e-06	-1.710767e-01
3.888752e-02	-7.287479e-06	-7.645597e-02
1.487592e-01	-6.472744e-06	2.924724e-01
3.631874e-01	-5.549711e-06	2.559116e-01
4.361269e-01	-4.432302e-06	1.542478e-01
4.480508e-01	-3.194529e-06	1.024158e-01
4.508930e-01	-1.824683e-06	5.991443e-02
4.460155e-01	-3.828689e-07	3.535304e-02
4.345367e-01	1.106197e-06	1.238061e-02
4.243286e-01	2.588168e-06	-1.351666e-03
4.134985e-01	4.028958e-06	-1.419166e-02
4.023700e-01	5.382983e-06	-2.167204e-02
3.916225e-01	6.618536e-06	-2.860851e-02
3.806047e-01	7.705923e-06	-3.243916e-02
3.702236e-01	8.623693e-06	-3.617069e-02
3.589416e-01	9.362532e-06	-3.811320e-02
3.479020e-01	9.918825e-06	-4.020586e-02
3.347652e-01	1.030083e-05	-4.094406e-02
3.215622e-01	1.052424e-05	-4.170980e-02
3.064321e-01	1.062105e-05	-4.124137e-02
2.911178e-01	1.063818e-05	-4.045949e-02
2.776596e-01	1.063664e-05	-3.908585e-02
3.453666e-01	5.040116e-06	4.861689e-02
3.559329e-01	4.832197e-06	4.946747e-02
3.641345e-01	4.433452e-06	4.900730e-02
3.703591e-01	3.883984e-06	4.803924e-02
3.746523e-01	3.219658e-06	4.582253e-02
3.797304e-01	2.469811e-06	4.388416e-02
3.834266e-01	1.662585e-06	4.071307e-02
3.880602e-01	8.225624e-07	3.791332e-02
3.920772e-01	-2.653496e-08	3.341697e-02
3.969687e-01	-8.628289e-07	2.899905e-02
4.013207e-01	-1.664867e-06	2.161552e-02
4.058027e-01	-2.410351e-06	1.392754e-02
4.090377e-01	-3.079626e-06	1.302958e-03
4.107317e-01	-3.651095e-06	-1.170243e-02
4.116168e-01	-4.110862e-06	-3.262639e-02
4.034938e-01	-4.441648e-06	-5.361605e-02
3.828629e-01	-4.636715e-06	-8.751515e-02
3.461263e-01	-4.687425e-06	-1.224167e-01
2.427826e-01	-4.591215e-06	-1.710712e-01
3.887417e-02	-4.352606e-06	-7.642971e-02
1.487790e-01	-3.908275e-06	2.925113e-01
3.632154e-01	-3.389478e-06	2.559314e-01
4.361530e-01	-2.750774e-06	1.542570e-01
4.480738e-01	-2.035309e-06	1.024211e-01
4.509137e-01	-1.237227e-06	5.991719e-02
4.460343e-01	-3.919641e-07	3.535453e-02
4.345539e-01	4.855283e-07	1.238109e-02
4.243443e-01	1.362946e-06	-1.351716e-03
4.135128e-01	2.220845e-06	-1.419216e-02
4.023830e-01	3.033010e-06	-2.167274e-02
3.916342e-01	3.781190e-06	-2.860936e-02
3.806151e-01	4.448442e-06	-3.244005e-02
3.702328e-01	5.023963e-06	-3.617159e-02
3.589496e-01	5.500930e-06	-3.811405e-02
3.479087e-01	5.873581e-06	-4.020663e-02
3.347705e-01	6.143793e-06	-4.094471e-02
3.215660e-01	6.315914e-06	-4.171030e-02
3.064344e-01	6.405245e-06	-4.124168e-02
2.911190e-01	6.437647e-06	-4.045965e-02
2.776602e-01	6.447161e-06	-3.908593e-02
3.453797e-01	3.166473e-06	4.861874e-02
3.559457e-01	3.075625e-06	4.946925e-02
3.641468e-01	2.903797e-06	4.900894e-02
3.703707e-01	2.675668e-06	4.804074e-02
3.746632e-01	2.413664e-06	4.582386e-02
3.797407e-01	2.132228e-06	4.388535e-02
3.834364e-01	1.834007e-06	4.071411e-02
3.880696e-01	1.510011e-06	3.791423e-02
3.920861e-01	1.144455e-06	3.341773e-02
3.969772e-01	7.263379e-07	2.899967e-02
4.013288e-01	2.616716e-07	2.161595e-02
4.058103e-01	-2.220750e-07	1.392780e-02
4.090448e-01	-6.851381e-07	1.302981e-03
4.107382e-01	-1.086615e-06	-1.170261e-02
4.116225e-01	-1.402986e-06	-3.262684e-02
4.034984e-01	-1.623327e-06	-5.361666e-02
3.828659e-01	-1.752030e-06	-8.751582e-02
3.461266e-01	-1.791994e-06	-1.224168e-01
2.427790e-01	-1.746601e-06	-1.710686e-01
3.886691e-02	-1.619095e-06	-7.641543e-02
1.487903e-01	-1.374394e-06	2.925336e-01
3.632319e-01	-1.084922e-06	2.559430e-01
4.361686e-01	-7.261368e-07	1.542626e-01
4.480877e-01	-3.212950e-07	1.024243e-01
4.509263e-01	1.373316e-07	5.991887e-02
4.460458e-01	6.378388e-07	3.535544e-02
4.345644e-01	1.180128e-06	1.238139e-02
4.243539e-01	1.745403e-06	-1.351747e-03
4.135216e-01	2.307496e-06	-1.419246e-02
4.023911e-01	2.823546e-06	-2.167317e-02
3.916416e-01	3.254723e-06	-2.860990e-02
3.806218e-01	3.577735e-06	-3.244062e-02
3.702389e-01	3.793099e-06	-3.617218e-02
3.589550e-01	3.919181e-06	-3.811462e-02
3.479133e-01	3.982936e-06	-4.020717e-02
3.347743e-01	4.008116e-06	-4.094518e-02
3.215690e-01	4.009119e-06	-4.171068e-02
3.064365e-01	3.997023e-06	-4.124197e-02
2.911204e-01	3.981395e-06	-4.045984e-02
2.776612e-01	3.974003e-06	-3.908608e-02
3.453819e-01	-3.336893e-04	4.861905e-02
3.559477e-01	-3.343169e-04	4.946953e-02
3.641483e-01	-3.362569e-04	4.900915e-02
3.703715e-01	-3.329217e-04	4.804085e-02
3.746633e-01	-3.225509e-04	4.582388e-02
3.797405e-01	-3.346127e-04	4.388533e-02
3.834363e-01	-2.816923e-04	4.071410e-02
3.880702e-01	-3.048521e-04	3.791430e-02
3.920880e-01	-2.185537e-04	3.341789e-02
3.969806e-01	-2.511948e-04	2.899992e-02
4.013335e-01	-1.326415e-04	2.161621e-02
4.058158e-01	-1.725305e-04	1.392799e-02
4.090504e-01	-2.921652e-05	1.302999e-03
4.107431e-01	-7.556126e-05	-1.170275e-02
4.116264e-01	8.640186e-05	-3.262714e-02
4.035010e-01	1.887803e-04	-5.361702e-02
3.828673e-01	2.363494e-04	-8.751614e-02
3.461265e-01	2.186836e-04	-1.224168e-01
2.427767e-01	2.101060e-04	-1.710670e-01
3.886296e-02	2.067530e-04	-7.640767e-02
1.487962e-01	2.068642e-04	2.925453e-01
3.632404e-01	2.104066e-04	2.559489e-01
4.361765e-01	2.191675e-04	1.542654e-01
4.480949e-01	2.369982e-04	1.024259e-01
4.509332e-01	1.895767e-04	5.991978e-02
4.460527e-01	8.732365e-05	3.535599e-02
4.345714e-01	-7.453962e-05	1.238159e-02
4.243608e-01	-2.812259e-05	-1.351769e-03
4.135277e-01	-1.713936e-04	-1.419267e-02
4.023958e-01	-1.314920e-04	-2.167343e-02
3.916444e-01	-2.500606e-04	-2.861010e-02
3.806226e-01	-2.174616e-04	-3.244069e-02
3.702378e-01	-3.038249e-04	-3.617208e-02
3.589526e-01	-2.807508e-04	-3.811437e-02
3.479103e-01	-3.337695e-04	-4.020682e-02
3.347710e-01	-3.218143e-04	-4.094478e-02
3.215658e-01	-3.322900e-04	-4.171026e-02
3.064335e-01	-3.357188e-04	-4.124156e-02
2.911176e-01	-3.338488e-04	-4.045946e-02
2.776589e-01	-3.332585e-04	-3.908576e-02
3.454856e-01	5.330543e-09	4.863365e-02
3.560995e-01	1.422339e-09	4.949062e-02
3.640665e-01	-9.114620e-10	4.899814e-02
3.700052e-01	-2.245849e-09	4.799334e-02
3.747397e-01	-3.466692e-09	4.583322e-02
3.789524e-01	-5.394047e-09	4.379426e-02
3.830288e-01	-8.141877e-09	4.067084e-02
3.871061e-01	-1.163168e-08	3.782010e-02
3.913776e-01	-1.508230e-08	3.335734e-02
3.958090e-01	-1.781114e-08	2.891433e-02
4.002530e-01	-1.873506e-08	2.155802e-02
4.044265e-01	-1.932386e-08	1.388031e-02
4.075399e-01	-1.899486e-08	1.298187e-03
4.090714e-01	-1.795533e-08	-1.165512e-02
4.069063e-01	-1.644143e-08	-3.225301e-02
4.003607e-01	-1.467209e-08	-5.319973e-02
3.819557e-01	-1.279020e-08	-8.730777e-02
3.469713e-01	-1.095148e-08	-1.227156e-01
2.432683e-01	-9.185041e-09	-1.714134e-01
3.898963e-02	-7.644059e-09	-7.665671e-02
1.489260e-01	-6.211439e-09	2.928004e-01
3.637352e-01	-5.352021e-09	2.562976e-01
4.370238e-01	-4.910040e-09	1.545650e-01
4.471851e-01	-4.946355e-09	1.022180e-01
4.477942e-01	-5.478190e-09	5.950267e-02
4.413335e-01	-6.491290e-09	3.498193e-02
4.329003e-01	-7.949890e-09	1.233398e-02
4.228506e-01	-9.762390e-09	-1.346958e-03
4.121386e-01	-1.167796e-08	-1.414499e-02
4.013154e-01	-1.314042e-08	-2.161523e-02
3.904727e-01	-1.369431e-08	-2.852451e-02
3.799118e-01	-1.283461e-08	-3.238011e-02
3.692733e-01	-1.080584e-08	-3.607784e-02
3.585446e-01	-7.471311e-09	-3.807104e-02
3.471215e-01	-3.832138e-09	-4.011566e-02
3.348465e-01	-7.090919e-10	-4.095401e-02
3.211986e-01	1.435753e-09	-4.166263e-02
3.063506e-01	2.344661e-09	-4.123041e-02
2.912681e-01	1.496439e-09	-4.048037e-02
2.777608e-01	-1.394399e-09	-3.910010e-02
3.453826e-01	3.337147e-04	4.861914e-02
3.559480e-01	3.343451e-04	4.946957e-02
3.641484e-01	3.362867e-04	4.900916e-02
3.703716e-01	3.329509e-04	4.804085e-02
3.746634e-01	3.225773e-04	4.582389e-02
3.797406e-01	3.346336e-04	4.388534e-02
3.834364e-01	2.817052e-04	4.071412e-02
3.880703e-01	3.048557e-04	3.791430e-02
3.920881e-01	2.185484e-04	3.341790e-02
3.969807e-01	2.511821e-04	2.899992e-02
4.013335e-01	1.326234e-04	2.161621e-02
4.058159e-01	1.725090e-04	1.392799e-02
4.090504e-01	2.919361e-05	1.302999e-03
4.107431e-01	7.553825e-05	-1.170275e-02
4.116263e-01	-8.642409e-05	-3.262714e-02
4.035010e-01	-1.888013e-04	-5.361701e-02
3.828672e-01	-2.363688e-04	-8.751612e-02
3.461264e-01	-2.187016e-04	-1.224168e-01
2.427766e-01	-2.101229e-04	-1.710669e-01
3.886286e-02	-2.067692e-04	-7.640749e-02
1.487963e-01	-2.068803e-04	2.925454e-01
3.632404e-01	-2.104236e-04	2.559490e-01
4.361765e-01	-2.191861e-04	1.542654e-01
4.480949e-01	-2.370195e-04	1.024259e-01
4.509332e-01	-1.896016e-04	5.991978e-02
4.460526e-01	-8.735333e-05	3.535598e-02
4.345713e-01	7.450408e-05	1.238159e-02
4.243607e-01	2.808037e-05	-1.351768e-03
4.135277e-01	1.713443e-04	-1.419267e-02
4.023958e-01	1.314358e-04	-2.167342e-02
3.916444e-01	2.499990e-04	-2.861010e-02
3.806226e-01	2.173974e-04	-3.244069e-02
3.702379e-01	3.037608e-04	-3.617208e-02
3.589527e-01	2.806894e-04	-3.811438e-02
3.479104e-01	3.337128e-04	-4.020683e-02
3.347711e-01	3.217626e-04	-4.094479e-02
3.215659e-01	3.322433e-04	-4.171028e-02
3.064335e-01	3.356775e-04	-4.124156e-02
2.911175e-01	3.338132e-04	-4.045944e-02
2.776584e-01	3.332276e-04	-3.908569e-02
3.453792e-01	-3.131936e-06	4.861867e-02
3.559455e-01	-3.034173e-06	4.946922e-02
3.641467e-01	-2.859095e-06	4.900894e-02
3.703708e-01	-2.632417e-06	4.804075e-02
3.746633e-01	-2.376454e-06	4.582388e-02
3.797409e-01	-2.104887e-06	4.388538e-02
3.834366e-01	-1.819180e-06	4.071414e-02
3.880698e-01	-1.508192e-06	3.791426e-02
3.920863e-01	-1.154711e-06	3.341775e-02
3.969774e-01	-7.469444e-07	2.899968e-02
4.013289e-01	-2.912717e-07	2.161596e-02
4.058104e-01	1.864075e-07	1.392780e-02
4.090449e-01	6.453842e-07	1.302981e-03
4.107382e-01	1.044525e-06	-1.170261e-02
4.116225e-01	1.360133e-06	-3.262683e-02
4.034983e-01	1.580962e-06	-5.361665e-02
3.828658e-01	1.710895e-06	-8.751580e-02
3.461266e-01	1.752307e-06	-1.224168e-01
2.427789e-01	1.708239e-06	-1.710685e-01
3.886688e-02	1.581599e-06	-7.641538e-02
1.487903e-01	1.337094e-06	2.925336e-01
3.632318e-01	1.046960e-06	2.559429e-01
4.361685e-01	6.866278e-07	1.542625e-01
4.480876e-01	2.793618e-07	1.024243e-01
4.509262e-01	-1.826700e-07	5.991884e-02
4.460456e-01	-6.873601e-07	3.535542e-02
4.345642e-01	-1.234584e-06	1.238139e-02
4.243537e-01	-1.805460e-06	-1.351746e-03
4.135214e-01	-2.373547e-06	-1.419245e-02
4.023909e-01	-2.895605e-06	-2.167316e-02
3.916415e-01	-3.332205e-06	-2.860989e-02
3.806218e-01	-3.659138e-06	-3.244062e-02
3.702389e-01	-3.875506e-06	-3.617218e-02
3.589551e-01	-4.000463e-06	-3.811463e-02
3.479135e-01	-4.060876e-06	-4.020719e-02
3.347745e-01	-4.081059e-06	-4.094521e-02
3.215693e-01	-4.076592e-06	-4.171072e-02
3.064369e-01	-4.058072e-06	-4.124202e-02
2.911209e-01	-4.034199e-06	-4.045992e-02
2.776620e-01	-4.018037e-06	-3.908619e-02
3.453661e-01	-5.003618e-06	4.861682e-02
3.559327e-01	-4.794178e-06	4.946744e-02
3.641346e-01	-4.397213e-06	4.900731e-02
3.703594e-01	-3.854321e-06	4.803927e-02
3.746526e-01	-3.201123e-06	4.582257e-02
3.797308e-01	-2.465510e-06	4.388421e-02
3.834271e-01	-1.672654e-06	4.071312e-02
3.880607e-01	-8.447424e-07	3.791336e-02
3.920776e-01	-4.744028e-09	3.341701e-02
3.969690e-01	8.255030e-07	2.899907e-02
4.013209e-01	1.624034e-06	2.161553e-02
4.058029e-01	2.368264e-06	1.392754e-02
4.090378e-01	3.038600e-06	1.302959e-03
4.107317e-01	3.612980e-06	-1.170243e-02
4.116168e-01	4.076745e-06	-3.262638e-02
4.034937e-01	4.412005e-06	-5.361604e-02
3.828628e-01	4.611520e-06	-8.751512e-02
3.461261e-01	4.666141e-06	-1.224166e-01
2.427824e-01	4.573187e-06	-1.710710e-01