# vtk DataFile Version 2.0
OUTPUT by 3D-VPM
ASCII
DATASET UNSTRUCTURED_GRID
POINTS 820 double
9.510565e-01	0.000000e+00	-3.090170e-01
9.442611e-01	0.000000e+00	-3.078203e-01
9.267277e-01	0.000000e+00	-3.047010e-01
8.963175e-01	0.000000e+00	-2.991555e-01
8.562911e-01	0.000000e+00	-2.916579e-01
8.054250e-01	0.000000e+00	-2.817457e-01
7.470317e-01	0.000000e+00	-2.699633e-01
6.809074e-01	0.000000e+00	-2.559818e-01
6.100852e-01	0.000000e+00	-2.403847e-01
5.354138e-01	0.000000e+00	-2.229691e-01
4.593635e-01	0.000000e+00	-2.042585e-01
3.837764e-01	0.000000e+00	-1.841224e-01
3.103069e-01	0.000000e+00	-1.630077e-01
2.415927e-01	0.000000e+00	-1.409228e-01
1.782654e-01	0.000000e+00	-1.183331e-01
1.234349e-01	0.000000e+00	-9.558566e-02
7.662509e-02	0.000000e+00	-7.318920e-02
4.106998e-02	0.000000e+00	-5.193053e-02
1.528206e-02	0.000000e+00	-3.215886e-02
2.347037e-03	0.000000e+00	-1.488740e-02
0.000000e+00	0.000000e+00	0.000000e+00
1.064939e-02	0.000000e+00	1.066461e-02
3.126595e-02	0.000000e+00	1.703450e-02
6.375031e-02	0.000000e+00	1.787236e-02
1.050105e-01	0.000000e+00	1.417221e-02
1.560448e-01	0.000000e+00	4.777214e-03
2.137742e-01	0.000000e+00	-9.048270e-03
2.782849e-01	0.000000e+00	-2.799567e-02
3.468570e-01	0.000000e+00	-5.051783e-02
4.187060e-01	0.000000e+00	-7.662000e-02
4.916930e-01	0.000000e+00	-1.047585e-01
5.642168e-01	0.000000e+00	-1.343226e-01
6.348639e-01	0.000000e+00	-1.641238e-01
7.013280e-01	0.000000e+00	-1.931337e-01
7.630418e-01	0.000000e+00	-2.206893e-01
8.172084e-01	0.000000e+00	-2.454799e-01
8.641863e-01	0.000000e+00	-2.673591e-01
9.009752e-01	0.000000e+00	-2.848204e-01
9.288372e-01	0.000000e+00	-2.982085e-01
9.448555e-01	0.000000e+00	-3.059908e-01
9.510565e-01	0.000000e+00	-3.090170e-01
9.510565e-01	1.052632e+00	-3.090170e-01
9.442611e-01	1.052632e+00	-3.078203e-01
9.267277e-01	1.052632e+00	-3.047010e-01
8.963175e-01	1.052632e+00	-2.991555e-01
8.562911e-01	1.052632e+00	-2.916579e-01
8.054250e-01	1.052632e+00	-2.817457e-01
7.470317e-01	1.052632e+00	-2.699633e-01
6.809074e-01	1.052632e+00	-2.559818e-01
6.100852e-01	1.052632e+00	-2.403847e-01
5.354138e-01	1.052632e+00	-2.229691e-01
4.593635e-01	1.052632e+00	-2.042585e-01
3.837764e-01	1.052632e+00	-1.841224e-01
3.103069e-01	1.052632e+00	-1.630077e-01
2.415927e-01	1.052632e+00	-1.409228e-01
1.782654e-01	1.052632e+00	-1.183331e-01
1.234349e-01	1.052632e+00	-9.558566e-02
7.662509e-02	1.052632e+00	-7.318920e-02
4.106998e-02	1.052632e+00	-5.193053e-02
1.528206e-02	1.052632e+00	-3.215886e-02
2.347037e-03	1.052632e+00	-1.488740e-02
0.000000e+00	1.052632e+00	0.000000e+00
1.064939e-02	1.052632e+00	1.066461e-02
3.126595e-02	1.052632e+00	1.703450e-02
6.375031e-02	1.052632e+00	1.787236e-02
1.050105e-01	1.052632e+00	1.417221e-02
1.560448e-01	1.052632e+00	4.777214e-03
2.137742e-01	1.052632e+00	-9.048270e-03
2.782849e-01	1.052632e+00	-2.799567e-02
3.468570e-01	1.052632e+00	-5.051783e-02
4.187060e-01	1.052632e+00	-7.662000e-02
4.916930e-01	1.052632e+00	-1.047585e-01
5.642168e-01	1.052632e+00	-1.343226e-01
6.348639e-01	1.052632e+00	-1.641238e-01
7.013280e-01	1.052632e+00	-1.931337e-01
7.630418e-01	1.052632e+00	-2.206893e-01
8.172084e-01	1.052632e+00	-2.454799e-01
8.641863e-01	1.052632e+00	-2.673591e-01
9.009752e-01	1.052632e+00	-2.848204e-01
9.288372e-01	1.052632e+00	-2.982085e-01
9.448555e-01	1.052632e+00	-3.059908e-01
9.510565e-01	1.052632e+00	-3.090170e-01
9.510565e-01	2.105263e+00	-3.090170e-01
9.442611e-01	2.105263e+00	-3.078203e-01
9.267277e-01	2.105263e+00	-3.047010e-01
8.963175e-01	2.105263e+00	-2.991555e-01
8.562911e-01	2.105263e+00	-2.916579e-01
8.054250e-01	2.105263e+00	-2.817457e-01
7.470317e-01	2.105263e+00	-2.699633e-01
6.809074e-01	2.105263e+00	-2.559818e-01
6.100852e-01	2.105263e+00	-2.403847e-01
5.354138e-01	2.105263e+00	-2.229691e-01
4.593635e-01	2.105263e+00	-2.042585e-01
3.837764e-01	2.105263e+00	-1.841224e-01
3.103069e-01	2.105263e+00	-1.630077e-01
2.415927e-01	2.105263e+00	-1.409228e-01
1.782654e-01	2.105263e+00	-1.183331e-01
1.234349e-01	2.105263e+00	-9.558566e-02
7.662509e-02	2.105263e+00	-7.318920e-02
4.106998e-02	2.105263e+00	-5.193053e-02
1.528206e-02	2.105263e+00	-3.215886e-02
2.347037e-03	2.105263e+00	-1.488740e-02
0.000000e+00	2.105263e+00	0.000000e+00
1.064939e-02	2.105263e+00	1.066461e-02
3.126595e-02	2.105263e+00	1.703450e-02
6.375031e-02	2.105263e+00	1.787236e-02
1.050105e-01	2.105263e+00	1.417221e-02
1.560448e-01	2.105263e+00	4.777214e-03
2.137742e-01	2.105263e+00	-9.048270e-03
2.782849e-01	2.105263e+00	-2.799567e-02
3.468570e-01	2.105263e+00	-5.051783e-02
4.187060e-01	2.105263e+00	-7.662000e-02
4.916930e-01	2.105263e+00	-1.047585e-01
5.642168e-01	2.105263e+00	-1.343226e-01
6.348639e-01	2.105263e+00	-1.641238e-01
7.013280e-01	2.105263e+00	-1.931337e-01
7.630418e-01	2.105263e+00	-2.206893e-01
8.172084e-01	2.105263e+00	-2.454799e-01
8.641863e-01	2.105263e+00	-2.673591e-01
9.009752e-01	2.105263e+00	-2.848204e-01
9.288372e-01	2.105263e+00	-2.982085e-01
9.448555e-01	2.105263e+00	-3.059908e-01
9.510565e-01	2.105263e+00	-3.090170e-01
9.510565e-01	3.157895e+00	-3.090170e-01
9.442611e-01	3.157895e+00	-3.078203e-01
9.267277e-01	3.157895e+00	-3.047010e-01
8.963175e-01	3.157895e+00	-2.991555e-01
8.562911e-01	3.157895e+00	-2.916579e-01
8.054250e-01	3.157895e+00	-2.817457e-01
7.470317e-01	3.157895e+00	-2.699633e-01
6.809074e-01	3.157895e+00	-2.559818e-01
6.100852e-01	3.157895e+00	-2.403847e-01
5.354138e-01	3.157895e+00	-2.229691e-01
4.593635e-01	3.157895e+00	-2.042585e-01
3.837764e-01	3.157895e+00	-1.841224e-01
3.103069e-01	3.157895e+00	-1.630077e-01
2.415927e-01	3.157895e+00	-1.409228e-01
1.782654e-01	3.157895e+00	-1.183331e-01
1.234349e-01	3.157895e+00	-9.558566e-02
7.662509e-02	3.157895e+00	-7.318920e-02
4.106998e-02	3.157895e+00	-5.193053e-02
1.528206e-02	3.157895e+00	-3.215886e-02
2.347037e-03	3.157895e+00	-1.488740e-02
0.000000e+00	3.157895e+00	0.000000e+00
1.064939e-02	3.157895e+00	1.066461e-02
3.126595e-02	3.157895e+00	1.703450e-02
6.375031e-02	3.157895e+00	1.787236e-02
1.050105e-01	3.157895e+00	1.417221e-02
1.560448e-01	3.157895e+00	4.777214e-03
2.137742e-01	3.157895e+00	-9.048270e-03
2.782849e-01	3.157895e+00	-2.799567e-02
3.468570e-01	3.157895e+00	-5.051783e-02
4.187060e-01	3.157895e+00	-7.662000e-02
4.916930e-01	3.157895e+00	-1.047585e-01
5.642168e-01	3.157895e+00	-1.343226e-01
6.348639e-01	3.157895e+00	-1.641238e-01
7.013280e-01	3.157895e+00	-1.931337e-01
7.630418e-01	3.157895e+00	-2.206893e-01
8.172084e-01	3.157895e+00	-2.454799e-01
8.641863e-01	3.157895e+00	-2.673591e-01
9.009752e-01	3.157895e+00	-2.848204e-01
9.288372e-01	3.157895e+00	-2.982085e-01
9.448555e-01	3.157895e+00	-3.059908e-01
9.510565e-01	3.157895e+00	-3.090170e-01
9.510565e-01	4.210526e+00	-3.090170e-01
9.442611e-01	4.210526e+00	-3.078203e-01
9.267277e-01	4.210526e+00	-3.047010e-01
8.963175e-01	4.210526e+00	-2.991555e-01
8.562911e-01	4.210526e+00	-2.916579e-01
8.054250e-01	4.210526e+00	-2.817457e-01
7.470317e-01	4.210526e+00	-2.699633e-01
6.809074e-01	4.210526e+00	-2.559818e-01
6.100852e-01	4.210526e+00	-2.403847e-01
5.354138e-01	4.210526e+00	-2.229691e-01
4.593635e-01	4.210526e+00	-2.042585e-01
3.837764e-01	4.210526e+00	-1.841224e-01
3.103069e-01	4.210526e+00	-1.630077e-01
2.415927e-01	4.210526e+00	-1.409228e-01
1.782654e-01	4.210526e+00	-1.183331e-01
1.234349e-01	4.210526e+00	-9.558566e-02
7.662509e-02	4.210526e+00	-7.318920e-02
4.106998e-02	4.210526e+00	-5.193053e-02
1.528206e-02	4.210526e+00	-3.215886e-02
2.347037e-03	4.210526e+00	-1.488740e-02
0.000000e+00	4.210526e+00	0.000000e+00
1.064939e-02	4.210526e+00	1.066461e-02
3.126595e-02	4.210526e+00	1.703450e-02
6.375031e-02	4.210526e+00	1.787236e-02
1.050105e-01	4.210526e+00	1.417221e-02
1.560448e-01	4.210526e+00	4.777214e-03
2.137742e-01	4.210526e+00	-9.048270e-03
2.782849e-01	4.210526e+00	-2.799567e-02
3.468570e-01	4.210526e+00	-5.051783e-02
4.187060e-01	4.210526e+00	-7.662000e-02
4.916930e-01	4.210526e+00	-1.047585e-01
5.642168e-01	4.210526e+00	-1.343226e-01
6.348639e-01	4.210526e+00	-1.641238e-01
7.013280e-01	4.210526e+00	-1.931337e-01
7.630418e-01	4.210526e+00	-2.206893e-01
8.172084e-01	4.210526e+00	-2.454799e-01
8.641863e-01	4.210526e+00	-2.673591e-01
9.009752e-01	4.210526e+00	-2.848204e-01
9.288372e-01	4.210526e+00	-2.982085e-01
9.448555e-01	4.210526e+00	-3.059908e-01
9.510565e-01	4.210526e+00	-3.090170e-01
9.510565e-01	5.263158e+00	-3.090170e-01
9.442611e-01	5.263158e+00	-3.078203e-01
9.267277e-01	5.263158e+00	-3.047010e-01
8.963175e-01	5.263158e+00	-2.991555e-01
8.562911e-01	5.263158e+00	-2.916579e-01
8.054250e-01	5.263158e+00	-2.817457e-01
7.470317e-01	5.263158e+00	-2.699633e-01
6.809074e-01	5.263158e+00	-2.559818e-01
6.100852e-01	5.263158e+00	-2.403847e-01
5.354138e-01	5.263158e+00	-2.229691e-01
4.593635e-01	5.263158e+00	-2.042585e-01
3.837764e-01	5.263158e+00	-1.841224e-01
3.103069e-01	5.263158e+00	-1.630077e-01
2.415927e-01	5.263158e+00	-1.409228e-01
1.782654e-01	5.263158e+00	-1.183331e-01
1.234349e-01	5.263158e+00	-9.558566e-02
7.662509e-02	5.263158e+00	-7.318920e-02
4.106998e-02	5.263158e+00	-5.193053e-02
1.528206e-02	5.263158e+00	-3.215886e-02
2.347037e-03	5.263158e+00	-1.488740e-02
0.000000e+00	5.263158e+00	0.000000e+00
1.064939e-02	5.263158e+00	1.066461e-02
3.126595e-02	5.263158e+00	1.703450e-02
6.375031e-02	5.263158e+00	1.787236e-02
1.050105e-01	5.263158e+00	1.417221e-02
1.560448e-01	5.263158e+00	4.777214e-03
2.137742e-01	5.263158e+00	-9.048270e-03
2.782849e-01	5.263158e+00	-2.799567e-02
3.468570e-01	5.263158e+00	-5.051783e-02
4.187060e-01	5.263158e+00	-7.662000e-02
4.916930e-01	5.263158e+00	-1.047585e-01
5.642168e-01	5.263158e+00	-1.343226e-01
6.348639e-01	5.263158e+00	-1.641238e-01
7.013280e-01	5.263158e+00	-1.931337e-01
7.630418e-01	5.263158e+00	-2.206893e-01
8.172084e-01	5.263158e+00	-2.454799e-01
8.641863e-01	5.263158e+00	-2.673591e-01
9.009752e-01	5.263158e+00	-2.848204e-01
9.288372e-01	5.263158e+00	-2.982085e-01
9.448555e-01	5.263158e+00	-3.059908e-01
9.510565e-01	5.263158e+00	-3.090170e-01
9.510565e-01	6.315789e+00	-3.090170e-01
9.442611e-01	6.315789e+00	-3.078203e-01
[...]
CELL_DATA 760
VECTORS V double
8.414418e-01	-6.900922e-02	-1.481748e-01
8.655675e-01	-6.883568e-02	-1.539898e-01
8.835890e-01	-6.838605e-02	-1.611308e-01
8.953625e-01	-6.759190e-02	-1.677151e-01
8.978359e-01	-6.643133e-02	-1.749602e-01
8.991573e-01	-6.488673e-02	-1.814287e-01
8.921287e-01	-6.294780e-02	-1.886340e-01
8.848279e-01	-6.059054e-02	-1.948648e-01
8.705042e-01	-5.778655e-02	-2.030279e-01
8.548187e-01	-5.450323e-02	-2.103100e-01
8.295888e-01	-5.072386e-02	-2.209997e-01
7.987461e-01	-4.640765e-02	-2.295547e-01
7.513550e-01	-4.161423e-02	-2.414867e-01
6.893551e-01	-3.638596e-02	-2.459024e-01
6.027347e-01	-3.076081e-02	-2.500556e-01
4.720992e-01	-2.486145e-02	-2.258790e-01
2.704410e-01	-1.869582e-02	-1.616987e-01
-1.705731e-02	-1.242984e-02	1.307789e-02
-4.214057e-01	-5.864988e-03	5.626811e-01
-3.425270e-01	7.127617e-04	2.172670e+00
2.326307e+00	8.422752e-03	2.329632e+00
2.541120e+00	1.518489e-02	7.851285e-01
2.210156e+00	2.212852e-02	5.700592e-02
1.925244e+00	2.897349e-02	-1.726527e-01
1.719974e+00	3.596069e-02	-3.166334e-01
1.570243e+00	4.292508e-02	-3.760537e-01
1.435427e+00	4.986098e-02	-4.215980e-01
1.336635e+00	5.658999e-02	-4.390113e-01
1.250561e+00	6.299407e-02	-4.543187e-01
1.181647e+00	6.887496e-02	-4.555574e-01
1.121840e+00	7.411603e-02	-4.573143e-01
1.071593e+00	7.858136e-02	-4.520323e-01
1.027459e+00	8.220941e-02	-4.484600e-01
9.871898e-01	8.499235e-02	-4.407868e-01
9.499737e-01	8.698147e-02	-4.347762e-01
9.115262e-01	8.827468e-02	-4.245295e-01
8.743632e-01	8.900023e-02	-4.150017e-01
8.341921e-01	8.930712e-02	-4.008445e-01
7.910661e-01	8.935092e-02	-3.843305e-01
7.483170e-01	8.930520e-02	-3.651858e-01
8.268794e-01	-4.832940e-02	-1.456104e-01
8.473741e-01	-4.820514e-02	-1.507531e-01
8.618448e-01	-4.788674e-02	-1.571656e-01
8.705400e-01	-4.732314e-02	-1.630655e-01
8.703012e-01	-4.649170e-02	-1.695946e-01
8.689276e-01	-4.537361e-02	-1.753291e-01
8.589401e-01	-4.395823e-02	-1.816165e-01
8.480835e-01	-4.223056e-02	-1.867726e-01
8.294274e-01	-4.017584e-02	-1.934475e-01
8.084553e-01	-3.777888e-02	-1.989033e-01
7.766875e-01	-3.501450e-02	-2.069070e-01
7.380496e-01	-3.191934e-02	-2.121109e-01
6.817691e-01	-2.848455e-02	-2.191217e-01
6.087490e-01	-2.476069e-02	-2.171490e-01
5.089874e-01	-2.077370e-02	-2.111628e-01
3.610372e-01	-1.660657e-02	-1.727406e-01
1.376924e-01	-1.226105e-02	-8.232730e-02
-1.811025e-01	-7.850477e-03	1.388518e-01
-6.027569e-01	-3.235024e-03	8.048299e-01
-4.196604e-01	1.382495e-03	2.661932e+00
2.681675e+00	6.780397e-03	2.685507e+00
2.843431e+00	1.149451e-02	8.785335e-01
2.432802e+00	1.630672e-02	6.274857e-02
2.097014e+00	2.101419e-02	-1.880568e-01
1.860246e+00	2.577559e-02	-3.424563e-01
1.689461e+00	3.047130e-02	-4.046052e-01
1.538917e+00	3.509551e-02	-4.519941e-01
1.427691e+00	3.953014e-02	-4.689181e-01
1.330625e+00	4.370342e-02	-4.834052e-01
1.251828e+00	4.750749e-02	-4.826142e-01
1.182606e+00	5.083152e-02	-4.820855e-01
1.123288e+00	5.364721e-02	-4.738388e-01
1.070352e+00	5.590525e-02	-4.671820e-01
1.021710e+00	5.761001e-02	-4.562004e-01
9.765670e-01	5.880266e-02	-4.469472e-01
9.307447e-01	5.955403e-02	-4.334801e-01
8.867403e-01	5.995247e-02	-4.208763e-01
8.402898e-01	6.009873e-02	-4.037746e-01
7.917033e-01	6.009506e-02	-3.846400e-01
7.448167e-01	6.005176e-02	-3.634776e-01
8.205878e-01	-2.040968e-02	-1.445025e-01
8.397532e-01	-2.035851e-02	-1.493973e-01
8.527443e-01	-2.022759e-02	-1.555060e-01
8.599119e-01	-1.999175e-02	-1.610747e-01
8.581309e-01	-1.963336e-02	-1.672229e-01
8.551749e-01	-1.913580e-02	-1.725541e-01
8.435631e-01	-1.848932e-02	-1.783652e-01
8.309722e-01	-1.768861e-02	-1.830042e-01
8.104269e-01	-1.670661e-02	-1.890161e-01
7.870545e-01	-1.559284e-02	-1.936381e-01
7.530048e-01	-1.431511e-02	-2.005980e-01
7.117287e-01	-1.290614e-02	-2.045465e-01
6.519328e-01	-1.135036e-02	-2.095323e-01
5.748078e-01	-9.683838e-03	-2.050418e-01
4.700591e-01	-7.916639e-03	-1.950127e-01
3.153605e-01	-6.081209e-03	-1.508863e-01
8.342635e-02	-4.174268e-03	-4.988124e-02
-2.478791e-01	-2.243715e-03	1.900496e-01
-6.762518e-01	-2.287101e-04	9.029637e-01
-4.506905e-01	1.778865e-03	2.858757e+00
2.822727e+00	4.107156e-03	2.826761e+00
2.961115e+00	6.114434e-03	9.148944e-01
2.517396e+00	8.127221e-03	6.493050e-02
2.160291e+00	1.005041e-02	-1.937313e-01
1.910052e+00	1.194025e-02	-3.516252e-01
1.730053e+00	1.374321e-02	-4.143264e-01
1.572601e+00	1.545471e-02	-4.618875e-01
1.455977e+00	1.703418e-02	-4.782083e-01
1.354533e+00	1.846417e-02	-4.920911e-01
1.271600e+00	1.973028e-02	-4.902369e-01
1.198716e+00	2.079585e-02	-4.886525e-01
1.136415e+00	2.165541e-02	-4.793765e-01
1.080499e+00	2.229181e-02	-4.716108e-01
1.029130e+00	2.276303e-02	-4.595132e-01
9.815052e-01	2.306492e-02	-4.492073e-01
9.334691e-01	2.322950e-02	-4.347490e-01
8.875140e-01	2.329196e-02	-4.212435e-01
8.393995e-01	2.328977e-02	-4.033468e-01
7.894812e-01	2.325867e-02	-3.835605e-01
7.416854e-01	2.323253e-02	-3.619496e-01
8.182919e-01	-1.022065e-02	-1.440982e-01
8.367570e-01	-1.019962e-02	-1.488642e-01
8.489998e-01	-1.014336e-02	-1.548232e-01
8.554127e-01	-1.003759e-02	-1.602319e-01
8.528437e-01	-9.872467e-03	-1.661926e-01
8.490498e-01	-9.624725e-03	-1.713182e-01
8.365707e-01	-9.312145e-03	-1.768867e-01
8.226882e-01	-8.914794e-03	-1.811798e-01
8.011517e-01	-8.441599e-03	-1.868528e-01
7.770572e-01	-7.877734e-03	-1.911784e-01
7.415709e-01	-7.238172e-03	-1.975520e-01
6.985398e-01	-6.500465e-03	-2.007560e-01
6.370078e-01	-5.694945e-03	-2.047353e-01
5.577279e-01	-4.819537e-03	-1.989491e-01
4.503571e-01	-3.885646e-03	-1.868389e-01
2.921198e-01	-2.910368e-03	-1.397667e-01
5.571813e-02	-1.896979e-03	-3.331428e-02
-2.820230e-01	-8.634448e-04	2.162279e-01
-7.138342e-01	2.027302e-04	9.531455e-01
-4.665194e-01	1.278207e-03	2.959161e+00
2.894274e+00	2.520052e-03	2.898410e+00
3.020344e+00	3.597995e-03	9.331942e-01
2.559592e+00	4.655819e-03	6.601884e-02
2.191507e+00	5.657721e-03	-1.965307e-01
1.934358e+00	6.636305e-03	-3.560999e-01
1.749653e+00	7.555605e-03	-4.190204e-01
1.588705e+00	8.419357e-03	-4.666172e-01
1.469389e+00	9.208611e-03	-4.826135e-01
1.365754e+00	9.924254e-03	-4.961674e-01
1.281249e+00	1.054308e-02	-4.939569e-01
1.206714e+00	1.108148e-02	-4.919130e-01
1.142414e+00	1.151275e-02	-4.819070e-01
1.085182e+00	1.185087e-02	-4.736547e-01
1.032924e+00	1.208902e-02	-4.612073e-01
9.841662e-01	1.224911e-02	-4.504252e-01
9.351330e-01	1.233015e-02	-4.355240e-01
8.883022e-01	1.237411e-02	-4.216177e-01
8.394442e-01	1.238432e-02	-4.033683e-01
7.889605e-01	1.237749e-02	-3.833075e-01
7.408146e-01	1.236883e-02	-3.615246e-01
8.170579e-01	-5.653939e-03	-1.438809e-01
8.352234e-01	-5.642187e-03	-1.485914e-01
8.470497e-01	-5.611327e-03	-1.544676e-01
8.530049e-01	-5.551909e-03	-1.597809e-01
8.496816e-01	-5.455712e-03	-1.655764e-01
8.454485e-01	-5.315414e-03	-1.705915e-01
8.325829e-01	-5.143998e-03	-1.760435e-01
8.185766e-01	-4.924131e-03	-1.802744e-01
7.964285e-01	-4.659092e-03	-1.857512e-01
7.712552e-01	-4.317460e-03	-1.897510e-01
7.350056e-01	-3.932886e-03	-1.958030e-01
6.911605e-01	-3.497128e-03	-1.986353e-01
6.285883e-01	-3.026005e-03	-2.020293e-01
5.479276e-01	-2.606013e-03	-1.954533e-01
4.389942e-01	-2.063106e-03	-1.821248e-01
2.787385e-01	-1.456199e-03	-1.333643e-01
3.971997e-02	-8.472117e-04	-2.374887e-02
-3.016367e-01	-2.279593e-04	2.312657e-01
-7.353153e-01	4.198202e-04	9.818281e-01
-4.757442e-01	1.048923e-03	3.017674e+00
2.936549e+00	1.808749e-03	2.940746e+00
3.054898e+00	2.441932e-03	9.438703e-01
2.583700e+00	3.069305e-03	6.664064e-02
2.209353e+00	3.659280e-03	-1.981312e-01
1.948115e+00	4.228242e-03	-3.586324e-01
1.760581e+00	4.751107e-03	-4.216374e-01
1.597603e+00	5.236319e-03	-4.692307e-01
1.476828e+00	5.779507e-03	-4.850569e-01
1.371917e+00	6.183109e-03	-4.984064e-01
1.286204e+00	6.520735e-03	-4.958670e-01
1.210859e+00	6.800857e-03	-4.936026e-01
1.146247e+00	7.030696e-03	-4.835239e-01
1.088220e+00	7.228577e-03	-4.749809e-01
1.034899e+00	7.371093e-03	-4.620895e-01
9.854418e-01	7.469302e-03	-4.510090e-01
9.358525e-01	7.517841e-03	-4.358590e-01
8.888470e-01	7.541213e-03	-4.218762e-01
8.396011e-01	7.547628e-03	-4.034436e-01
7.887877e-01	7.544470e-03	-3.832235e-01
7.403589e-01	7.539572e-03	-3.613022e-01
8.163196e-01	-3.280315e-03	-1.437509e-01
8.342651e-01	-3.273267e-03	-1.484209e-01
8.458209e-01	-3.254273e-03	-1.542435e-01
8.514364e-01	-3.216172e-03	-1.594871e-01
8.480098e-01	-3.176624e-03	-1.652507e-01
8.436445e-01	-3.101417e-03	-1.702275e-01
8.305176e-01	-2.986332e-03	-1.756068e-01
8.157824e-01	-2.842959e-03	-1.796590e-01
7.929567e-01	-2.659071e-03	-1.849415e-01
7.675233e-01	-2.427385e-03	-1.888328e-01
7.308496e-01	-2.188476e-03	-1.946959e-01
6.864517e-01	-1.963116e-03	-1.972820e-01
6.245929e-01	-1.649641e-03	-2.007452e-01
5.434885e-01	-1.431204e-03	-1.938697e-01
4.316891e-01	-1.066505e-03	-1.790941e-01
2.696941e-01	-6.888316e-04	-1.290370e-01
2.948793e-02	-2.934197e-04	-1.763105e-02
-3.144257e-01	1.007824e-04	2.410711e-01
-7.491855e-01	5.256283e-04	1.000348e+00
-4.814761e-01	9.333245e-04	3.054032e+00
2.962377e+00	1.403791e-03	2.966610e+00
3.075750e+00	1.790956e-03	9.503130e-01
2.598756e+00	2.187747e-03	6.702900e-02
2.220196e+00	2.558422e-03	-1.991035e-01
1.956235e+00	2.908859e-03	-3.601271e-01
1.766906e+00	3.235670e-03	-4.231521e-01
1.604336e+00	3.649304e-03	-4.712081e-01
1.482466e+00	3.906416e-03	-4.869087e-01
1.375406e+00	4.149419e-03	-4.996741e-01
1.289044e+00	4.367960e-03	-4.969619e-01
1.213100e+00	4.532906e-03	-4.945161e-01
1.147875e+00	4.638819e-03	-4.842107e-01
1.089741e+00	4.733353e-03	-4.756447e-01
1.036409e+00	4.808524e-03	-4.627637e-01
9.865637e-01	4.856330e-03	-4.515224e-01
9.365107e-01	4.894754e-03	-4.361656e-01
8.890305e-01	4.926199e-03	-4.219634e-01
8.395988e-01	4.926416e-03	-4.034425e-01
7.886117e-01	4.923337e-03	-3.831380e-01
7.400644e-01	4.920199e-03	-3.611585e-01
8.158751e-01	-2.043696e-03	-1.436726e-01
8.336960e-01	-2.039729e-03	-1.483197e-01
8.450325e-01	-2.029781e-03	-1.540997e-01
8.510743e-01	-2.011744e-03	-1.594193e-01
8.473095e-01	-1.982731e-03	-1.651142e-01
8.421250e-01	-2.028204e-03	-1.699209e-01
8.285873e-01	-1.936918e-03	-1.751986e-01
8.139115e-01	-1.798963e-03	-1.792470e-01
7.908161e-01	-1.696715e-03	-1.844422e-01
7.650783e-01	-1.553009e-03	-1.882313e-01
7.289345e-01	-1.394908e-03	-1.941857e-01
6.839961e-01	-1.222882e-03	-1.965763e-01
6.211491e-01	-1.022074e-03	-1.996383e-01
5.393558e-01	-7.417977e-04	-1.923956e-01
4.269115e-01	-5.063105e-04	-1.771121e-01
2.645066e-01	-2.987757e-04	-1.265550e-01
2.283763e-02	-5.462889e-05	-1.365479e-02
-3.225325e-01	1.679661e-04	2.472866e-01
-7.583928e-01	4.275273e-04	1.012642e+00
-4.852389e-01	6.997283e-04	3.077900e+00
2.978431e+00	9.779077e-04	2.982688e+00
3.089475e+00	1.229433e-03	9.545535e-01
2.608377e+00	1.471063e-03	6.727715e-02
2.227183e+00	1.729737e-03	-1.997301e-01
1.961694e+00	1.950078e-03	-3.611321e-01
1.773380e+00	2.163913e-03	-4.247026e-01
1.607655e+00	2.362435e-03	-4.721832e-01
1.483762e+00	2.464303e-03	-4.873344e-01
1.377932e+00	2.609911e-03	-5.005915e-01
1.291041e+00	2.747615e-03	-4.977319e-01
1.214252e+00	2.862353e-03	-4.949860e-01
1.148806e+00	2.955600e-03	-4.846031e-01
1.090490e+00	3.058993e-03	-4.759716e-01
1.036683e+00	3.130816e-03	-4.628860e-01
9.868297e-01	3.246955e-03	-4.516442e-01
9.371610e-01	3.234892e-03	-4.364685e-01
8.896595e-01	3.227711e-03	-4.222619e-01
8.395331e-01	3.224255e-03	-4.034110e-01
7.884989e-01	3.220839e-03	-3.830832e-01
7.398784e-01	3.218521e-03	-3.610677e-01
8.156539e-01	-1.134825e-03	-1.436337e-01
8.334556e-01	-1.132035e-03	-1.482769e-01
8.448402e-01	-1.123524e-03	-1.540646e-01
8.502347e-01	-1.134352e-03	-1.592620e-01
8.484789e-01	-1.092549e-03	-1.653421e-01
8.426996e-01	-1.064288e-03	-1.700369e-01
8.269576e-01	-1.021757e-03	-1.748541e-01
8.123874e-01	-9.933190e-04	-1.789113e-01
7.896317e-01	-1.001215e-03	-1.841660e-01
7.635612e-01	-9.216614e-04	-1.878580e-01
7.265345e-01	-8.193135e-04	-1.935464e-01
6.814858e-01	-6.968916e-04	-1.958548e-01
6.179381e-01	-5.840009e-04	-1.986063e-01
5.357818e-01	-3.488034e-04	-1.911207e-01
4.244410e-01	-2.575612e-04	-1.760872e-01
2.614218e-01	-1.286152e-04	-1.250790e-01
1.945698e-02	9.417165e-06	-1.163347e-02
-3.266486e-01	1.521641e-04	2.504424e-01
-7.637923e-01	3.022950e-04	1.019852e+00
-4.874910e-01	4.518714e-04	3.092185e+00
2.988461e+00	6.240254e-04	2.992732e+00
3.097358e+00	7.703066e-04	9.569891e-01
2.615020e+00	9.141600e-04	6.744849e-02
2.231968e+00	1.048583e-03	-2.001592e-01
1.964955e+00	1.177093e-03	-3.617325e-01
1.773963e+00	1.297969e-03	-4.248423e-01
1.608818e+00	1.326157e-03	-4.725247e-01
1.485920e+00	1.439151e-03	-4.880431e-01
1.379100e+00	1.547775e-03	-5.010160e-01
1.292229e+00	1.606357e-03	-4.981899e-01
1.215704e+00	1.671834e-03	-4.955778e-01
1.150380e+00	1.815598e-03	-4.852672e-01
1.092089e+00	1.835538e-03	-4.766697e-01
1.039076e+00	1.876314e-03	-4.639544e-01
9.883622e-01	1.886072e-03	-4.523455e-01
9.361452e-01	1.894116e-03	-4.359953e-01
8.887772e-01	1.874698e-03	-4.218431e-01
8.393895e-01	1.897872e-03	-4.033419e-01
7.883277e-01	1.894472e-03	-3.830000e-01
7.397095e-01	1.892938e-03	-3.609853e-01
8.154069e-01	-1.362636e-03	-1.435902e-01
8.330242e-01	-1.362739e-03	-1.482001e-01
8.452318e-01	-1.363611e-03	-1.541360e-01
8.501396e-01	-1.346360e-03	-1.592442e-01
8.459269e-01	-1.305744e-03	-1.648448e-01
8.408892e-01	-1.259129e-03	-1.696716e-01
8.275065e-01	-1.096155e-03	-1.749701e-01
8.136360e-01	-1.188599e-03	-1.791863e-01
7.898280e-01	-9.696389e-04	-1.842118e-01
7.626895e-01	-1.019327e-03	-1.876436e-01
7.259973e-01	-6.629225e-04	-1.934033e-01
6.808546e-01	-7.510039e-04	-1.956734e-01
6.163629e-01	-3.151525e-04	-1.981000e-01
5.343949e-01	-3.779862e-04	-1.906259e-01
4.233633e-01	8.125177e-05	-1.756400e-01
2.595966e-01	4.177431e-04	-1.242057e-01
1.684722e-02	6.091600e-04	-1.007308e-02
-3.300192e-01	6.542160e-04	2.530267e-01
-7.666687e-01	6.998256e-04	1.023693e+00
-4.887183e-01	7.595497e-04	3.099970e+00
2.994026e+00	8.390637e-04	2.998305e+00
3.102217e+00	9.159842e-04	9.584906e-01
2.617325e+00	1.010750e-03	6.750794e-02
2.233689e+00	1.091134e-03	-2.003135e-01
1.966696e+00	1.023909e-03	-3.620529e-01
1.775835e+00	8.043714e-04	-4.252905e-01
1.609858e+00	4.549192e-04	-4.728300e-01
1.486836e+00	6.176200e-04	-4.883439e-01
1.380100e+00	2.999841e-04	-5.013792e-01
1.292608e+00	4.290889e-04	-4.983359e-01
1.216866e+00	1.336536e-04	-4.960516e-01
1.150923e+00	2.835544e-04	-4.854962e-01
1.091290e+00	2.277437e-05	-4.763209e-01
1.037430e+00	7.817276e-05	-4.632195e-01
9.871159e-01	-1.261875e-04	-4.517752e-01
9.369971e-01	-7.056751e-05	-4.363921e-01
8.896215e-01	-8.751903e-05	-4.222438e-01
8.402888e-01	-9.408603e-05	-4.037741e-01
7.882406e-01	-8.916370e-05	-3.829577e-01
7.396434e-01	-8.810735e-05	-3.609530e-01
8.156713e-01	4.845576e-05	-1.436367e-01
8.335182e-01	3.096587e-05	-1.482880e-01
8.441816e-01	2.947898e-05	-1.539445e-01
8.487254e-01	5.096524e-05	-1.589793e-01
8.467149e-01	4.906045e-05	-1.649983e-01
8.389566e-01	4.876839e-05	-1.692816e-01
8.260633e-01	4.891304e-05	-1.746650e-01
8.104520e-01	5.314813e-05	-1.784851e-01
7.874196e-01	9.976521e-05	-1.836501e-01
7.595094e-01	8.350249e-05	-1.868612e-01
7.229913e-01	7.082959e-05	-1.926025e-01
6.769865e-01	6.713828e-05	-1.945618e-01
6.125291e-01	5.252560e-06	-1.968678e-01
5.302588e-01	6.941135e-06	-1.891506e-01
4.113462e-01	3.687462e-05	-1.706545e-01
2.514475e-01	3.506448e-06	-1.203067e-01
1.403827e-02	5.847097e-06	-8.393588e-03
-3.289734e-01	7.466512e-06	2.522248e-01
-7.666201e-01	7.778253e-06	1.023628e+00
-4.889776e-01	7.152755e-06	3.101614e+00
2.996211e+00	5.725589e-06	3.000492e+00
3.105072e+00	4.023769e-06	9.593725e-01
2.620608e+00	1.763365e-06	6.759262e-02
2.231869e+00	-1.444322e-06	-2.001503e-01
1.958917e+00	2.946897e-05	-3.606210e-01
1.764058e+00	2.420161e-05	-4.224701e-01
1.606363e+00	-1.133960e-05	-4.718035e-01
1.483557e+00	3.794308e-05	-4.872669e-01
1.376757e+00	2.223361e-05	-5.001649e-01
1.290097e+00	1.062496e-05	-4.973679e-01
1.213855e+00	2.482409e-06	-4.948240e-01
1.149066e+00	-7.948380e-05	-4.847129e-01
1.089220e+00	-3.906329e-05	-4.754173e-01
1.037119e+00	-3.866087e-05	-4.630805e-01
9.857108e-01	-3.668030e-05	-4.511321e-01
9.369872e-01	-3.616275e-05	-4.363875e-01
8.882109e-01	-3.475667e-05	-4.215743e-01
8.392729e-01	-5.689596e-05	-4.032859e-01
7.886652e-01	-5.574289e-05	-3.831640e-01
7.398712e-01	-3.831962e-05	-3.610642e-01
8.183421e-01	1.463940e-03	-1.441071e-01
8.337252e-01	1.464315e-03	-1.483249e-01
8.444223e-01	1.466200e-03	-1.539884e-01
8.497278e-01	1.451654e-03	-1.591671e-01
8.459680e-01	1.415234e-03	-1.648528e-01
8.408913e-01	1.461349e-03	-1.696720e-01
8.274361e-01	1.288362e-03	-1.749552e-01
8.128950e-01	1.349556e-03	-1.790231e-01
7.894351e-01	1.081963e-03	-1.841201e-01
7.630690e-01	1.128400e-03	-1.877369e-01
7.262120e-01	7.745156e-04	-1.934605e-01
6.817138e-01	7.843114e-04	-1.959204e-01
6.172282e-01	3.495804e-04	-1.983782e-01
5.339447e-01	4.367372e-04	-1.904653e-01
4.233527e-01	-5.772131e-05	-1.756357e-01
2.602271e-01	-3.946900e-04	-1.245074e-01
1.676077e-02	-5.880001e-04	-1.002139e-02
-3.300742e-01	-6.096788e-04	2.530688e-01
-7.666654e-01	-6.860978e-04	1.023688e+00
-4.886974e-01	-7.474126e-04	3.099837e+00
2.993868e+00	-8.309310e-04	2.998147e+00
3.102038e+00	-8.835695e-04	9.584352e-01
2.617144e+00	-9.792408e-04	6.750325e-02
2.234475e+00	-1.093546e-03	-2.003840e-01
1.967147e+00	-1.031954e-03	-3.621360e-01
1.775101e+00	-7.862144e-04	-4.251148e-01
1.610128e+00	-4.463065e-04	-4.729094e-01
1.487273e+00	-6.472764e-04	-4.884875e-01
1.379745e+00	-3.445394e-04	-5.012501e-01
1.292359e+00	-4.111909e-04	-4.982399e-01
1.215743e+00	-1.342113e-04	-4.955937e-01
1.150363e+00	-2.746294e-04	-4.852602e-01
1.091851e+00	-2.936963e-05	-4.765657e-01
1.037463e+00	-1.356187e-04	-4.632343e-01
9.871574e-01	-3.440514e-05	-4.517942e-01
9.370312e-01	-6.184003e-05	-4.364080e-01
8.892171e-01	-3.220912e-05	-4.220519e-01
8.395152e-01	-2.248673e-05	-4.034024e-01
7.888582e-01	-2.664441e-05	-3.832578e-01
7.423116e-01	-2.761332e-05	-3.622552e-01
8.156084e-01	1.190751e-03	-1.436257e-01
8.333777e-01	1.205347e-03	-1.482630e-01
8.447060e-01	1.198034e-03	-1.540402e-01
8.500588e-01	1.192114e-03	-1.592291e-01
8.463669e-01	1.080396e-03	-1.649305e-01
8.413916e-01	1.055263e-03	-1.697730e-01
8.276080e-01	9.804125e-04	-1.749916e-01
8.135295e-01	9.584923e-04	-1.791628e-01
7.903192e-01	9.294718e-04	-1.843263e-01
7.635705e-01	8.551281e-04	-1.878603e-01
7.275187e-01	7.707290e-04	-1.938085e-01
6.825364e-01	7.025215e-04	-1.961568e-01
6.175946e-01	6.236859e-04	-1.984959e-01
5.359011e-01	4.758521e-04	-1.911632e-01
4.250592e-01	3.421389e-04	-1.763436e-01
2.614632e-01	2.355427e-04	-1.250988e-01
1.906051e-02	8.765813e-05	-1.139642e-02
-3.266811e-01	-6.231139e-05	2.504674e-01
-7.627329e-01	-2.178291e-04	1.018437e+00
-4.874344e-01	-3.716286e-04	3.091826e+00
2.989715e+00	-5.480123e-04	2.993988e+00
3.098159e+00	-6.975858e-04	9.572367e-01
2.613723e+00	-8.442870e-04	6.741502e-02
2.231068e+00	-9.803147e-04	-2.000785e-01
1.965425e+00	-1.143828e-03	-3.618190e-01
1.774209e+00	-1.260903e-03	-4.249013e-01
1.608072e+00	-1.368585e-03	-4.723056e-01
1.485192e+00	-1.498165e-03	-4.878041e-01
1.379741e+00	-1.581081e-03	-5.012487e-01
1.292778e+00	-1.643654e-03	-4.984017e-01
1.215590e+00	-1.694748e-03	-4.955313e-01
1.150309e+00	-1.732681e-03	-4.852373e-01
1.091220e+00	-1.791804e-03	-4.762901e-01
1.036902e+00	-1.799410e-03	-4.629838e-01
9.870256e-01	-1.822481e-03	-4.517338e-01
9.369301e-01	-1.844615e-03	-4.363609e-01
8.891659e-01	-1.762792e-03	-4.220276e-01
8.395226e-01	-1.773417e-03	-4.034059e-01
7.883778e-01	-1.773241e-03	-3.830244e-01
7.397228e-01	-1.789671e-03	-3.609918e-01
8.158924e-01	1.715948e-03	-1.436757e-01
8.337191e-01	1.705038e-03	-1.483238e-01
8.448530e-01	1.581476e-03	-1.540670e-01
8.529801e-01	1.674100e-03	-1.597763e-01
8.485570e-01	1.701450e-03	-1.653573e-01
8.426703e-01	1.710460e-03	-1.700310e-01
8.288847e-01	1.668794e-03	-1.752615e-01
8.136215e-01	1.604798e-03	-1.791831e-01
7.908397e-01	1.532943e-03	-1.844477e-01
7.651531e-01	1.414858e-03	-1.882497e-01
7.282085e-01	1.270684e-03	-1.939923e-01
6.836725e-01	1.188003e-03	-1.964833e-01
6.203497e-01	9.833640e-04	-1.993814e-01
5.381442e-01	7.865239e-04	-1.919634e-01