# vtk DataFile Version 2.0
OUTPUT by 3D-VPM
ASCII
DATASET UNSTRUCTURED_GRID
POINTS 820 double
9.510565e-01	0.000000e+00	-3.090170e-01
9.442611e-01	0.000000e+00	-3.078203e-01
9.267277e-01	0.000000e+00	-3.047010e-01
8.963175e-01	0.000000e+00	-2.991555e-01
8.562911e-01	0.000000e+00	-2.916579e-01
8.054250e-01	0.000000e+00	-2.817457e-01
7.470317e-01	0.000000e+00	-2.699633e-01
6.809074e-01	0.000000e+00	-2.559818e-01
6.100852e-01	0.000000e+00	-2.403847e-01
5.354138e-01	0.000000e+00	-2.229691e-01
4.593635e-01	0.000000e+00	-2.042585e-01
3.837764e-01	0.000000e+00	-1.841224e-01
3.103069e-01	0.000000e+00	-1.630077e-01
2.415927e-01	0.000000e+00	-1.409228e-01
1.782654e-01	0.000000e+00	-1.183331e-01
1.234349e-01	0.000000e+00	-9.558566e-02
7.662509e-02	0.000000e+00	-7.318920e-02
4.106998e-02	0.000000e+00	-5.193053e-02
1.528206e-02	0.000000e+00	-3.215886e-02
2.347037e-03	0.000000e+00	-1.488740e-02
0.000000e+00	0.000000e+00	0.000000e+00
1.064939e-02	0.000000e+00	1.066461e-02
3.126595e-02	0.000000e+00	1.703450e-02
6.375031e-02	0.000000e+00	1.787236e-02
1.050105e-01	0.000000e+00	1.417221e-02
1.560448e-01	0.000000e+00	4.777214e-03
2.137742e-01	0.000000e+00	-9.048270e-03
2.782849e-01	0.000000e+00	-2.799567e-02
3.468570e-01	0.000000e+00	-5.051783e-02
4.187060e-01	0.000000e+00	-7.662000e-02
4.916930e-01	0.000000e+00	-1.047585e-01
5.642168e-01	0.000000e+00	-1.343226e-01
6.348639e-01	0.000000e+00	-1.641238e-01
7.013280e-01	0.000000e+00	-1.931337e-01
7.630418e-01	0.000000e+00	-2.206893e-01
8.172084e-01	0.000000e+00	-2.454799e-01
8.641863e-01	0.000000e+00	-2.673591e-01
9.009752e-01	0.000000e+00	-2.848204e-01
9.288372e-01	0.000000e+00	-2.982085e-01
9.448555e-01	0.000000e+00	-3.059908e-01
9.510565e-01	0.000000e+00	-3.090170e-01
9.510565e-01	1.052632e+00	-3.090170e-01
9.442611e-01	1.052632e+00	-3.078203e-01
9.267277e-01	1.052632e+00	-3.047010e-01
8.963175e-01	1.052632e+00	-2.991555e-01
8.562911e-01	1.052632e+00	-2.916579e-01
8.054250e-01	1.052632e+00	-2.817457e-01
7.470317e-01	1.052632e+00	-2.699633e-01
6.809074e-01	1.052632e+00	-2.559818e-01
6.100852e-01	1.052632e+00	-2.403847e-01
5.354138e-01	1.052632e+00	-2.229691e-01
4.593635e-01	1.052632e+00	-2.042585e-01
3.837764e-01	1.052632e+00	-1.841224e-01
3.103069e-01	1.052632e+00	-1.630077e-01
2.415927e-01	1.052632e+00	-1.409228e-01
1.782654e-01	1.052632e+00	-1.183331e-01
1.234349e-01	1.052632e+00	-9.558566e-02
7.662509e-02	1.052632e+00	-7.318920e-02
4.106998e-02	1.052632e+00	-5.193053e-02
1.528206e-02	1.052632e+00	-3.215886e-02
2.347037e-03	1.052632e+00	-1.488740e-02
0.000000e+00	1.052632e+00	0.000000e+00
1.064939e-02	1.052632e+00	1.066461e-02
3.126595e-02	1.052632e+00	1.703450e-02
6.375031e-02	1.052632e+00	1.787236e-02
1.050105e-01	1.052632e+00	1.417221e-02
1.560448e-01	1.052632e+00	4.777214e-03
2.137742e-01	1.052632e+00	-9.048270e-03
2.782849e-01	1.052632e+00	-2.799567e-02
3.468570e-01	1.052632e+00	-5.051783e-02
4.187060e-01	1.052632e+00	-7.662000e-02
4.916930e-01	1.052632e+00	-1.047585e-01
5.642168e-01	1.052632e+00	-1.343226e-01
6.348639e-01	1.052632e+00	-1.641238e-01
7.013280e-01	1.052632e+00	-1.931337e-01
7.630418e-01	1.052632e+00	-2.206893e-01
8.172084e-01	1.052632e+00	-2.454799e-01
8.641863e-01	1.052632e+00	-2.673591e-01
9.009752e-01	1.052632e+00	-2.848204e-01
9.288372e-01	1.052632e+00	-2.982085e-01
9.448555e-01	1.052632e+00	-3.059908e-01
9.510565e-01	1.052632e+00	-3.090170e-01
9.510565e-01	2.105263e+00	-3.090170e-01
9.442611e-01	2.105263e+00	-3.078203e-01
9.267277e-01	2.105263e+00	-3.047010e-01
8.963175e-01	2.105263e+00	-2.991555e-01
8.562911e-01	2.105263e+00	-2.916579e-01
8.054250e-01	2.105263e+00	-2.817457e-01
7.470317e-01	2.105263e+00	-2.699633e-01
6.809074e-01	2.105263e+00	-2.559818e-01
6.100852e-01	2.105263e+00	-2.403847e-01
5.354138e-01	2.105263e+00	-2.229691e-01
4.593635e-01	2.105263e+00	-2.042585e-01
3.837764e-01	2.105263e+00	-1.841224e-01
3.103069e-01	2.105263e+00	-1.630077e-01
2.415927e-01	2.105263e+00	-1.409228e-01
1.782654e-01	2.105263e+00	-1.183331e-01
1.234349e-01	2.105263e+00	-9.558566e-02
7.662509e-02	2.105263e+00	-7.318920e-02
4.106998e-02	2.105263e+00	-5.193053e-02
1.528206e-02	2.105263e+00	-3.215886e-02
2.347037e-03	2.105263e+00	-1.488740e-02
0.000000e+00	2.105263e+00	0.000000e+00
1.064939e-02	2.105263e+00	1.066461e-02
3.126595e-02	2.105263e+00	1.703450e-02
6.375031e-02	2.105263e+00	1.787236e-02
1.050105e-01	2.105263e+00	1.417221e-02
1.560448e-01	2.105263e+00	4.777214e-03
2.137742e-01	2.105263e+00	-9.048270e-03
2.782849e-01	2.105263e+00	-2.799567e-02
3.468570e-01	2.105263e+00	-5.051783e-02
4.187060e-01	2.105263e+00	-7.662000e-02
4.916930e-01	2.105263e+00	-1.047585e-01
5.642168e-01	2.105263e+00	-1.343226e-01
6.348639e-01	2.105263e+00	-1.641238e-01
7.013280e-01	2.105263e+00	-1.931337e-01
7.630418e-01	2.105263e+00	-2.206893e-01
8.172084e-01	2.105263e+00	-2.454799e-01
8.641863e-01	2.105263e+00	-2.673591e-01
9.009752e-01	2.105263e+00	-2.848204e-01
9.288372e-01	2.105263e+00	-2.982085e-01
9.448555e-01	2.105263e+00	-3.059908e-01
9.510565e-01	2.105263e+00	-3.090170e-01
9.510565e-01	3.157895e+00	-3.090170e-01
9.442611e-01	3.157895e+00	-3.078203e-01
9.267277e-01	3.157895e+00	-3.047010e-01
8.963175e-01	3.157895e+00	-2.991555e-01
8.562911e-01	3.157895e+00	-2.916579e-01
8.054250e-01	3.157895e+00	-2.817457e-01
7.470317e-01	3.157895e+00	-2.699633e-01
6.809074e-01	3.157895e+00	-2.559818e-01
6.100852e-01	3.157895e+00	-2.403847e-01
5.354138e-01	3.157895e+00	-2.229691e-01
4.593635e-01	3.157895e+00	-2.042585e-01
3.837764e-01	3.157895e+00	-1.841224e-01
3.103069e-01	3.157895e+00	-1.630077e-01
2.415927e-01	3.157895e+00	-1.409228e-01
1.782654e-01	3.157895e+00	-1.183331e-01
1.234349e-01	3.157895e+00	-9.558566e-02
7.662509e-02	3.157895e+00	-7.318920e-02
4.106998e-02	3.157895e+00	-5.193053e-02
1.528206e-02	3.157895e+00	-3.215886e-02
2.347037e-03	3.157895e+00	-1.488740e-02
0.000000e+00	3.157895e+00	0.000000e+00
1.064939e-02	3.157895e+00	1.066461e-02
3.126595e-02	3.157895e+00	1.703450e-02
6.375031e-02	3.157895e+00	1.787236e-02
1.050105e-01	3.157895e+00	1.417221e-02
1.560448e-01	3.157895e+00	4.777214e-03
2.137742e-01	3.157895e+00	-9.048270e-03
2.782849e-01	3.157895e+00	-2.799567e-02
3.468570e-01	3.157895e+00	-5.051783e-02
4.187060e-01	3.157895e+00	-7.662000e-02
4.916930e-01	3.157895e+00	-1.047585e-01
5.642168e-01	3.157895e+00	-1.343226e-01
6.348639e-01	3.157895e+00	-1.641238e-01
7.013280e-01	3.157895e+00	-1.931337e-01
7.630418e-01	3.157895e+00	-2.206893e-01
8.172084e-01	3.157895e+00	-2.454799e-01
8.641863e-01	3.157895e+00	-2.673591e-01
9.009752e-01	3.157895e+00	-2.848204e-01
9.288372e-01	3.157895e+00	-2.982085e-01
9.448555e-01	3.157895e+00	-3.059908e-01
9.510565e-01	3.157895e+00	-3.090170e-01
9.510565e-01	4.210526e+00	-3.090170e-01
9.442611e-01	4.210526e+00	-3.078203e-01
9.267277e-01	4.210526e+00	-3.047010e-01
8.963175e-01	4.210526e+00	-2.991555e-01
8.562911e-01	4.210526e+00	-2.916579e-01
8.054250e-01	4.210526e+00	-2.817457e-01
7.470317e-01	4.210526e+00	-2.699633e-01
6.809074e-01	4.210526e+00	-2.559818e-01
6.100852e-01	4.210526e+00	-2.403847e-01
5.354138e-01	4.210526e+00	-2.229691e-01
4.593635e-01	4.210526e+00	-2.042585e-01
3.837764e-01	4.210526e+00	-1.841224e-01
3.103069e-01	4.210526e+00	-1.630077e-01
2.415927e-01	4.210526e+00	-1.409228e-01
1.782654e-01	4.210526e+00	-1.183331e-01
1.234349e-01	4.210526e+00	-9.558566e-02
7.662509e-02	4.210526e+00	-7.318920e-02
4.106998e-02	4.210526e+00	-5.193053e-02
1.528206e-02	4.210526e+00	-3.215886e-02
2.347037e-03	4.210526e+00	-1.488740e-02
0.000000e+00	4.210526e+00	0.000000e+00
1.064939e-02	4.210526e+00	1.066461e-02
3.126595e-02	4.210526e+00	1.703450e-02
6.375031e-02	4.210526e+00	1.787236e-02
1.050105e-01	4.210526e+00	1.417221e-02
1.560448e-01	4.210526e+00	4.777214e-03
2.137742e-01	4.210526e+00	-9.048270e-03
2.782849e-01	4.210526e+00	-2.799567e-02
3.468570e-01	4.210526e+00	-5.051783e-02
4.187060e-01	4.210526e+00	-7.662000e-02
4.916930e-01	4.210526e+00	-1.047585e-01
5.642168e-01	4.210526e+00	-1.343226e-01
6.348639e-01	4.210526e+00	-1.641238e-01
7.013280e-01	4.210526e+00	-1.931337e-01
7.630418e-01	4.210526e+00	-2.206893e-01
8.172084e-01	4.210526e+00	-2.454799e-01
8.641863e-01	4.210526e+00	-2.673591e-01
9.009752e-01	4.210526e+00	-2.848204e-01
9.288372e-01	4.210526e+00	-2.982085e-01
9.448555e-01	4.210526e+00	-3.059908e-01
9.510565e-01	4.210526e+00	-3.090170e-01
9.510565e-01	5.263158e+00	-3.090170e-01
9.442611e-01	5.263158e+00	-3.078203e-01
9.267277e-01	5.263158e+00	-3.047010e-01
8.963175e-01	5.263158e+00	-2.991555e-01
8.562911e-01	5.263158e+00	-2.916579e-01
8.054250e-01	5.263158e+00	-2.817457e-01
7.470317e-01	5.263158e+00	-2.699633e-01
6.809074e-01	5.263158e+00	-2.559818e-01
6.100852e-01	5.263158e+00	-2.403847e-01
5.354138e-01	5.263158e+00	-2.229691e-01
4.593635e-01	5.263158e+00	-2.042585e-01
3.837764e-01	5.263158e+00	-1.841224e-01
3.103069e-01	5.263158e+00	-1.630077e-01
2.415927e-01	5.263158e+00	-1.409228e-01
1.782654e-01	5.263158e+00	-1.183331e-01
1.234349e-01	5.263158e+00	-9.558566e-02
7.662509e-02	5.263158e+00	-7.318920e-02
4.106998e-02	5.263158e+00	-5.193053e-02
1.528206e-02	5.263158e+00	-3.215886e-02
2.347037e-03	5.263158e+00	-1.488740e-02
0.000000e+00	5.263158e+00	0.000000e+00
1.064939e-02	5.263158e+00	1.066461e-02
3.126595e-02	5.263158e+00	1.703450e-02
6.375031e-02	5.263158e+00	1.787236e-02
1.050105e-01	5.263158e+00	1.417221e-02
1.560448e-01	5.263158e+00	4.777214e-03
2.137742e-01	5.263158e+00	-9.048270e-03
2.782849e-01	5.263158e+00	-2.799567e-02
3.468570e-01	5.263158e+00	-5.051783e-02
4.187060e-01	5.263158e+00	-7.662000e-02
4.916930e-01	5.263158e+00	-1.047585e-01
5.642168e-01	5.263158e+00	-1.343226e-01
6.348639e-01	5.263158e+00	-1.641238e-01
7.013280e-01	5.263158e+00	-1.931337e-01
7.630418e-01	5.263158e+00	-2.206893e-01
8.172084e-01	5.263158e+00	-2.454799e-01
8.641863e-01	5.263158e+00	-2.673591e-01
9.009752e-01	5.263158e+00	-2.848204e-01
9.288372e-01	5.263158e+00	-2.982085e-01
9.448555e-01	5.263158e+00	-3.059908e-01
9.510565e-01	5.263158e+00	-3.090170e-01
9.510565e-01	6.315789e+00	-3.090170e-01
9.442611e-01	6.315789e+00	-3.078203e-01
[...]
CELL_DATA 760
VECTORS V double
8.414289e-01	-6.902752e-02	-1.481726e-01
8.655512e-01	-6.885394e-02	-1.539869e-01
8.835679e-01	-6.840420e-02	-1.611270e-01
8.953358e-01	-6.760982e-02	-1.677101e-01
8.978029e-01	-6.644894e-02	-1.749538e-01
8.991178e-01	-6.490390e-02	-1.814207e-01
8.920824e-01	-6.296440e-02	-1.886242e-01
8.847744e-01	-6.060639e-02	-1.948530e-01
8.704427e-01	-5.780140e-02	-2.030136e-01
8.548053e-01	-5.451689e-02	-2.103067e-01
8.295036e-01	-5.072739e-02	-2.209770e-01
7.985854e-01	-4.641870e-02	-2.295085e-01
7.512404e-01	-4.162378e-02	-2.414499e-01
6.892218e-01	-3.639379e-02	-2.458548e-01
6.025784e-01	-3.076667e-02	-2.499907e-01
4.719114e-01	-2.486518e-02	-2.257891e-01
2.702134e-01	-1.869730e-02	-1.615626e-01
-1.734194e-02	-1.242904e-02	1.329612e-02
-4.217220e-01	-5.861870e-03	5.631033e-01
-3.426602e-01	7.181438e-04	2.173515e+00
2.326903e+00	8.430696e-03	2.330228e+00
2.541602e+00	1.519500e-02	7.852776e-01
2.210490e+00	2.214077e-02	5.701455e-02
1.925483e+00	2.898775e-02	-1.726741e-01
1.720152e+00	3.597690e-02	-3.166663e-01
1.570381e+00	4.294314e-02	-3.760868e-01
1.435536e+00	4.988080e-02	-4.216300e-01
1.336724e+00	5.661136e-02	-4.390405e-01
1.250631e+00	6.301665e-02	-4.543442e-01
1.181693e+00	6.889884e-02	-4.555753e-01
1.121867e+00	7.414243e-02	-4.573253e-01
1.071612e+00	7.861033e-02	-4.520402e-01
1.027474e+00	8.224036e-02	-4.484665e-01
9.872006e-01	8.502483e-02	-4.407916e-01
9.499805e-01	8.701512e-02	-4.347793e-01
9.115294e-01	8.830916e-02	-4.245309e-01
8.743631e-01	8.903525e-02	-4.150017e-01
8.341893e-01	8.934243e-02	-4.008432e-01
7.910614e-01	8.938634e-02	-3.843282e-01
7.483106e-01	8.934065e-02	-3.651827e-01
8.268634e-01	-4.834016e-02	-1.456076e-01
8.473531e-01	-4.821587e-02	-1.507493e-01
8.618178e-01	-4.789736e-02	-1.571607e-01
8.705064e-01	-4.733358e-02	-1.630592e-01
8.702606e-01	-4.650190e-02	-1.695866e-01
8.688794e-01	-4.538348e-02	-1.753193e-01
8.588835e-01	-4.396766e-02	-1.816046e-01
8.480175e-01	-4.223945e-02	-1.867581e-01
8.293511e-01	-4.018403e-02	-1.934298e-01
8.083672e-01	-3.778626e-02	-1.988816e-01
7.765845e-01	-3.501640e-02	-2.068795e-01
7.379303e-01	-3.192485e-02	-2.120766e-01
6.816322e-01	-2.848902e-02	-2.190777e-01
6.085883e-01	-2.476398e-02	-2.170917e-01
5.087978e-01	-2.077566e-02	-2.110841e-01
3.608092e-01	-1.660711e-02	-1.726315e-01
1.374164e-01	-1.226009e-02	-8.216227e-02
-1.814461e-01	-7.847997e-03	1.391153e-01
-6.031366e-01	-3.230981e-03	8.053368e-01
-4.198198e-01	1.388074e-03	2.662942e+00
2.682386e+00	6.787724e-03	2.686219e+00
2.844008e+00	1.150332e-02	8.787117e-01
2.433203e+00	1.631700e-02	6.275892e-02
2.097302e+00	2.102587e-02	-1.880826e-01
1.860463e+00	2.578862e-02	-3.424963e-01
1.689630e+00	3.048559e-02	-4.046456e-01
1.539051e+00	3.511100e-02	-4.520334e-01
1.427799e+00	3.954668e-02	-4.689536e-01
1.330711e+00	4.372081e-02	-4.834366e-01
1.251899e+00	4.752574e-02	-4.826414e-01
1.182665e+00	5.085114e-02	-4.821095e-01
1.123335e+00	5.366824e-02	-4.738589e-01
1.070391e+00	5.592735e-02	-4.671988e-01
1.021740e+00	5.763290e-02	-4.562139e-01
9.765898e-01	5.882614e-02	-4.469577e-01
9.307606e-01	5.957790e-02	-4.334876e-01
8.867501e-01	5.997657e-02	-4.208810e-01
8.402938e-01	6.012294e-02	-4.037765e-01
7.917023e-01	6.011930e-02	-3.846396e-01
7.448121e-01	6.007599e-02	-3.634754e-01
8.205685e-01	-2.041069e-02	-1.444991e-01
8.397287e-01	-2.035886e-02	-1.493929e-01
8.527136e-01	-2.022851e-02	-1.555004e-01
8.598745e-01	-1.999250e-02	-1.610677e-01
8.580861e-01	-1.963392e-02	-1.672142e-01
8.551222e-01	-1.913609e-02	-1.725435e-01
8.435016e-01	-1.848927e-02	-1.783522e-01
8.309011e-01	-1.768813e-02	-1.829886e-01
8.103451e-01	-1.670555e-02	-1.889970e-01
7.869583e-01	-1.558539e-02	-1.936144e-01
7.528945e-01	-1.431340e-02	-2.005686e-01
7.116036e-01	-1.290436e-02	-2.045105e-01
6.517874e-01	-1.134832e-02	-2.094855e-01
5.746372e-01	-9.681458e-03	-2.049809e-01
4.698580e-01	-7.913851e-03	-1.949292e-01
3.151190e-01	-6.077959e-03	-1.507708e-01
8.313423e-02	-4.170516e-03	-4.970657e-02
-2.482428e-01	-2.239435e-03	1.903285e-01
-6.766537e-01	-2.238662e-04	9.035004e-01
-4.508593e-01	1.784277e-03	2.859828e+00
2.823481e+00	4.113229e-03	2.827516e+00
2.961728e+00	6.121072e-03	9.150836e-01
2.517823e+00	8.134415e-03	6.494150e-02
2.160598e+00	1.005812e-02	-1.937589e-01
1.910283e+00	1.194844e-02	-3.516678e-01
1.730233e+00	1.375183e-02	-4.143695e-01
1.572744e+00	1.546367e-02	-4.619295e-01
1.456092e+00	1.704335e-02	-4.782462e-01
1.354626e+00	1.847339e-02	-4.921246e-01
1.271675e+00	1.973931e-02	-4.902657e-01
1.198777e+00	2.080449e-02	-4.886777e-01
1.136466e+00	2.166474e-02	-4.793978e-01
1.080539e+00	2.230173e-02	-4.716282e-01
1.029160e+00	2.277330e-02	-4.595270e-01
9.815277e-01	2.307536e-02	-4.492176e-01
9.334841e-01	2.324002e-02	-4.347560e-01
8.875220e-01	2.330249e-02	-4.212474e-01
8.394014e-01	2.330026e-02	-4.033477e-01
7.894779e-01	2.326980e-02	-3.835589e-01
7.416784e-01	2.324301e-02	-3.619461e-01
8.181650e-01	-1.022012e-02	-1.440759e-01
8.367521e-01	-1.019908e-02	-1.488634e-01
8.489818e-01	-1.014280e-02	-1.548199e-01
8.553702e-01	-1.003700e-02	-1.602240e-01
8.527938e-01	-9.871829e-03	-1.661829e-01
8.489910e-01	-9.623977e-03	-1.713063e-01
8.365021e-01	-9.311329e-03	-1.768722e-01
8.226077e-01	-8.913912e-03	-1.811621e-01
8.009800e-01	-8.440640e-03	-1.868127e-01
7.769615e-01	-7.876813e-03	-1.911549e-01
7.415424e-01	-7.237475e-03	-1.975444e-01
6.984161e-01	-6.499999e-03	-2.007205e-01
6.368627e-01	-5.694577e-03	-2.046887e-01
5.575562e-01	-4.818507e-03	-1.988879e-01
4.501534e-01	-3.883823e-03	-1.867544e-01
2.918741e-01	-2.907957e-03	-1.396491e-01
5.542015e-02	-1.894225e-03	-3.313612e-02
-2.823945e-01	-8.607276e-04	2.165127e-01
-7.142450e-01	2.192745e-04	9.536941e-01
-4.666920e-01	1.279276e-03	2.960256e+00
2.895045e+00	2.537747e-03	2.899183e+00
3.020970e+00	3.601284e-03	9.333877e-01
2.560028e+00	4.660234e-03	6.603008e-02
2.191820e+00	5.663163e-03	-1.965588e-01
1.934593e+00	6.642615e-03	-3.561432e-01
1.749835e+00	7.562581e-03	-4.190639e-01
1.588847e+00	8.426877e-03	-4.666590e-01
1.469501e+00	9.223819e-03	-4.826502e-01
1.365839e+00	9.932463e-03	-4.961981e-01
1.281313e+00	1.055148e-02	-4.939814e-01
1.206776e+00	1.108995e-02	-4.919384e-01
1.142478e+00	1.152127e-02	-4.819341e-01
1.085233e+00	1.185936e-02	-4.736770e-01
1.032961e+00	1.209753e-02	-4.612242e-01
9.841930e-01	1.225762e-02	-4.504374e-01
9.351507e-01	1.233862e-02	-4.355322e-01
8.883114e-01	1.238258e-02	-4.216220e-01
8.394627e-01	1.239279e-02	-4.033771e-01
7.889792e-01	1.238596e-02	-3.833165e-01
7.407091e-01	1.237729e-02	-3.614731e-01
8.170375e-01	-5.652240e-03	-1.438773e-01
8.351974e-01	-5.641122e-03	-1.485868e-01
8.470172e-01	-5.609624e-03	-1.544616e-01
8.529654e-01	-5.550261e-03	-1.597735e-01
8.496335e-01	-5.454097e-03	-1.655671e-01
8.453927e-01	-5.313841e-03	-1.705803e-01
8.325193e-01	-5.142527e-03	-1.760300e-01
8.185035e-01	-4.922878e-03	-1.802583e-01
7.963462e-01	-4.658017e-03	-1.857320e-01
7.711623e-01	-4.322321e-03	-1.897281e-01
7.349012e-01	-3.931481e-03	-1.957752e-01
6.910398e-01	-3.495321e-03	-1.986006e-01
6.284354e-01	-3.023913e-03	-2.019802e-01
5.477356e-01	-2.603680e-03	-1.953847e-01
4.387704e-01	-2.060508e-03	-1.820320e-01
2.784795e-01	-1.453132e-03	-1.332404e-01
3.942037e-02	-8.438876e-04	-2.356973e-02
-3.022973e-01	-2.244816e-04	2.317722e-01
-7.358372e-01	4.231265e-04	9.825250e-01
-4.758639e-01	1.067595e-03	3.018433e+00
2.937142e+00	1.810604e-03	2.941340e+00
3.055066e+00	2.445176e-03	9.439222e-01
2.584195e+00	3.073392e-03	6.665342e-02
2.209707e+00	3.663991e-03	-1.981629e-01
1.948377e+00	4.233428e-03	-3.586806e-01
1.760782e+00	4.756576e-03	-4.216855e-01
1.597876e+00	5.242160e-03	-4.693109e-01
1.476947e+00	5.785848e-03	-4.850958e-01
1.371922e+00	6.190032e-03	-4.984084e-01
1.286281e+00	6.528355e-03	-4.958970e-01
1.210922e+00	6.809190e-03	-4.936284e-01
1.146298e+00	7.038589e-03	-4.835454e-01
1.088260e+00	7.236024e-03	-4.749983e-01
1.034930e+00	7.378407e-03	-4.621033e-01
9.854638e-01	7.476511e-03	-4.510190e-01
9.358667e-01	7.524975e-03	-4.358656e-01
8.888550e-01	7.548306e-03	-4.218801e-01
8.396028e-01	7.554728e-03	-4.034444e-01
7.887840e-01	7.550884e-03	-3.832217e-01
7.403513e-01	7.546625e-03	-3.612985e-01
8.162991e-01	-3.275696e-03	-1.437473e-01
8.342387e-01	-3.268681e-03	-1.484162e-01
8.457878e-01	-3.249827e-03	-1.542374e-01
8.513960e-01	-3.213437e-03	-1.594795e-01
8.479614e-01	-3.151820e-03	-1.652412e-01
8.435883e-01	-3.099268e-03	-1.702162e-01
8.304540e-01	-2.982247e-03	-1.755933e-01
8.157076e-01	-2.838482e-03	-1.796425e-01
7.928688e-01	-2.654443e-03	-1.849210e-01
7.674224e-01	-2.422338e-03	-1.888080e-01
7.307335e-01	-2.183158e-03	-1.946650e-01
6.863188e-01	-1.957610e-03	-1.972438e-01
6.244404e-01	-1.643769e-03	-2.006962e-01
5.433093e-01	-1.425852e-03	-1.938058e-01
4.314736e-01	-1.061652e-03	-1.790047e-01
2.694347e-01	-6.842637e-04	-1.289128e-01
2.918093e-02	-2.888682e-04	-1.744750e-02
-3.147981e-01	1.056990e-04	2.413566e-01
-7.499280e-01	5.170644e-04	1.001340e+00
-4.816948e-01	9.405810e-04	3.055419e+00
2.962540e+00	1.394816e-03	2.966774e+00
3.076470e+00	1.796717e-03	9.505353e-01
2.599238e+00	2.192696e-03	6.704143e-02
2.220535e+00	2.562623e-03	-1.991340e-01
1.956485e+00	2.912442e-03	-3.601731e-01
1.767099e+00	3.238792e-03	-4.231984e-01
1.604491e+00	3.652175e-03	-4.712539e-01
1.482593e+00	3.901699e-03	-4.869503e-01
1.375508e+00	4.151858e-03	-4.997109e-01
1.289125e+00	4.370481e-03	-4.969933e-01
1.213165e+00	4.535390e-03	-4.945429e-01
1.147928e+00	4.641023e-03	-4.842330e-01
1.089785e+00	4.735497e-03	-4.756637e-01
1.036444e+00	4.810379e-03	-4.627790e-01
9.865876e-01	4.856371e-03	-4.515334e-01
9.365261e-01	4.917836e-03	-4.361728e-01
8.890389e-01	4.926939e-03	-4.219673e-01
8.396006e-01	4.928834e-03	-4.034434e-01
7.886080e-01	4.925888e-03	-3.831362e-01
7.400569e-01	4.922783e-03	-3.611548e-01
8.158603e-01	-2.027014e-03	-1.436700e-01
8.336806e-01	-2.022987e-03	-1.483169e-01
8.450714e-01	-2.012812e-03	-1.541068e-01
8.504547e-01	-1.994222e-03	-1.593032e-01
8.473563e-01	-1.964111e-03	-1.651233e-01
8.423981e-01	-2.008067e-03	-1.699760e-01
8.284890e-01	-1.885846e-03	-1.751779e-01
8.138307e-01	-1.780988e-03	-1.792292e-01
7.907261e-01	-1.681860e-03	-1.844212e-01
7.649765e-01	-1.540557e-03	-1.882062e-01
7.288241e-01	-1.384316e-03	-1.941563e-01
6.838681e-01	-1.213773e-03	-1.965395e-01
6.209979e-01	-1.014058e-03	-1.995897e-01
5.391789e-01	-7.348549e-04	-1.923325e-01
4.267007e-01	-5.001566e-04	-1.770246e-01
2.642536e-01	-2.935351e-04	-1.264339e-01
2.253152e-02	-5.002293e-05	-1.347177e-02
-3.229135e-01	1.720992e-04	2.475787e-01
-7.588138e-01	4.315159e-04	1.013204e+00
-4.854157e-01	6.880518e-04	3.079021e+00
2.979220e+00	9.827025e-04	2.983478e+00
3.090115e+00	1.232528e-03	9.547515e-01
2.608823e+00	1.472777e-03	6.728864e-02
2.227503e+00	1.730602e-03	-1.997588e-01
1.961934e+00	1.950015e-03	-3.611764e-01
1.773569e+00	2.163019e-03	-4.247478e-01
1.607804e+00	2.360499e-03	-4.722269e-01
1.483881e+00	2.461269e-03	-4.873735e-01
1.378030e+00	2.605371e-03	-5.006271e-01
1.291119e+00	2.741379e-03	-4.977621e-01
1.214312e+00	2.853922e-03	-4.950102e-01
1.148852e+00	2.944074e-03	-4.846227e-01
1.090525e+00	3.042323e-03	-4.759869e-01
1.036685e+00	3.107538e-03	-4.628869e-01
9.871646e-01	3.228085e-03	-4.517975e-01
9.372660e-01	3.219538e-03	-4.365174e-01
8.891267e-01	3.213564e-03	-4.220090e-01
8.395988e-01	3.210600e-03	-4.034426e-01
7.885045e-01	3.207350e-03	-3.830859e-01
7.398758e-01	3.205065e-03	-3.610664e-01
8.156232e-01	-1.128102e-03	-1.436283e-01
8.334118e-01	-1.125271e-03	-1.482691e-01
8.447792e-01	-1.116590e-03	-1.540535e-01
8.501516e-01	-1.125800e-03	-1.592464e-01
8.483771e-01	-1.105976e-03	-1.653222e-01
8.420509e-01	-1.054973e-03	-1.699060e-01
8.269749e-01	-1.014151e-03	-1.748577e-01
8.128135e-01	-9.859729e-04	-1.790052e-01
7.896180e-01	-9.933967e-04	-1.841628e-01
7.635163e-01	-9.135279e-04	-1.878470e-01
7.264621e-01	-8.107693e-04	-1.935271e-01
6.813874e-01	-6.560442e-04	-1.958265e-01
6.178158e-01	-5.762706e-04	-1.985670e-01
5.356304e-01	-3.419484e-04	-1.910667e-01
4.242531e-01	-2.519600e-04	-1.760092e-01
2.611913e-01	-1.239203e-04	-1.249687e-01
1.917406e-02	1.331978e-05	-1.146431e-02
-3.270038e-01	1.553789e-04	2.507148e-01
-7.641861e-01	3.048667e-04	1.020378e+00
-4.876567e-01	4.538417e-04	3.093236e+00
2.989200e+00	6.253066e-04	2.993472e+00
3.097944e+00	7.709668e-04	9.571704e-01
2.615433e+00	9.141334e-04	6.745913e-02
2.232263e+00	1.047788e-03	-2.001857e-01
1.965170e+00	1.175346e-03	-3.617720e-01
1.774124e+00	1.294979e-03	-4.248808e-01
1.608941e+00	1.321440e-03	-4.725609e-01
1.486010e+00	1.431709e-03	-4.880727e-01
1.379160e+00	1.538194e-03	-5.010376e-01
1.292261e+00	1.598137e-03	-4.982023e-01
1.215704e+00	1.665869e-03	-4.955777e-01
1.150328e+00	1.811012e-03	-4.852454e-01
1.091977e+00	1.831437e-03	-4.766205e-01
1.039071e+00	1.872999e-03	-4.639523e-01
9.885136e-01	1.884720e-03	-4.524149e-01
9.362522e-01	1.869856e-03	-4.360452e-01
8.888263e-01	1.872815e-03	-4.218664e-01
8.394132e-01	1.894468e-03	-4.033534e-01
7.883354e-01	1.890931e-03	-3.830038e-01
7.397068e-01	1.889363e-03	-3.609840e-01
8.153853e-01	-1.360750e-03	-1.435864e-01
8.329959e-01	-1.360801e-03	-1.481951e-01
8.452021e-01	-1.361477e-03	-1.541306e-01
8.500996e-01	-1.343692e-03	-1.592367e-01
8.458753e-01	-1.302294e-03	-1.648347e-01
8.408278e-01	-1.225123e-03	-1.696592e-01
8.274374e-01	-1.129012e-03	-1.749555e-01
8.135519e-01	-1.192871e-03	-1.791678e-01
7.897274e-01	-9.743919e-04	-1.841883e-01
7.625781e-01	-1.024798e-03	-1.876162e-01
7.254618e-01	-6.695009e-04	-1.932606e-01
6.807199e-01	-7.593183e-04	-1.956347e-01
6.166987e-01	-3.264943e-04	-1.982080e-01
5.342494e-01	-3.922403e-04	-1.905740e-01
4.231881e-01	6.724903e-05	-1.755674e-01
2.593751e-01	4.073447e-04	-1.240997e-01
1.657301e-02	6.025272e-04	-9.909124e-03
-3.303658e-01	6.503791e-04	2.532924e-01
-7.670552e-01	6.982405e-04	1.024209e+00
-4.888811e-01	7.598707e-04	3.101003e+00
2.994751e+00	8.414216e-04	2.999030e+00
3.102800e+00	9.200693e-04	9.586706e-01
2.617723e+00	1.016805e-03	6.751821e-02
2.233966e+00	1.098773e-03	-2.003383e-01
1.966891e+00	1.033138e-03	-3.620890e-01
1.775972e+00	8.496986e-04	-4.253234e-01
1.609938e+00	4.969985e-04	-4.728537e-01
1.486888e+00	6.287071e-04	-4.883609e-01
1.380189e+00	3.102142e-04	-5.014114e-01
1.292732e+00	4.384620e-04	-4.983838e-01
1.216971e+00	1.423539e-04	-4.960944e-01
1.150993e+00	2.919500e-04	-4.855260e-01
1.091342e+00	3.203466e-05	-4.763436e-01
1.037471e+00	8.724545e-05	-4.632376e-01
9.871425e-01	-1.308153e-04	-4.517873e-01
9.370145e-01	-7.316769e-05	-4.364002e-01
8.896336e-01	-8.764233e-05	-4.222496e-01
8.402960e-01	-9.361348e-05	-4.037776e-01
7.882366e-01	-8.851797e-05	-3.829558e-01
7.396357e-01	-8.743275e-05	-3.609493e-01
8.156319e-01	3.180676e-05	-1.436298e-01
8.334593e-01	1.416116e-05	-1.482776e-01
8.440943e-01	1.253643e-05	-1.539286e-01
8.486089e-01	3.386707e-05	-1.589575e-01
8.459282e-01	3.140438e-05	-1.648450e-01
8.390442e-01	3.012926e-05	-1.692993e-01
8.265982e-01	2.841177e-05	-1.747781e-01
8.104920e-01	2.892150e-05	-1.784939e-01
7.874222e-01	7.126481e-05	-1.836507e-01
7.594884e-01	5.928999e-05	-1.868560e-01
7.229560e-01	5.086876e-05	-1.925931e-01
6.769513e-01	1.781165e-05	-1.945516e-01
6.124894e-01	-8.861828e-06	-1.968551e-01
5.301494e-01	-4.496869e-06	-1.891115e-01
4.110991e-01	2.815239e-05	-1.705520e-01
2.510814e-01	-3.226511e-06	-1.201316e-01
1.361268e-02	1.162438e-06	-8.139126e-03
-3.294604e-01	4.652341e-06	2.525982e-01
-7.671306e-01	6.777099e-06	1.024309e+00
-4.891862e-01	7.883163e-06	3.102938e+00
2.997134e+00	8.444258e-06	3.001417e+00
3.105823e+00	8.497987e-06	9.596047e-01
2.621134e+00	8.099396e-06	6.760618e-02
2.232243e+00	6.839740e-06	-2.001839e-01
1.959951e+00	4.019898e-05	-3.608114e-01
1.764739e+00	3.749815e-05	-4.226332e-01
1.605947e+00	5.004661e-06	-4.716813e-01
1.483218e+00	5.863576e-05	-4.871558e-01
1.376795e+00	4.708771e-05	-5.001784e-01
1.290110e+00	3.619803e-05	-4.973729e-01
1.213842e+00	2.823821e-05	-4.948189e-01
1.149021e+00	-1.582835e-05	-4.846941e-01
1.089117e+00	-1.287164e-05	-4.753723e-01
1.036924e+00	-1.421879e-05	-4.629935e-01
9.856591e-01	-1.341619e-05	-4.511084e-01
9.371771e-01	-1.362960e-05	-4.364760e-01
8.883355e-01	-1.261472e-05	-4.216335e-01
8.393225e-01	-3.508166e-05	-4.033097e-01
7.886844e-01	-3.398751e-05	-3.831734e-01
7.398730e-01	-1.645691e-05	-3.610651e-01
8.183466e-01	1.434737e-03	-1.441078e-01
8.337115e-01	1.434979e-03	-1.483224e-01
8.444025e-01	1.436363e-03	-1.539848e-01
8.497068e-01	1.420539e-03	-1.591631e-01
8.459482e-01	1.381844e-03	-1.648489e-01
8.408799e-01	1.395127e-03	-1.696697e-01
8.274543e-01	1.256583e-03	-1.749591e-01
8.129247e-01	1.318826e-03	-1.790296e-01
7.893321e-01	1.051144e-03	-1.840961e-01
7.628455e-01	1.105694e-03	-1.876820e-01
7.260021e-01	7.596214e-04	-1.934045e-01
6.815184e-01	7.756068e-04	-1.958642e-01
6.170227e-01	3.473122e-04	-1.983121e-01
5.337190e-01	4.403462e-04	-1.903848e-01
4.231001e-01	-5.216974e-05	-1.755309e-01
2.599312e-01	-3.905587e-04	-1.243658e-01
1.640235e-02	-5.855928e-04	-9.807086e-03
-3.305156e-01	-6.082023e-04	2.534072e-01
-7.671501e-01	-6.851846e-04	1.024335e+00
-4.889004e-01	-7.465968e-04	3.101125e+00
2.994777e+00	-8.300848e-04	2.999057e+00
3.102781e+00	-8.824696e-04	9.586646e-01
2.617665e+00	-9.780437e-04	6.751671e-02
2.234862e+00	-1.092175e-03	-2.004187e-01
1.967444e+00	-1.030146e-03	-3.621907e-01
1.775335e+00	-8.180141e-04	-4.251709e-01
1.610322e+00	-4.723274e-04	-4.729663e-01
1.487443e+00	-6.396093e-04	-4.885432e-01
1.379896e+00	-3.326072e-04	-5.013052e-01
1.292494e+00	-3.943205e-04	-4.982921e-01
1.216322e+00	-1.119123e-04	-4.958298e-01
1.150458e+00	-2.097781e-04	-4.853001e-01
1.091366e+00	3.061974e-06	-4.763538e-01
1.037461e+00	-9.751149e-05	-4.632334e-01
9.871530e-01	1.206278e-05	-4.517921e-01
9.370273e-01	-2.144913e-05	-4.364062e-01
8.892127e-01	4.217889e-06	-4.220498e-01
8.395092e-01	1.272277e-05	-4.033995e-01
7.888540e-01	8.181278e-06	-3.832557e-01
7.423204e-01	7.143292e-06	-3.622594e-01
8.155913e-01	1.191585e-03	-1.436226e-01
8.333574e-01	1.206352e-03	-1.482594e-01
8.446827e-01	1.199207e-03	-1.540359e-01
8.500335e-01	1.193659e-03	-1.592243e-01
8.463423e-01	1.082444e-03	-1.649257e-01
8.413749e-01	1.058426e-03	-1.697696e-01
8.276219e-01	9.853441e-04	-1.749945e-01
8.135564e-01	9.675549e-04	-1.791688e-01
7.902115e-01	9.428047e-04	-1.843012e-01
7.633405e-01	8.642736e-04	-1.878037e-01
7.273003e-01	7.759140e-04	-1.937504e-01
6.823328e-01	7.058425e-04	-1.960982e-01
6.173834e-01	6.257411e-04	-1.984280e-01
5.356725e-01	4.770381e-04	-1.910817e-01
4.248000e-01	3.428302e-04	-1.762361e-01
2.611546e-01	2.361478e-04	-1.249511e-01
1.869365e-02	8.802930e-05	-1.117707e-02
-3.271283e-01	-6.209642e-05	2.508102e-01
-7.632225e-01	-2.177185e-04	1.019091e+00
-4.876420e-01	-3.715880e-04	3.093143e+00
2.990655e+00	-5.480377e-04	2.994928e+00
3.098925e+00	-6.976739e-04	9.574733e-01
2.614258e+00	-8.444609e-04	6.742882e-02
2.231458e+00	-9.806124e-04	-2.001135e-01
1.965731e+00	-1.144553e-03	-3.618754e-01
1.774456e+00	-1.261903e-03	-4.249604e-01
1.608275e+00	-1.370008e-03	-4.723651e-01
1.485368e+00	-1.500086e-03	-4.878617e-01
1.379898e+00	-1.584141e-03	-5.013059e-01
1.292922e+00	-1.648068e-03	-4.984571e-01
1.216176e+00	-1.700803e-03	-4.957701e-01
1.150412e+00	-1.777147e-03	-4.852805e-01
1.090744e+00	-1.798692e-03	-4.760825e-01
1.036907e+00	-1.804430e-03	-4.629860e-01
9.870257e-01	-1.826275e-03	-4.517339e-01
9.369300e-01	-1.847649e-03	-4.363609e-01
8.891644e-01	-1.765257e-03	-4.220269e-01
8.395186e-01	-1.775693e-03	-4.034040e-01
7.883711e-01	-1.775453e-03	-3.830211e-01
7.397141e-01	-1.791997e-03	-3.609875e-01
8.158683e-01	1.717002e-03	-1.436714e-01
8.336883e-01	1.706111e-03	-1.483183e-01
8.448140e-01	1.582515e-03	-1.540599e-01
8.529369e-01	1.675425e-03	-1.597682e-01
8.485036e-01	1.703145e-03	-1.653469e-01
8.426085e-01	1.712902e-03	-1.700185e-01
8.288105e-01	1.672132e-03	-1.752458e-01
8.135319e-01	1.610107e-03	-1.791634e-01
7.907377e-01	1.540290e-03	-1.844239e-01
7.650366e-01	1.420115e-03	-1.882210e-01
7.280749e-01	1.273972e-03	-1.939567e-01
6.835190e-01	1.190298e-03	-1.964391e-01
6.201741e-01	9.849054e-04	-1.993250e-01
5.379391e-01	7.877292e-04	-1.918902e-01