# vtk DataFile Version 2.0
OUTPUT by 3D-VPM
ASCII
DATASET UNSTRUCTURED_GRID
POINTS 820 double
9.510565e-01	0.000000e+00	-3.090170e-01
9.442611e-01	0.000000e+00	-3.078203e-01
9.267277e-01	0.000000e+00	-3.047010e-01
8.963175e-01	0.000000e+00	-2.991555e-01
8.562911e-01	0.000000e+00	-2.916579e-01
8.054250e-01	0.000000e+00	-2.817457e-01
7.470317e-01	0.000000e+00	-2.699633e-01
6.809074e-01	0.000000e+00	-2.559818e-01
6.100852e-01	0.000000e+00	-2.403847e-01
5.354138e-01	0.000000e+00	-2.229691e-01
4.593635e-01	0.000000e+00	-2.042585e-01
3.837764e-01	0.000000e+00	-1.841224e-01
3.103069e-01	0.000000e+00	-1.630077e-01
2.415927e-01	0.000000e+00	-1.409228e-01
1.782654e-01	0.000000e+00	-1.183331e-01
1.234349e-01	0.000000e+00	-9.558566e-02
7.662509e-02	0.000000e+00	-7.318920e-02
4.106998e-02	0.000000e+00	-5.193053e-02
1.528206e-02	0.000000e+00	-3.215886e-02
2.347037e-03	0.000000e+00	-1.488740e-02
0.000000e+00	0.000000e+00	0.000000e+00
1.064939e-02	0.000000e+00	1.066461e-02
3.126595e-02	0.000000e+00	1.703450e-02
6.375031e-02	0.000000e+00	1.787236e-02
1.050105e-01	0.000000e+00	1.417221e-02
1.560448e-01	0.000000e+00	4.777214e-03
2.137742e-01	0.000000e+00	-9.048270e-03
2.782849e-01	0.000000e+00	-2.799567e-02
3.468570e-01	0.000000e+00	-5.051783e-02
4.187060e-01	0.000000e+00	-7.662000e-02
4.916930e-01	0.000000e+00	-1.047585e-01
5.642168e-01	0.000000e+00	-1.343226e-01
6.348639e-01	0.000000e+00	-1.641238e-01
7.013280e-01	0.000000e+00	-1.931337e-01
7.630418e-01	0.000000e+00	-2.206893e-01
8.172084e-01	0.000000e+00	-2.454799e-01
8.641863e-01	0.000000e+00	-2.673591e-01
9.009752e-01	0.000000e+00	-2.848204e-01
9.288372e-01	0.000000e+00	-2.982085e-01
9.448555e-01	0.000000e+00	-3.059908e-01
9.510565e-01	0.000000e+00	-3.090170e-01
9.510565e-01	1.052632e+00	-3.090170e-01
9.442611e-01	1.052632e+00	-3.078203e-01
9.267277e-01	1.052632e+00	-3.047010e-01
8.963175e-01	1.052632e+00	-2.991555e-01
8.562911e-01	1.052632e+00	-2.916579e-01
8.054250e-01	1.052632e+00	-2.817457e-01
7.470317e-01	1.052632e+00	-2.699633e-01
6.809074e-01	1.052632e+00	-2.559818e-01
6.100852e-01	1.052632e+00	-2.403847e-01
5.354138e-01	1.052632e+00	-2.229691e-01
4.593635e-01	1.052632e+00	-2.042585e-01
3.837764e-01	1.052632e+00	-1.841224e-01
3.103069e-01	1.052632e+00	-1.630077e-01
2.415927e-01	1.052632e+00	-1.409228e-01
1.782654e-01	1.052632e+00	-1.183331e-01
1.234349e-01	1.052632e+00	-9.558566e-02
7.662509e-02	1.052632e+00	-7.318920e-02
4.106998e-02	1.052632e+00	-5.193053e-02
1.528206e-02	1.052632e+00	-3.215886e-02
2.347037e-03	1.052632e+00	-1.488740e-02
0.000000e+00	1.052632e+00	0.000000e+00
1.064939e-02	1.052632e+00	1.066461e-02
3.126595e-02	1.052632e+00	1.703450e-02
6.375031e-02	1.052632e+00	1.787236e-02
1.050105e-01	1.052632e+00	1.417221e-02
1.560448e-01	1.052632e+00	4.777214e-03
2.137742e-01	1.052632e+00	-9.048270e-03
2.782849e-01	1.052632e+00	-2.799567e-02
3.468570e-01	1.052632e+00	-5.051783e-02
4.187060e-01	1.052632e+00	-7.662000e-02
4.916930e-01	1.052632e+00	-1.047585e-01
5.642168e-01	1.052632e+00	-1.343226e-01
6.348639e-01	1.052632e+00	-1.641238e-01
7.013280e-01	1.052632e+00	-1.931337e-01
7.630418e-01	1.052632e+00	-2.206893e-01
8.172084e-01	1.052632e+00	-2.454799e-01
8.641863e-01	1.052632e+00	-2.673591e-01
9.009752e-01	1.052632e+00	-2.848204e-01
9.288372e-01	1.052632e+00	-2.982085e-01
9.448555e-01	1.052632e+00	-3.059908e-01
9.510565e-01	1.052632e+00	-3.090170e-01
9.510565e-01	2.105263e+00	-3.090170e-01
9.442611e-01	2.105263e+00	-3.078203e-01
9.267277e-01	2.105263e+00	-3.047010e-01
8.963175e-01	2.105263e+00	-2.991555e-01
8.562911e-01	2.105263e+00	-2.916579e-01
8.054250e-01	2.105263e+00	-2.817457e-01
7.470317e-01	2.105263e+00	-2.699633e-01
6.809074e-01	2.105263e+00	-2.559818e-01
6.100852e-01	2.105263e+00	-2.403847e-01
5.354138e-01	2.105263e+00	-2.229691e-01
4.593635e-01	2.105263e+00	-2.042585e-01
3.837764e-01	2.105263e+00	-1.841224e-01
3.103069e-01	2.105263e+00	-1.630077e-01
2.415927e-01	2.105263e+00	-1.409228e-01
1.782654e-01	2.105263e+00	-1.183331e-01
1.234349e-01	2.105263e+00	-9.558566e-02
7.662509e-02	2.105263e+00	-7.318920e-02
4.106998e-02	2.105263e+00	-5.193053e-02
1.528206e-02	2.105263e+00	-3.215886e-02
2.347037e-03	2.105263e+00	-1.488740e-02
0.000000e+00	2.105263e+00	0.000000e+00
1.064939e-02	2.105263e+00	1.066461e-02
3.126595e-02	2.105263e+00	1.703450e-02
6.375031e-02	2.105263e+00	1.787236e-02
1.050105e-01	2.105263e+00	1.417221e-02
1.560448e-01	2.105263e+00	4.777214e-03
2.137742e-01	2.105263e+00	-9.048270e-03
2.782849e-01	2.105263e+00	-2.799567e-02
3.468570e-01	2.105263e+00	-5.051783e-02
4.187060e-01	2.105263e+00	-7.662000e-02
4.916930e-01	2.105263e+00	-1.047585e-01
5.642168e-01	2.105263e+00	-1.343226e-01
6.348639e-01	2.105263e+00	-1.641238e-01
7.013280e-01	2.105263e+00	-1.931337e-01
7.630418e-01	2.105263e+00	-2.206893e-01
8.172084e-01	2.105263e+00	-2.454799e-01
8.641863e-01	2.105263e+00	-2.673591e-01
9.009752e-01	2.105263e+00	-2.848204e-01
9.288372e-01	2.105263e+00	-2.982085e-01
9.448555e-01	2.105263e+00	-3.059908e-01
9.510565e-01	2.105263e+00	-3.090170e-01
9.510565e-01	3.157895e+00	-3.090170e-01
9.442611e-01	3.157895e+00	-3.078203e-01
9.267277e-01	3.157895e+00	-3.047010e-01
8.963175e-01	3.157895e+00	-2.991555e-01
8.562911e-01	3.157895e+00	-2.916579e-01
8.054250e-01	3.157895e+00	-2.817457e-01
7.470317e-01	3.157895e+00	-2.699633e-01
6.809074e-01	3.157895e+00	-2.559818e-01
6.100852e-01	3.157895e+00	-2.403847e-01
5.354138e-01	3.157895e+00	-2.229691e-01
4.593635e-01	3.157895e+00	-2.042585e-01
3.837764e-01	3.157895e+00	-1.841224e-01
3.103069e-01	3.157895e+00	-1.630077e-01
2.415927e-01	3.157895e+00	-1.409228e-01
1.782654e-01	3.157895e+00	-1.183331e-01
1.234349e-01	3.157895e+00	-9.558566e-02
7.662509e-02	3.157895e+00	-7.318920e-02
4.106998e-02	3.157895e+00	-5.193053e-02
1.528206e-02	3.157895e+00	-3.215886e-02
2.347037e-03	3.157895e+00	-1.488740e-02
0.000000e+00	3.157895e+00	0.000000e+00
1.064939e-02	3.157895e+00	1.066461e-02
3.126595e-02	3.157895e+00	1.703450e-02
6.375031e-02	3.157895e+00	1.787236e-02
1.050105e-01	3.157895e+00	1.417221e-02
1.560448e-01	3.157895e+00	4.777214e-03
2.137742e-01	3.157895e+00	-9.048270e-03
2.782849e-01	3.157895e+00	-2.799567e-02
3.468570e-01	3.157895e+00	-5.051783e-02
4.187060e-01	3.157895e+00	-7.662000e-02
4.916930e-01	3.157895e+00	-1.047585e-01
5.642168e-01	3.157895e+00	-1.343226e-01
6.348639e-01	3.157895e+00	-1.641238e-01
7.013280e-01	3.157895e+00	-1.931337e-01
7.630418e-01	3.157895e+00	-2.206893e-01
8.172084e-01	3.157895e+00	-2.454799e-01
8.641863e-01	3.157895e+00	-2.673591e-01
9.009752e-01	3.157895e+00	-2.848204e-01
9.288372e-01	3.157895e+00	-2.982085e-01
9.448555e-01	3.157895e+00	-3.059908e-01
9.510565e-01	3.157895e+00	-3.090170e-01
9.510565e-01	4.210526e+00	-3.090170e-01
9.442611e-01	4.210526e+00	-3.078203e-01
9.267277e-01	4.210526e+00	-3.047010e-01
8.963175e-01	4.210526e+00	-2.991555e-01
8.562911e-01	4.210526e+00	-2.916579e-01
8.054250e-01	4.210526e+00	-2.817457e-01
7.470317e-01	4.210526e+00	-2.699633e-01
6.809074e-01	4.210526e+00	-2.559818e-01
6.100852e-01	4.210526e+00	-2.403847e-01
5.354138e-01	4.210526e+00	-2.229691e-01
4.593635e-01	4.210526e+00	-2.042585e-01
3.837764e-01	4.210526e+00	-1.841224e-01
3.103069e-01	4.210526e+00	-1.630077e-01
2.415927e-01	4.210526e+00	-1.409228e-01
1.782654e-01	4.210526e+00	-1.183331e-01
1.234349e-01	4.210526e+00	-9.558566e-02
7.662509e-02	4.210526e+00	-7.318920e-02
4.106998e-02	4.210526e+00	-5.193053e-02
1.528206e-02	4.210526e+00	-3.215886e-02
2.347037e-03	4.210526e+00	-1.488740e-02
0.000000e+00	4.210526e+00	0.000000e+00
1.064939e-02	4.210526e+00	1.066461e-02
3.126595e-02	4.210526e+00	1.703450e-02
6.375031e-02	4.210526e+00	1.787236e-02
1.050105e-01	4.210526e+00	1.417221e-02
1.560448e-01	4.210526e+00	4.777214e-03
2.137742e-01	4.210526e+00	-9.048270e-03
2.782849e-01	4.210526e+00	-2.799567e-02
3.468570e-01	4.210526e+00	-5.051783e-02
4.187060e-01	4.210526e+00	-7.662000e-02
4.916930e-01	4.210526e+00	-1.047585e-01
5.642168e-01	4.210526e+00	-1.343226e-01
6.348639e-01	4.210526e+00	-1.641238e-01
7.013280e-01	4.210526e+00	-1.931337e-01
7.630418e-01	4.210526e+00	-2.206893e-01
8.172084e-01	4.210526e+00	-2.454799e-01
8.641863e-01	4.210526e+00	-2.673591e-01
9.009752e-01	4.210526e+00	-2.848204e-01
9.288372e-01	4.210526e+00	-2.982085e-01
9.448555e-01	4.210526e+00	-3.059908e-01
9.510565e-01	4.210526e+00	-3.090170e-01
9.510565e-01	5.263158e+00	-3.090170e-01
9.442611e-01	5.263158e+00	-3.078203e-01
9.267277e-01	5.263158e+00	-3.047010e-01
8.963175e-01	5.263158e+00	-2.991555e-01
8.562911e-01	5.263158e+00	-2.916579e-01
8.054250e-01	5.263158e+00	-2.817457e-01
7.470317e-01	5.263158e+00	-2.699633e-01
6.809074e-01	5.263158e+00	-2.559818e-01
6.100852e-01	5.263158e+00	-2.403847e-01
5.354138e-01	5.263158e+00	-2.229691e-01
4.593635e-01	5.263158e+00	-2.042585e-01
3.837764e-01	5.263158e+00	-1.841224e-01
3.103069e-01	5.263158e+00	-1.630077e-01
2.415927e-01	5.263158e+00	-1.409228e-01
1.782654e-01	5.263158e+00	-1.183331e-01
1.234349e-01	5.263158e+00	-9.558566e-02
7.662509e-02	5.263158e+00	-7.318920e-02
4.106998e-02	5.263158e+00	-5.193053e-02
1.528206e-02	5.263158e+00	-3.215886e-02
2.347037e-03	5.263158e+00	-1.488740e-02
0.000000e+00	5.263158e+00	0.000000e+00
1.064939e-02	5.263158e+00	1.066461e-02
3.126595e-02	5.263158e+00	1.703450e-02
6.375031e-02	5.263158e+00	1.787236e-02
1.050105e-01	5.263158e+00	1.417221e-02
1.560448e-01	5.263158e+00	4.777214e-03
2.137742e-01	5.263158e+00	-9.048270e-03
2.782849e-01	5.263158e+00	-2.799567e-02
3.468570e-01	5.263158e+00	-5.051783e-02
4.187060e-01	5.263158e+00	-7.662000e-02
4.916930e-01	5.263158e+00	-1.047585e-01
5.642168e-01	5.263158e+00	-1.343226e-01
6.348639e-01	5.263158e+00	-1.641238e-01
7.013280e-01	5.263158e+00	-1.931337e-01
7.630418e-01	5.263158e+00	-2.206893e-01
8.172084e-01	5.263158e+00	-2.454799e-01
8.641863e-01	5.263158e+00	-2.673591e-01
9.009752e-01	5.263158e+00	-2.848204e-01
9.288372e-01	5.263158e+00	-2.982085e-01
9.448555e-01	5.263158e+00	-3.059908e-01
9.510565e-01	5.263158e+00	-3.090170e-01
9.510565e-01	6.315789e+00	-3.090170e-01
9.442611e-01	6.315789e+00	-3.078203e-01
[...]
CELL_DATA 760
VECTORS V double
8.414216e-01	-6.903702e-02	-1.481713e-01
8.655422e-01	-6.886345e-02	-1.539853e-01
8.835565e-01	-6.841369e-02	-1.611249e-01
8.953217e-01	-6.761930e-02	-1.677075e-01
8.977858e-01	-6.645838e-02	-1.749504e-01
8.990973e-01	-6.491329e-02	-1.814166e-01
8.920585e-01	-6.297372e-02	-1.886192e-01
8.847471e-01	-6.061559e-02	-1.948470e-01
8.704119e-01	-5.781041e-02	-2.030064e-01
8.547709e-01	-5.452559e-02	-2.102982e-01
8.294648e-01	-5.073562e-02	-2.209666e-01
7.985415e-01	-4.642629e-02	-2.294959e-01
7.511906e-01	-4.163058e-02	-2.414339e-01
6.891639e-01	-3.639966e-02	-2.458342e-01
6.025100e-01	-3.077147e-02	-2.499624e-01
4.718286e-01	-2.486888e-02	-2.257495e-01
2.701121e-01	-1.869987e-02	-1.615021e-01
-1.746941e-02	-1.243050e-02	1.339385e-02
-4.218644e-01	-5.862214e-03	5.632935e-01
-3.427206e-01	7.188423e-04	2.173897e+00
2.327173e+00	8.432542e-03	2.330499e+00
2.541822e+00	1.519779e-02	7.853455e-01
2.210642e+00	2.214446e-02	5.701848e-02
1.925591e+00	2.899227e-02	-1.726839e-01
1.720233e+00	3.598224e-02	-3.166812e-01
1.570442e+00	4.294927e-02	-3.761015e-01
1.435583e+00	4.988770e-02	-4.216439e-01
1.336760e+00	5.661907e-02	-4.390523e-01
1.250658e+00	6.302519e-02	-4.543540e-01
1.181713e+00	6.890825e-02	-4.555829e-01
1.121881e+00	7.415272e-02	-4.573310e-01
1.071621e+00	7.862150e-02	-4.520442e-01
1.027480e+00	8.225234e-02	-4.484691e-01
9.872040e-01	8.503750e-02	-4.407932e-01
9.499818e-01	8.702834e-02	-4.347799e-01
9.115290e-01	8.832280e-02	-4.245308e-01
8.743613e-01	8.904916e-02	-4.150009e-01
8.341864e-01	8.935652e-02	-4.008418e-01
7.910577e-01	8.940050e-02	-3.843264e-01
7.483063e-01	8.935483e-02	-3.651806e-01
8.268562e-01	-4.834598e-02	-1.456064e-01
8.473437e-01	-4.822167e-02	-1.507477e-01
8.618059e-01	-4.790315e-02	-1.571585e-01
8.704916e-01	-4.733933e-02	-1.630564e-01
8.702425e-01	-4.650759e-02	-1.695831e-01
8.688578e-01	-4.538911e-02	-1.753150e-01
8.588582e-01	-4.397321e-02	-1.815992e-01
8.479880e-01	-4.224487e-02	-1.867516e-01
8.293169e-01	-4.018929e-02	-1.934218e-01
8.083277e-01	-3.779127e-02	-1.988719e-01
7.765385e-01	-3.502105e-02	-2.068673e-01
7.378769e-01	-3.192909e-02	-2.120613e-01
6.815703e-01	-2.849274e-02	-2.190578e-01
6.085156e-01	-2.476710e-02	-2.170658e-01
5.087118e-01	-2.077811e-02	-2.110484e-01
3.607057e-01	-1.660886e-02	-1.725821e-01
1.372911e-01	-1.226111e-02	-8.208738e-02
-1.816021e-01	-7.848306e-03	1.392348e-01
-6.033089e-01	-3.230574e-03	8.055668e-01
-4.198920e-01	1.389163e-03	2.663400e+00
2.682708e+00	6.789574e-03	2.686541e+00
2.844268e+00	1.150580e-02	8.787921e-01
2.433383e+00	1.632009e-02	6.276357e-02
2.097431e+00	2.102953e-02	-1.880942e-01
1.860559e+00	2.579283e-02	-3.425141e-01
1.689705e+00	3.049033e-02	-4.046635e-01
1.539110e+00	3.511625e-02	-4.520508e-01
1.427847e+00	3.955245e-02	-4.689692e-01
1.330749e+00	4.372709e-02	-4.834504e-01
1.251929e+00	4.753253e-02	-4.826533e-01
1.182690e+00	5.085842e-02	-4.821197e-01
1.123355e+00	5.367601e-02	-4.738674e-01
1.070407e+00	5.593554e-02	-4.672058e-01
1.021753e+00	5.764144e-02	-4.562194e-01
9.765990e-01	5.883494e-02	-4.469619e-01
9.307669e-01	5.958690e-02	-4.334905e-01
8.867536e-01	5.998569e-02	-4.208826e-01
8.402950e-01	6.013212e-02	-4.037770e-01
7.917015e-01	6.012850e-02	-3.846391e-01
7.448098e-01	6.008520e-02	-3.634743e-01
8.205600e-01	-2.041182e-02	-1.444976e-01
8.397180e-01	-2.035998e-02	-1.493910e-01
8.527003e-01	-2.022961e-02	-1.554980e-01
8.598582e-01	-1.999356e-02	-1.610646e-01
8.580665e-01	-1.963493e-02	-1.672104e-01
8.550990e-01	-1.913704e-02	-1.725388e-01
8.434746e-01	-1.849014e-02	-1.783465e-01
8.308697e-01	-1.768891e-02	-1.829816e-01
8.103088e-01	-1.670620e-02	-1.889885e-01
7.869158e-01	-1.558592e-02	-1.936039e-01
7.528456e-01	-1.431378e-02	-2.005555e-01
7.115473e-01	-1.290461e-02	-2.044943e-01
6.517220e-01	-1.134840e-02	-2.094645e-01
5.745604e-01	-9.681353e-03	-2.049535e-01
4.697674e-01	-7.913553e-03	-1.948916e-01
3.150100e-01	-6.077459e-03	-1.507186e-01
8.300227e-02	-4.169805e-03	-4.962767e-02
-2.484069e-01	-2.238510e-03	1.904543e-01
-6.768349e-01	-2.227203e-04	9.037423e-01
-4.509353e-01	1.785643e-03	2.860310e+00
2.823820e+00	4.114849e-03	2.827855e+00
2.962002e+00	6.122910e-03	9.151684e-01
2.518013e+00	8.136469e-03	6.494641e-02
2.160734e+00	1.006038e-02	-1.937711e-01
1.910385e+00	1.195090e-02	-3.516867e-01
1.730313e+00	1.375447e-02	-4.143885e-01
1.572807e+00	1.546648e-02	-4.619479e-01
1.456142e+00	1.704632e-02	-4.782627e-01
1.354666e+00	1.847647e-02	-4.921392e-01
1.271707e+00	1.974252e-02	-4.902781e-01
1.198804e+00	2.080777e-02	-4.886884e-01
1.136487e+00	2.166807e-02	-4.794067e-01
1.080555e+00	2.230507e-02	-4.716353e-01
1.029173e+00	2.277665e-02	-4.595325e-01
9.815365e-01	2.307870e-02	-4.492216e-01
9.334897e-01	2.324333e-02	-4.347586e-01
8.875247e-01	2.330579e-02	-4.212487e-01
8.394016e-01	2.330354e-02	-4.033478e-01
7.894760e-01	2.327307e-02	-3.835579e-01
7.416749e-01	2.324627e-02	-3.619444e-01
8.181562e-01	-1.021982e-02	-1.440743e-01
8.367410e-01	-1.019878e-02	-1.488614e-01
8.489679e-01	-1.014249e-02	-1.548174e-01
8.553532e-01	-1.003668e-02	-1.602208e-01
8.527735e-01	-9.871490e-03	-1.661790e-01
8.489671e-01	-9.623596e-03	-1.713015e-01
8.364742e-01	-9.310915e-03	-1.768663e-01
8.225752e-01	-8.913457e-03	-1.811550e-01
8.009424e-01	-8.440136e-03	-1.868040e-01
7.769184e-01	-7.876267e-03	-1.911443e-01
7.414927e-01	-7.236901e-03	-1.975312e-01
6.983586e-01	-6.499355e-03	-2.007040e-01
6.367959e-01	-5.693873e-03	-2.046672e-01
5.574778e-01	-4.817722e-03	-1.988599e-01
4.500610e-01	-3.882958e-03	-1.867161e-01
2.917630e-01	-2.907018e-03	-1.395960e-01
5.528585e-02	-1.893262e-03	-3.305582e-02
-2.825616e-01	-8.598117e-04	2.166408e-01
-7.144295e-01	2.198246e-04	9.539404e-01
-4.667694e-01	1.294418e-03	2.960746e+00
2.895390e+00	2.536475e-03	2.899528e+00
3.021250e+00	3.601151e-03	9.334740e-01
2.560222e+00	4.660712e-03	6.603508e-02
2.191959e+00	5.664039e-03	-1.965713e-01
1.934698e+00	6.643766e-03	-3.561624e-01
1.749916e+00	7.563903e-03	-4.190833e-01
1.588911e+00	8.428324e-03	-4.666778e-01
1.469552e+00	9.225377e-03	-4.826670e-01
1.365880e+00	9.934091e-03	-4.962131e-01
1.281346e+00	1.055318e-02	-4.939942e-01
1.206803e+00	1.109169e-02	-4.919492e-01
1.142499e+00	1.152305e-02	-4.819430e-01
1.085249e+00	1.186116e-02	-4.736841e-01
1.032974e+00	1.209934e-02	-4.612297e-01
9.842018e-01	1.225944e-02	-4.504414e-01
9.351563e-01	1.234042e-02	-4.355348e-01
8.883141e-01	1.238439e-02	-4.216233e-01
8.394628e-01	1.239459e-02	-4.033772e-01
7.889772e-01	1.238776e-02	-3.833156e-01
7.407055e-01	1.237909e-02	-3.614713e-01
8.170287e-01	-5.651145e-03	-1.438758e-01
8.351862e-01	-5.640028e-03	-1.485848e-01
8.470031e-01	-5.608530e-03	-1.544591e-01
8.529483e-01	-5.549171e-03	-1.597703e-01
8.496127e-01	-5.453007e-03	-1.655630e-01
8.453683e-01	-5.312752e-03	-1.705754e-01
8.324911e-01	-5.141448e-03	-1.760241e-01
8.184708e-01	-4.921818e-03	-1.802511e-01
7.963087e-01	-4.656978e-03	-1.857233e-01
7.711190e-01	-4.321280e-03	-1.897175e-01
7.348510e-01	-3.930443e-03	-1.957618e-01
6.909818e-01	-3.494282e-03	-1.985839e-01
6.283680e-01	-3.022901e-03	-2.019585e-01
5.476563e-01	-2.602705e-03	-1.953565e-01
4.386773e-01	-2.059552e-03	-1.819933e-01
2.783685e-01	-1.452132e-03	-1.331873e-01
3.928871e-02	-8.428989e-04	-2.349101e-02
-3.024520e-01	-2.235046e-04	2.318908e-01
-7.363266e-01	4.240913e-04	9.831784e-01
-4.759795e-01	1.068547e-03	3.019167e+00
2.936875e+00	1.811543e-03	2.941072e+00
3.055412e+00	2.446102e-03	9.440293e-01
2.584417e+00	3.074307e-03	6.665915e-02
2.209859e+00	3.664893e-03	-1.981765e-01
1.948488e+00	4.234325e-03	-3.587011e-01
1.760866e+00	4.757419e-03	-4.217058e-01
1.597942e+00	5.242990e-03	-4.693303e-01
1.476999e+00	5.786698e-03	-4.851131e-01
1.371965e+00	6.190896e-03	-4.984236e-01
1.286315e+00	6.529203e-03	-4.959100e-01
1.210949e+00	6.810032e-03	-4.936395e-01
1.146320e+00	7.039414e-03	-4.835546e-01
1.088277e+00	7.236857e-03	-4.750056e-01
1.034943e+00	7.379246e-03	-4.621089e-01
9.854725e-01	7.477349e-03	-4.510230e-01
9.358720e-01	7.525801e-03	-4.358681e-01
8.888577e-01	7.549126e-03	-4.218813e-01
8.396028e-01	7.555545e-03	-4.034445e-01
7.887820e-01	7.551700e-03	-3.832207e-01
7.403477e-01	7.547442e-03	-3.612968e-01
8.162904e-01	-3.260842e-03	-1.437458e-01
8.342277e-01	-3.267825e-03	-1.484143e-01
8.457740e-01	-3.248586e-03	-1.542349e-01
8.513792e-01	-3.212153e-03	-1.594764e-01
8.479412e-01	-3.150537e-03	-1.652373e-01
8.435645e-01	-3.098054e-03	-1.702114e-01
8.304266e-01	-2.981068e-03	-1.755876e-01
8.156755e-01	-2.837362e-03	-1.796355e-01
7.928315e-01	-2.653371e-03	-1.849123e-01
7.673793e-01	-2.421265e-03	-1.887974e-01
7.306838e-01	-2.182150e-03	-1.946517e-01
6.862616e-01	-1.956726e-03	-1.972274e-01
6.243745e-01	-1.642925e-03	-2.006750e-01
5.432318e-01	-1.425092e-03	-1.937782e-01
4.313809e-01	-1.060935e-03	-1.789663e-01
2.693229e-01	-6.835734e-04	-1.288593e-01
2.904712e-02	-2.881595e-04	-1.736749e-02
-3.149646e-01	1.065050e-04	2.414842e-01
-7.501117e-01	5.182882e-04	1.001585e+00
-4.817718e-01	9.272646e-04	3.055908e+00
2.962884e+00	1.397972e-03	2.967118e+00
3.076748e+00	1.798785e-03	9.506213e-01
2.599432e+00	2.194203e-03	6.704641e-02
2.220674e+00	2.563779e-03	-1.991464e-01
1.956588e+00	2.913368e-03	-3.601921e-01
1.767179e+00	3.239582e-03	-4.232175e-01
1.604555e+00	3.652894e-03	-4.712727e-01
1.482644e+00	3.902315e-03	-4.869672e-01
1.375549e+00	4.152418e-03	-4.997258e-01
1.289158e+00	4.370995e-03	-4.970059e-01
1.213192e+00	4.535848e-03	-4.945537e-01
1.147949e+00	4.641354e-03	-4.842417e-01
1.089801e+00	4.735783e-03	-4.756708e-01
1.036456e+00	4.810621e-03	-4.627846e-01
9.865962e-01	4.856572e-03	-4.515373e-01
9.365314e-01	4.918046e-03	-4.361752e-01
8.890413e-01	4.927110e-03	-4.219685e-01
8.396006e-01	4.928940e-03	-4.034434e-01
7.886059e-01	4.925601e-03	-3.831352e-01
7.400533e-01	4.936496e-03	-3.611531e-01
8.182007e-01	-2.026363e-03	-1.440822e-01
8.341238e-01	-2.022344e-03	-1.483958e-01
8.450454e-01	-2.012203e-03	-1.541021e-01
8.504366e-01	-1.993680e-03	-1.592998e-01
8.473370e-01	-1.963679e-03	-1.651196e-01
8.423755e-01	-2.007809e-03	-1.699715e-01
8.284623e-01	-1.885807e-03	-1.751722e-01
8.137995e-01	-1.781274e-03	-1.792223e-01
7.906891e-01	-1.682612e-03	-1.844126e-01
7.649339e-01	-1.541913e-03	-1.881958e-01
7.287763e-01	-1.386562e-03	-1.941436e-01
6.838123e-01	-1.217412e-03	-1.965234e-01
6.209323e-01	-1.019788e-03	-1.995686e-01
5.391016e-01	-7.421424e-04	-1.923049e-01
4.266087e-01	-5.068130e-04	-1.769865e-01
2.641429e-01	-2.994028e-04	-1.263809e-01
2.239759e-02	-5.587832e-05	-1.339168e-02
-3.230802e-01	1.664812e-04	2.477065e-01
-7.589978e-01	4.275314e-04	1.013450e+00
-4.854929e-01	6.862101e-04	3.079511e+00
2.979564e+00	9.829022e-04	2.983822e+00
3.090394e+00	1.233617e-03	9.548376e-01
2.609016e+00	1.505373e-03	6.729363e-02
2.227642e+00	1.734292e-03	-1.997713e-01
1.962038e+00	1.954266e-03	-3.611955e-01
1.773650e+00	2.167531e-03	-4.247672e-01
1.607868e+00	2.393553e-03	-4.722456e-01
1.483932e+00	2.465529e-03	-4.873901e-01
1.378070e+00	2.608987e-03	-5.006419e-01
1.291152e+00	2.744300e-03	-4.977746e-01
1.214337e+00	2.856244e-03	-4.950204e-01
1.148872e+00	2.945929e-03	-4.846310e-01
1.090541e+00	3.043861e-03	-4.759937e-01
1.036697e+00	3.108838e-03	-4.628920e-01
9.871728e-01	3.229216e-03	-4.518012e-01
9.372709e-01	3.220559e-03	-4.365196e-01
8.891271e-01	3.214522e-03	-4.220092e-01
8.395869e-01	3.211530e-03	-4.034368e-01
7.889171e-01	3.208274e-03	-3.832864e-01
7.420163e-01	3.205987e-03	-3.621110e-01
8.156160e-01	-1.139453e-03	-1.436270e-01
8.334034e-01	-1.122641e-03	-1.482676e-01
8.447690e-01	-1.114385e-03	-1.540517e-01
8.501393e-01	-1.123740e-03	-1.592441e-01
8.483627e-01	-1.104017e-03	-1.653194e-01
8.420339e-01	-1.053091e-03	-1.699026e-01
8.269560e-01	-1.012385e-03	-1.748537e-01
8.127928e-01	-9.843547e-04	-1.790006e-01
7.895952e-01	-9.918580e-04	-1.841575e-01
7.634929e-01	-9.121633e-04	-1.878412e-01
7.264422e-01	-8.095194e-04	-1.935218e-01
6.813765e-01	-6.548412e-04	-1.958234e-01
6.178008e-01	-5.752124e-04	-1.985622e-01
5.355683e-01	-3.409540e-04	-1.910445e-01
4.241374e-01	-2.510983e-04	-1.759612e-01
2.610635e-01	-1.231387e-04	-1.249076e-01
1.903547e-02	1.400542e-05	-1.138145e-02
-3.272125e-01	1.559697e-04	2.508748e-01
-7.644712e-01	3.053607e-04	1.020758e+00
-4.877798e-01	4.542414e-04	3.094017e+00
2.989679e+00	6.255994e-04	2.993952e+00
3.099924e+00	7.711696e-04	9.577819e-01
2.615397e+00	9.142480e-04	6.745819e-02
2.231784e+00	1.047819e-03	-2.001427e-01
1.965289e+00	1.175277e-03	-3.617939e-01
1.774729e+00	1.294832e-03	-4.250258e-01
1.608960e+00	1.321218e-03	-4.725662e-01
1.485666e+00	1.431410e-03	-4.879596e-01
1.379183e+00	1.537837e-03	-5.010462e-01
1.292278e+00	1.597680e-03	-4.982087e-01
1.215717e+00	1.665324e-03	-4.955830e-01
1.150339e+00	1.810431e-03	-4.852499e-01
1.091986e+00	1.830715e-03	-4.766244e-01
1.039078e+00	1.872233e-03	-4.639552e-01
9.885177e-01	1.883888e-03	-4.524167e-01
9.362542e-01	1.868950e-03	-4.360461e-01
8.888266e-01	1.871896e-03	-4.218666e-01
8.394120e-01	1.893622e-03	-4.033528e-01
7.883328e-01	1.890474e-03	-3.830025e-01
7.397031e-01	1.874911e-03	-3.609821e-01
8.153792e-01	-1.362650e-03	-1.435853e-01
8.329880e-01	-1.362728e-03	-1.481937e-01
8.451932e-01	-1.363453e-03	-1.541290e-01
8.500876e-01	-1.345720e-03	-1.592345e-01
8.458595e-01	-1.304343e-03	-1.648316e-01
8.408086e-01	-1.227105e-03	-1.696553e-01
8.274148e-01	-1.130849e-03	-1.749507e-01
8.135239e-01	-1.194383e-03	-1.791616e-01
7.896939e-01	-9.753259e-04	-1.841805e-01
7.625393e-01	-1.024955e-03	-1.876066e-01
7.254161e-01	-6.685394e-04	-1.932484e-01
6.806666e-01	-7.566528e-04	-1.956194e-01
6.166360e-01	-3.214184e-04	-1.981878e-01
5.341750e-01	-3.853130e-04	-1.905475e-01
4.230996e-01	7.380743e-05	-1.755306e-01
2.592676e-01	4.133491e-04	-1.240483e-01
1.644315e-02	6.087848e-04	-9.831484e-03
-3.305276e-01	6.566425e-04	2.534165e-01
-7.672339e-01	7.031081e-04	1.024447e+00
-4.889561e-01	7.628279e-04	3.101479e+00
2.995085e+00	8.426118e-04	2.999365e+00
3.103071e+00	9.206261e-04	9.587543e-01
2.617911e+00	9.861389e-04	6.752306e-02
2.234100e+00	1.097324e-03	-2.003504e-01
1.966992e+00	1.031469e-03	-3.621075e-01
1.776050e+00	8.482441e-04	-4.253422e-01
1.610000e+00	4.674708e-04	-4.728717e-01
1.486936e+00	6.283870e-04	-4.883769e-01
1.380227e+00	3.109309e-04	-5.014255e-01
1.292762e+00	4.403203e-04	-4.983954e-01
1.216995e+00	1.451981e-04	-4.961039e-01
1.151011e+00	2.955405e-04	-4.855333e-01
1.091355e+00	3.612086e-05	-4.763493e-01
1.037481e+00	9.164694e-05	-4.632420e-01
9.871484e-01	-1.262668e-04	-4.517900e-01
9.370177e-01	-6.860040e-05	-4.364017e-01
8.896351e-01	-8.310250e-05	-4.222503e-01
8.402963e-01	-8.910002e-05	-4.037777e-01
7.882345e-01	-8.400865e-05	-3.829547e-01
7.396329e-01	-8.291315e-05	-3.609479e-01
8.156291e-01	-1.491107e-04	-1.436293e-01
8.334551e-01	-1.779682e-04	-1.482768e-01
8.440874e-01	-1.252764e-04	-1.539274e-01
8.485983e-01	-7.525858e-05	-1.589555e-01
8.459127e-01	-5.623526e-05	-1.648420e-01
8.390235e-01	-4.012872e-05	-1.692951e-01
8.265719e-01	-2.753101e-05	-1.747725e-01
8.104583e-01	-1.520113e-05	-1.784865e-01
7.873811e-01	3.664091e-05	-1.836411e-01
7.594401e-01	3.244108e-05	-1.868441e-01
7.228993e-01	3.023882e-05	-1.925780e-01
6.768857e-01	2.071961e-06	-1.945328e-01
6.124150e-01	-2.066277e-05	-1.968312e-01
5.300636e-01	-1.326003e-05	-1.890809e-01
4.109982e-01	2.182668e-05	-1.705102e-01
2.509605e-01	-7.733895e-06	-1.200737e-01
1.346794e-02	-1.755254e-06	-8.052583e-03
-3.296392e-01	3.069824e-06	2.527353e-01
-7.673274e-01	6.411588e-06	1.024572e+00
-4.892687e-01	8.643116e-06	3.103461e+00
2.997503e+00	1.050424e-05	3.001787e+00
3.106126e+00	1.175901e-05	9.596981e-01
2.621347e+00	1.273018e-05	6.761166e-02
2.232398e+00	1.303708e-05	-2.001978e-01
1.960071e+00	4.844078e-05	-3.608334e-01
1.764835e+00	4.812853e-05	-4.226562e-01
1.606024e+00	1.866104e-05	-4.717040e-01
1.483281e+00	7.617105e-05	-4.871764e-01
1.376847e+00	6.961811e-05	-5.001973e-01
1.290153e+00	6.511005e-05	-4.973896e-01
1.213877e+00	6.526222e-05	-4.948330e-01
1.149048e+00	3.144736e-05	-4.847053e-01
1.089137e+00	4.712338e-05	-4.753809e-01
1.036938e+00	6.125703e-05	-4.629995e-01
9.856660e-01	8.085860e-05	-4.511116e-01
9.371790e-01	1.030669e-04	-4.364768e-01
8.883345e-01	1.307809e-04	-4.216330e-01
8.393202e-01	1.410457e-04	-4.033086e-01
7.886820e-01	2.195263e-04	-3.831721e-01
7.398708e-01	2.092340e-04	-3.610640e-01
8.202222e-01	1.472222e-03	-1.444381e-01
8.304124e-01	1.472375e-03	-1.477355e-01
8.417989e-01	1.473556e-03	-1.535100e-01
8.484729e-01	1.457410e-03	-1.589320e-01
8.451590e-01	1.418306e-03	-1.646951e-01
8.403181e-01	1.431159e-03	-1.695563e-01
8.270316e-01	1.292281e-03	-1.748697e-01
8.125950e-01	1.354078e-03	-1.789570e-01
7.890663e-01	1.112155e-03	-1.840341e-01
7.626232e-01	1.136489e-03	-1.876273e-01
7.258111e-01	7.869598e-04	-1.933537e-01
6.813471e-01	7.995126e-04	-1.958150e-01
6.168626e-01	3.680043e-04	-1.982606e-01
5.335627e-01	4.580600e-04	-1.903291e-01
4.229416e-01	-3.737414e-05	-1.754651e-01
2.597605e-01	-3.785932e-04	-1.242841e-01
1.620934e-02	-5.765110e-04	-9.691684e-03
-3.307433e-01	-6.023253e-04	2.535819e-01
-7.673940e-01	-6.540927e-04	1.024661e+00
-4.890017e-01	-7.483945e-04	3.101767e+00
2.995235e+00	-8.358194e-04	2.999515e+00
3.103166e+00	-8.917198e-04	9.587838e-01
2.617949e+00	-9.896701e-04	6.752403e-02
2.235087e+00	-1.105654e-03	-2.004389e-01
1.967634e+00	-1.045732e-03	-3.622257e-01
1.775507e+00	-8.360193e-04	-4.252121e-01
1.610488e+00	-4.930046e-04	-4.730152e-01
1.487615e+00	-6.630936e-04	-4.885998e-01
1.380084e+00	-3.591001e-04	-5.013732e-01
1.292707e+00	-4.243421e-04	-4.983743e-01
1.216575e+00	-1.466463e-04	-4.959330e-01
1.150767e+00	-2.490346e-04	-4.854306e-01
1.091753e+00	-3.454155e-05	-4.765230e-01
1.037961e+00	-1.330742e-04	-4.634565e-01
9.878138e-01	-2.277583e-05	-4.520945e-01
9.379347e-01	-5.593177e-05	-4.368288e-01
8.905516e-01	-3.004253e-05	-4.226853e-01
8.426016e-01	-2.137195e-05	-4.048854e-01
7.927643e-01	-2.579251e-05	-3.851555e-01
7.380567e-01	-2.676442e-05	-3.601787e-01
8.156034e-01	1.464546e-03	-1.436248e-01
8.333699e-01	1.490553e-03	-1.482617e-01
8.446940e-01	1.429182e-03	-1.540380e-01
8.500414e-01	1.395149e-03	-1.592258e-01
8.463437e-01	1.262716e-03	-1.649260e-01
8.413672e-01	1.221496e-03	-1.697680e-01
8.276077e-01	1.166899e-03	-1.749915e-01
8.131516e-01	1.096307e-03	-1.790796e-01
7.902448e-01	1.054596e-03	-1.843090e-01
7.637324e-01	9.608619e-04	-1.879002e-01
7.273336e-01	8.589225e-04	-1.937592e-01
6.823560e-01	7.766338e-04	-1.961049e-01
6.173952e-01	6.852892e-04	-1.984318e-01
5.356744e-01	5.262464e-04	-1.910824e-01
4.247929e-01	3.823808e-04	-1.762331e-01
2.611390e-01	2.667160e-04	-1.249437e-01
1.867826e-02	1.098566e-04	-1.116787e-02
-3.277549e-01	-4.863960e-05	2.512906e-01
-7.635357e-01	-2.126859e-04	1.019509e+00
-4.872657e-01	-3.747984e-04	3.090756e+00
2.990658e+00	-5.608172e-04	2.994932e+00
3.098978e+00	-7.188748e-04	9.574898e-01
2.614336e+00	-8.744367e-04	6.743084e-02
2.231514e+00	-1.019467e-03	-2.001185e-01
1.965760e+00	-1.192963e-03	-3.618806e-01
1.774465e+00	-1.320271e-03	-4.249624e-01
1.608269e+00	-1.439136e-03	-4.723634e-01
1.485350e+00	-1.580808e-03	-4.878558e-01
1.379865e+00	-1.677630e-03	-5.012938e-01
1.292861e+00	-1.755631e-03	-4.984337e-01
1.216095e+00	-1.824153e-03	-4.957371e-01
1.150400e+00	-1.918670e-03	-4.852757e-01
1.090813e+00	-1.962392e-03	-4.761126e-01
1.036961e+00	-1.993686e-03	-4.630101e-01
9.870502e-01	-2.030854e-03	-4.517451e-01
9.369429e-01	-2.071341e-03	-4.363669e-01
8.891725e-01	-2.014413e-03	-4.220307e-01
8.395253e-01	-2.056989e-03	-4.034072e-01
7.883782e-01	-2.133850e-03	-3.830245e-01
7.397220e-01	-2.122494e-03	-3.609914e-01
8.158576e-01	2.132841e-03	-1.436695e-01
8.336732e-01	2.128596e-03	-1.483156e-01
8.447946e-01	2.122211e-03	-1.540563e-01
8.529130e-01	2.023344e-03	-1.597637e-01
8.484790e-01	1.991406e-03	-1.653421e-01
8.419839e-01	1.954865e-03	-1.698925e-01
8.289687e-01	1.875287e-03	-1.752793e-01
8.141769e-01	1.779974e-03	-1.793054e-01
7.909049e-01	1.654767e-03	-1.844629e-01
7.651919e-01	1.538660e-03	-1.882592e-01
7.282213e-01	1.372430e-03	-1.939957e-01
6.836609e-01	1.270481e-03	-1.964799e-01
6.203145e-01	1.049183e-03	-1.993701e-01
5.380808e-01	8.399853e-04	-1.919408e-01