# vtk DataFile Version 2.0
OUTPUT by 3D-VPM
ASCII
DATASET UNSTRUCTURED_GRID
POINTS 820 double
9.510565e-01	0.000000e+00	-3.090170e-01
9.442611e-01	0.000000e+00	-3.078203e-01
9.267277e-01	0.000000e+00	-3.047010e-01
8.963175e-01	0.000000e+00	-2.991555e-01
8.562911e-01	0.000000e+00	-2.916579e-01
8.054250e-01	0.000000e+00	-2.817457e-01
7.470317e-01	0.000000e+00	-2.699633e-01
6.809074e-01	0.000000e+00	-2.559818e-01
6.100852e-01	0.000000e+00	-2.403847e-01
5.354138e-01	0.000000e+00	-2.229691e-01
4.593635e-01	0.000000e+00	-2.042585e-01
3.837764e-01	0.000000e+00	-1.841224e-01
3.103069e-01	0.000000e+00	-1.630077e-01
2.415927e-01	0.000000e+00	-1.409228e-01
1.782654e-01	0.000000e+00	-1.183331e-01
1.234349e-01	0.000000e+00	-9.558566e-02
7.662509e-02	0.000000e+00	-7.318920e-02
4.106998e-02	0.000000e+00	-5.193053e-02
1.528206e-02	0.000000e+00	-3.215886e-02
2.347037e-03	0.000000e+00	-1.488740e-02
0.000000e+00	0.000000e+00	0.000000e+00
1.064939e-02	0.000000e+00	1.066461e-02
3.126595e-02	0.000000e+00	1.703450e-02
6.375031e-02	0.000000e+00	1.787236e-02
1.050105e-01	0.000000e+00	1.417221e-02
1.560448e-01	0.000000e+00	4.777214e-03
2.137742e-01	0.000000e+00	-9.048270e-03
2.782849e-01	0.000000e+00	-2.799567e-02
3.468570e-01	0.000000e+00	-5.051783e-02
4.187060e-01	0.000000e+00	-7.662000e-02
4.916930e-01	0.000000e+00	-1.047585e-01
5.642168e-01	0.000000e+00	-1.343226e-01
6.348639e-01	0.000000e+00	-1.641238e-01
7.013280e-01	0.000000e+00	-1.931337e-01
7.630418e-01	0.000000e+00	-2.206893e-01
8.172084e-01	0.000000e+00	-2.454799e-01
8.641863e-01	0.000000e+00	-2.673591e-01
9.009752e-01	0.000000e+00	-2.848204e-01
9.288372e-01	0.000000e+00	-2.982085e-01
9.448555e-01	0.000000e+00	-3.059908e-01
9.510565e-01	0.000000e+00	-3.090170e-01
9.510565e-01	1.052632e+00	-3.090170e-01
9.442611e-01	1.052632e+00	-3.078203e-01
9.267277e-01	1.052632e+00	-3.047010e-01
8.963175e-01	1.052632e+00	-2.991555e-01
8.562911e-01	1.052632e+00	-2.916579e-01
8.054250e-01	1.052632e+00	-2.817457e-01
7.470317e-01	1.052632e+00	-2.699633e-01
6.809074e-01	1.052632e+00	-2.559818e-01
6.100852e-01	1.052632e+00	-2.403847e-01
5.354138e-01	1.052632e+00	-2.229691e-01
4.593635e-01	1.052632e+00	-2.042585e-01
3.837764e-01	1.052632e+00	-1.841224e-01
3.103069e-01	1.052632e+00	-1.630077e-01
2.415927e-01	1.052632e+00	-1.409228e-01
1.782654e-01	1.052632e+00	-1.183331e-01
1.234349e-01	1.052632e+00	-9.558566e-02
7.662509e-02	1.052632e+00	-7.318920e-02
4.106998e-02	1.052632e+00	-5.193053e-02
1.528206e-02	1.052632e+00	-3.215886e-02
2.347037e-03	1.052632e+00	-1.488740e-02
0.000000e+00	1.052632e+00	0.000000e+00
1.064939e-02	1.052632e+00	1.066461e-02
3.126595e-02	1.052632e+00	1.703450e-02
6.375031e-02	1.052632e+00	1.787236e-02
1.050105e-01	1.052632e+00	1.417221e-02
1.560448e-01	1.052632e+00	4.777214e-03
2.137742e-01	1.052632e+00	-9.048270e-03
2.782849e-01	1.052632e+00	-2.799567e-02
3.468570e-01	1.052632e+00	-5.051783e-02
4.187060e-01	1.052632e+00	-7.662000e-02
4.916930e-01	1.052632e+00	-1.047585e-01
5.642168e-01	1.052632e+00	-1.343226e-01
6.348639e-01	1.052632e+00	-1.641238e-01
7.013280e-01	1.052632e+00	-1.931337e-01
7.630418e-01	1.052632e+00	-2.206893e-01
8.172084e-01	1.052632e+00	-2.454799e-01
8.641863e-01	1.052632e+00	-2.673591e-01
9.009752e-01	1.052632e+00	-2.848204e-01
9.288372e-01	1.052632e+00	-2.982085e-01
9.448555e-01	1.052632e+00	-3.059908e-01
9.510565e-01	1.052632e+00	-3.090170e-01
9.510565e-01	2.105263e+00	-3.090170e-01
9.442611e-01	2.105263e+00	-3.078203e-01
9.267277e-01	2.105263e+00	-3.047010e-01
8.963175e-01	2.105263e+00	-2.991555e-01
8.562911e-01	2.105263e+00	-2.916579e-01
8.054250e-01	2.105263e+00	-2.817457e-01
7.470317e-01	2.105263e+00	-2.699633e-01
6.809074e-01	2.105263e+00	-2.559818e-01
6.100852e-01	2.105263e+00	-2.403847e-01
5.354138e-01	2.105263e+00	-2.229691e-01
4.593635e-01	2.105263e+00	-2.042585e-01
3.837764e-01	2.105263e+00	-1.841224e-01
3.103069e-01	2.105263e+00	-1.630077e-01
2.415927e-01	2.105263e+00	-1.409228e-01
1.782654e-01	2.105263e+00	-1.183331e-01
1.234349e-01	2.105263e+00	-9.558566e-02
7.662509e-02	2.105263e+00	-7.318920e-02
4.106998e-02	2.105263e+00	-5.193053e-02
1.528206e-02	2.105263e+00	-3.215886e-02
2.347037e-03	2.105263e+00	-1.488740e-02
0.000000e+00	2.105263e+00	0.000000e+00
1.064939e-02	2.105263e+00	1.066461e-02
3.126595e-02	2.105263e+00	1.703450e-02
6.375031e-02	2.105263e+00	1.787236e-02
1.050105e-01	2.105263e+00	1.417221e-02
1.560448e-01	2.105263e+00	4.777214e-03
2.137742e-01	2.105263e+00	-9.048270e-03
2.782849e-01	2.105263e+00	-2.799567e-02
3.468570e-01	2.105263e+00	-5.051783e-02
4.187060e-01	2.105263e+00	-7.662000e-02
4.916930e-01	2.105263e+00	-1.047585e-01
5.642168e-01	2.105263e+00	-1.343226e-01
6.348639e-01	2.105263e+00	-1.641238e-01
7.013280e-01	2.105263e+00	-1.931337e-01
7.630418e-01	2.105263e+00	-2.206893e-01
8.172084e-01	2.105263e+00	-2.454799e-01
8.641863e-01	2.105263e+00	-2.673591e-01
9.009752e-01	2.105263e+00	-2.848204e-01
9.288372e-01	2.105263e+00	-2.982085e-01
9.448555e-01	2.105263e+00	-3.059908e-01
9.510565e-01	2.105263e+00	-3.090170e-01
9.510565e-01	3.157895e+00	-3.090170e-01
9.442611e-01	3.157895e+00	-3.078203e-01
9.267277e-01	3.157895e+00	-3.047010e-01
8.963175e-01	3.157895e+00	-2.991555e-01
8.562911e-01	3.157895e+00	-2.916579e-01
8.054250e-01	3.157895e+00	-2.817457e-01
7.470317e-01	3.157895e+00	-2.699633e-01
6.809074e-01	3.157895e+00	-2.559818e-01
6.100852e-01	3.157895e+00	-2.403847e-01
5.354138e-01	3.157895e+00	-2.229691e-01
4.593635e-01	3.157895e+00	-2.042585e-01
3.837764e-01	3.157895e+00	-1.841224e-01
3.103069e-01	3.157895e+00	-1.630077e-01
2.415927e-01	3.157895e+00	-1.409228e-01
1.782654e-01	3.157895e+00	-1.183331e-01
1.234349e-01	3.157895e+00	-9.558566e-02
7.662509e-02	3.157895e+00	-7.318920e-02
4.106998e-02	3.157895e+00	-5.193053e-02
1.528206e-02	3.157895e+00	-3.215886e-02
2.347037e-03	3.157895e+00	-1.488740e-02
0.000000e+00	3.157895e+00	0.000000e+00
1.064939e-02	3.157895e+00	1.066461e-02
3.126595e-02	3.157895e+00	1.703450e-02
6.375031e-02	3.157895e+00	1.787236e-02
1.050105e-01	3.157895e+00	1.417221e-02
1.560448e-01	3.157895e+00	4.777214e-03
2.137742e-01	3.157895e+00	-9.048270e-03
2.782849e-01	3.157895e+00	-2.799567e-02
3.468570e-01	3.157895e+00	-5.051783e-02
4.187060e-01	3.157895e+00	-7.662000e-02
4.916930e-01	3.157895e+00	-1.047585e-01
5.642168e-01	3.157895e+00	-1.343226e-01
6.348639e-01	3.157895e+00	-1.641238e-01
7.013280e-01	3.157895e+00	-1.931337e-01
7.630418e-01	3.157895e+00	-2.206893e-01
8.172084e-01	3.157895e+00	-2.454799e-01
8.641863e-01	3.157895e+00	-2.673591e-01
9.009752e-01	3.157895e+00	-2.848204e-01
9.288372e-01	3.157895e+00	-2.982085e-01
9.448555e-01	3.157895e+00	-3.059908e-01
9.510565e-01	3.157895e+00	-3.090170e-01
9.510565e-01	4.210526e+00	-3.090170e-01
9.442611e-01	4.210526e+00	-3.078203e-01
9.267277e-01	4.210526e+00	-3.047010e-01
8.963175e-01	4.210526e+00	-2.991555e-01
8.562911e-01	4.210526e+00	-2.916579e-01
8.054250e-01	4.210526e+00	-2.817457e-01
7.470317e-01	4.210526e+00	-2.699633e-01
6.809074e-01	4.210526e+00	-2.559818e-01
6.100852e-01	4.210526e+00	-2.403847e-01
5.354138e-01	4.210526e+00	-2.229691e-01
4.593635e-01	4.210526e+00	-2.042585e-01
3.837764e-01	4.210526e+00	-1.841224e-01
3.103069e-01	4.210526e+00	-1.630077e-01
2.415927e-01	4.210526e+00	-1.409228e-01
1.782654e-01	4.210526e+00	-1.183331e-01
1.234349e-01	4.210526e+00	-9.558566e-02
7.662509e-02	4.210526e+00	-7.318920e-02
4.106998e-02	4.210526e+00	-5.193053e-02
1.528206e-02	4.210526e+00	-3.215886e-02
2.347037e-03	4.210526e+00	-1.488740e-02
0.000000e+00	4.210526e+00	0.000000e+00
1.064939e-02	4.210526e+00	1.066461e-02
3.126595e-02	4.210526e+00	1.703450e-02
6.375031e-02	4.210526e+00	1.787236e-02
1.050105e-01	4.210526e+00	1.417221e-02
1.560448e-01	4.210526e+00	4.777214e-03
2.137742e-01	4.210526e+00	-9.048270e-03
2.782849e-01	4.210526e+00	-2.799567e-02
3.468570e-01	4.210526e+00	-5.051783e-02
4.187060e-01	4.210526e+00	-7.662000e-02
4.916930e-01	4.210526e+00	-1.047585e-01
5.642168e-01	4.210526e+00	-1.343226e-01
6.348639e-01	4.210526e+00	-1.641238e-01
7.013280e-01	4.210526e+00	-1.931337e-01
7.630418e-01	4.210526e+00	-2.206893e-01
8.172084e-01	4.210526e+00	-2.454799e-01
8.641863e-01	4.210526e+00	-2.673591e-01
9.009752e-01	4.210526e+00	-2.848204e-01
9.288372e-01	4.210526e+00	-2.982085e-01
9.448555e-01	4.210526e+00	-3.059908e-01
9.510565e-01	4.210526e+00	-3.090170e-01
9.510565e-01	5.263158e+00	-3.090170e-01
9.442611e-01	5.263158e+00	-3.078203e-01
9.267277e-01	5.263158e+00	-3.047010e-01
8.963175e-01	5.263158e+00	-2.991555e-01
8.562911e-01	5.263158e+00	-2.916579e-01
8.054250e-01	5.263158e+00	-2.817457e-01
7.470317e-01	5.263158e+00	-2.699633e-01
6.809074e-01	5.263158e+00	-2.559818e-01
6.100852e-01	5.263158e+00	-2.403847e-01
5.354138e-01	5.263158e+00	-2.229691e-01
4.593635e-01	5.263158e+00	-2.042585e-01
3.837764e-01	5.263158e+00	-1.841224e-01
3.103069e-01	5.263158e+00	-1.630077e-01
2.415927e-01	5.263158e+00	-1.409228e-01
1.782654e-01	5.263158e+00	-1.183331e-01
1.234349e-01	5.263158e+00	-9.558566e-02
7.662509e-02	5.263158e+00	-7.318920e-02
4.106998e-02	5.263158e+00	-5.193053e-02
1.528206e-02	5.263158e+00	-3.215886e-02
2.347037e-03	5.263158e+00	-1.488740e-02
0.000000e+00	5.263158e+00	0.000000e+00
1.064939e-02	5.263158e+00	1.066461e-02
3.126595e-02	5.263158e+00	1.703450e-02
6.375031e-02	5.263158e+00	1.787236e-02
1.050105e-01	5.263158e+00	1.417221e-02
1.560448e-01	5.263158e+00	4.777214e-03
2.137742e-01	5.263158e+00	-9.048270e-03
2.782849e-01	5.263158e+00	-2.799567e-02
3.468570e-01	5.263158e+00	-5.051783e-02
4.187060e-01	5.263158e+00	-7.662000e-02
4.916930e-01	5.263158e+00	-1.047585e-01
5.642168e-01	5.263158e+00	-1.343226e-01
6.348639e-01	5.263158e+00	-1.641238e-01
7.013280e-01	5.263158e+00	-1.931337e-01
7.630418e-01	5.263158e+00	-2.206893e-01
8.172084e-01	5.263158e+00	-2.454799e-01
8.641863e-01	5.263158e+00	-2.673591e-01
9.009752e-01	5.263158e+00	-2.848204e-01
9.288372e-01	5.263158e+00	-2.982085e-01
9.448555e-01	5.263158e+00	-3.059908e-01
9.510565e-01	5.263158e+00	-3.090170e-01
9.510565e-01	6.315789e+00	-3.090170e-01
9.442611e-01	6.315789e+00	-3.078203e-01
[...]
CELL_DATA 760
VECTORS V double
8.414347e-01	-6.901961e-02	-1.481736e-01
8.655586e-01	-6.884605e-02	-1.539882e-01
8.835773e-01	-6.839637e-02	-1.611287e-01
8.953475e-01	-6.760212e-02	-1.677123e-01
8.978173e-01	-6.644141e-02	-1.749566e-01
8.991349e-01	-6.489663e-02	-1.814242e-01
8.921023e-01	-6.295747e-02	-1.886284e-01
8.847973e-01	-6.059990e-02	-1.948581e-01
8.704693e-01	-5.779551e-02	-2.030198e-01
8.547784e-01	-5.451166e-02	-2.103001e-01
8.295429e-01	-5.073171e-02	-2.209874e-01
7.986943e-01	-4.641455e-02	-2.295398e-01
7.512955e-01	-4.162013e-02	-2.414676e-01
6.892854e-01	-3.639074e-02	-2.458775e-01
6.026524e-01	-3.076434e-02	-2.500214e-01
4.719997e-01	-2.486367e-02	-2.258314e-01
2.703198e-01	-1.869668e-02	-1.616262e-01
-1.720953e-02	-1.242935e-02	1.319459e-02
-4.215754e-01	-5.863119e-03	5.629077e-01
-3.425987e-01	7.159638e-04	2.173124e+00
2.326629e+00	8.427457e-03	2.329953e+00
2.541381e+00	1.519086e-02	7.852092e-01
2.210337e+00	2.213575e-02	5.701059e-02
1.925373e+00	2.898190e-02	-1.726643e-01
1.720070e+00	3.597027e-02	-3.166511e-01
1.570316e+00	4.293580e-02	-3.760714e-01
1.435484e+00	4.987284e-02	-4.216148e-01
1.336680e+00	5.660297e-02	-4.390259e-01
1.250595e+00	6.300816e-02	-4.543310e-01
1.181672e+00	6.889016e-02	-4.555673e-01
1.121859e+00	7.413231e-02	-4.573224e-01
1.071607e+00	7.859867e-02	-4.520385e-01
1.027469e+00	8.222764e-02	-4.484647e-01
9.871973e-01	8.501134e-02	-4.407902e-01
9.499786e-01	8.700106e-02	-4.347785e-01
9.115288e-01	8.829470e-02	-4.245307e-01
8.743638e-01	8.902055e-02	-4.150020e-01
8.341911e-01	8.932760e-02	-4.008440e-01
7.910640e-01	8.937146e-02	-3.843294e-01
7.483137e-01	8.932576e-02	-3.651842e-01
8.268710e-01	-4.833566e-02	-1.456090e-01
8.473630e-01	-4.821138e-02	-1.507511e-01
8.618305e-01	-4.789293e-02	-1.571630e-01
8.705220e-01	-4.732924e-02	-1.630621e-01
8.702794e-01	-4.649768e-02	-1.695903e-01
8.689017e-01	-4.537944e-02	-1.753238e-01
8.589096e-01	-4.396385e-02	-1.816101e-01
8.480479e-01	-4.223593e-02	-1.867648e-01
8.293861e-01	-4.018088e-02	-1.934379e-01
8.084076e-01	-3.778353e-02	-1.988915e-01
7.766316e-01	-3.501860e-02	-2.068921e-01
7.379848e-01	-3.192287e-02	-2.120923e-01
6.816948e-01	-2.848739e-02	-2.190978e-01
6.086617e-01	-2.476276e-02	-2.171179e-01
5.088843e-01	-2.077492e-02	-2.111200e-01
3.609132e-01	-1.660690e-02	-1.726813e-01
1.375421e-01	-1.226046e-02	-8.223743e-02
-1.812898e-01	-7.848958e-03	1.389954e-01
-6.029641e-01	-3.232555e-03	8.051065e-01
-4.197475e-01	1.385892e-03	2.662484e+00
2.682064e+00	6.784849e-03	2.685897e+00
2.843747e+00	1.149986e-02	8.786312e-01
2.433022e+00	1.631296e-02	6.275425e-02
2.097173e+00	2.102128e-02	-1.880710e-01
1.860365e+00	2.578351e-02	-3.424784e-01
1.689555e+00	3.048001e-02	-4.046275e-01
1.538991e+00	3.510500e-02	-4.520159e-01
1.427751e+00	3.954038e-02	-4.689379e-01
1.330673e+00	4.371439e-02	-4.834227e-01
1.251867e+00	4.751916e-02	-4.826294e-01
1.182639e+00	5.084381e-02	-4.820990e-01
1.123315e+00	5.366011e-02	-4.738502e-01
1.070374e+00	5.591867e-02	-4.671916e-01
1.021727e+00	5.762383e-02	-4.562081e-01
9.765802e-01	5.881679e-02	-4.469533e-01
9.307540e-01	5.956838e-02	-4.334845e-01
8.867463e-01	5.996694e-02	-4.208792e-01
8.402926e-01	6.011326e-02	-4.037759e-01
7.917033e-01	6.010961e-02	-3.846400e-01
7.448146e-01	6.006630e-02	-3.634766e-01
8.205776e-01	-2.041100e-02	-1.445007e-01
8.397402e-01	-2.035982e-02	-1.493950e-01
8.527279e-01	-2.022886e-02	-1.555030e-01
8.598918e-01	-1.999296e-02	-1.610709e-01
8.581067e-01	-1.963449e-02	-1.672182e-01
8.551463e-01	-1.913681e-02	-1.725483e-01
8.435296e-01	-1.849019e-02	-1.783581e-01
8.309334e-01	-1.768931e-02	-1.829957e-01
8.103822e-01	-1.670705e-02	-1.890056e-01
7.870017e-01	-1.559302e-02	-1.936251e-01
7.529443e-01	-1.431502e-02	-2.005819e-01
7.116602e-01	-1.290584e-02	-2.045268e-01
6.518530e-01	-1.134973e-02	-2.095066e-01
5.747141e-01	-9.682853e-03	-2.050083e-01
4.699486e-01	-7.915293e-03	-1.949668e-01
3.152277e-01	-6.079474e-03	-1.508228e-01
8.326557e-02	-4.172132e-03	-4.978510e-02
-2.480795e-01	-2.241169e-03	1.902032e-01
-6.764734e-01	-2.257364e-04	9.032596e-01
-4.507837e-01	1.782266e-03	2.859349e+00
2.823144e+00	4.111053e-03	2.827179e+00
2.961455e+00	6.118759e-03	9.149993e-01
2.517633e+00	8.131972e-03	6.493661e-02
2.160462e+00	1.005557e-02	-1.937467e-01
1.910181e+00	1.194581e-02	-3.516490e-01
1.730154e+00	1.374916e-02	-4.143505e-01
1.572682e+00	1.546101e-02	-4.619111e-01
1.456042e+00	1.704079e-02	-4.782297e-01
1.354586e+00	1.847105e-02	-4.921101e-01
1.271642e+00	1.973745e-02	-4.902532e-01
1.198751e+00	2.080317e-02	-4.886669e-01
1.136444e+00	2.166290e-02	-4.793888e-01
1.080522e+00	2.229934e-02	-4.716209e-01
1.029147e+00	2.277063e-02	-4.595212e-01
9.815185e-01	2.307256e-02	-4.492134e-01
9.334782e-01	2.323715e-02	-4.347532e-01
8.875191e-01	2.329960e-02	-4.212460e-01
8.394012e-01	2.329740e-02	-4.033476e-01
7.894800e-01	2.326628e-02	-3.835599e-01
7.416821e-01	2.324014e-02	-3.619479e-01
8.182813e-01	-1.022162e-02	-1.440964e-01
8.367432e-01	-1.020057e-02	-1.488618e-01
8.489822e-01	-1.014428e-02	-1.548200e-01
8.553911e-01	-1.003845e-02	-1.602279e-01
8.528178e-01	-9.873252e-03	-1.661876e-01
8.490195e-01	-9.625365e-03	-1.713121e-01
8.365354e-01	-9.312641e-03	-1.768792e-01
8.226464e-01	-8.915119e-03	-1.811706e-01
8.011033e-01	-8.441702e-03	-1.868415e-01
7.770026e-01	-7.877639e-03	-1.911650e-01
7.415086e-01	-7.237906e-03	-1.975354e-01
6.984677e-01	-6.499882e-03	-2.007353e-01
6.369241e-01	-5.694061e-03	-2.047084e-01
5.576301e-01	-4.818307e-03	-1.989142e-01
4.502419e-01	-3.884049e-03	-1.867911e-01
2.919812e-01	-2.908405e-03	-1.397004e-01
5.555053e-02	-1.894718e-03	-3.321408e-02
-2.822317e-01	-8.610598e-04	2.163879e-01
-7.140650e-01	2.193289e-04	9.534537e-01
-4.666164e-01	1.280259e-03	2.959776e+00
2.894709e+00	2.522124e-03	2.898845e+00
3.020698e+00	3.600011e-03	9.333036e-01
2.559839e+00	4.658385e-03	6.602522e-02
2.191685e+00	5.661073e-03	-1.965467e-01
1.934494e+00	6.640320e-03	-3.561248e-01
1.749759e+00	7.560121e-03	-4.190457e-01
1.588789e+00	8.424283e-03	-4.666419e-01
1.469457e+00	9.213884e-03	-4.826359e-01
1.365810e+00	9.929839e-03	-4.961876e-01
1.281294e+00	1.054897e-02	-4.939743e-01
1.206751e+00	1.108760e-02	-4.919280e-01
1.142444e+00	1.151906e-02	-4.819196e-01
1.085205e+00	1.185727e-02	-4.736650e-01
1.032943e+00	1.209552e-02	-4.612157e-01
9.841802e-01	1.225566e-02	-4.504316e-01
9.351425e-01	1.233671e-02	-4.355284e-01
8.883076e-01	1.238069e-02	-4.216202e-01
8.394460e-01	1.239090e-02	-4.033691e-01
7.889593e-01	1.238407e-02	-3.833069e-01
7.408113e-01	1.237541e-02	-3.615230e-01
8.170459e-01	-5.656802e-03	-1.438788e-01
8.352080e-01	-5.645048e-03	-1.485887e-01
8.470303e-01	-5.614180e-03	-1.544640e-01
8.529813e-01	-5.554739e-03	-1.597765e-01
8.496527e-01	-5.458483e-03	-1.655708e-01
8.454149e-01	-5.318075e-03	-1.705848e-01
8.325445e-01	-5.146509e-03	-1.760354e-01
8.185322e-01	-4.926477e-03	-1.802646e-01
7.963782e-01	-4.661198e-03	-1.857395e-01
7.711975e-01	-4.319251e-03	-1.897368e-01
7.349387e-01	-3.934277e-03	-1.957852e-01
6.910837e-01	-3.498078e-03	-1.986132e-01
6.284995e-01	-3.026547e-03	-2.020008e-01
5.478233e-01	-2.606136e-03	-1.954161e-01
4.388717e-01	-2.062769e-03	-1.820740e-01
2.785933e-01	-1.455283e-03	-1.332948e-01
3.954973e-02	-8.458369e-04	-2.364708e-02
-3.021470e-01	-2.262238e-04	2.316570e-01
-7.356902e-01	4.216022e-04	9.823286e-01
-4.756503e-01	1.066290e-03	3.017079e+00
2.936964e+00	1.809558e-03	2.941161e+00
3.055264e+00	2.444357e-03	9.439836e-01
2.583981e+00	3.072808e-03	6.664790e-02
2.209560e+00	3.663636e-03	-1.981497e-01
1.948268e+00	4.233302e-03	-3.586605e-01
1.760697e+00	4.756707e-03	-4.216653e-01
1.597695e+00	5.242477e-03	-4.692576e-01
1.476903e+00	5.786261e-03	-4.850813e-01
1.371977e+00	6.190413e-03	-4.984283e-01
1.286253e+00	6.528488e-03	-4.958859e-01
1.210899e+00	6.809050e-03	-4.936191e-01
1.146280e+00	7.039208e-03	-4.835377e-01
1.088246e+00	7.237393e-03	-4.749921e-01
1.034920e+00	7.380158e-03	-4.620985e-01
9.854563e-01	7.478495e-03	-4.510156e-01
9.358620e-01	7.527092e-03	-4.358635e-01
8.888527e-01	7.550485e-03	-4.218789e-01
8.396028e-01	7.556904e-03	-4.034445e-01
7.887861e-01	7.553743e-03	-3.832227e-01
7.403548e-01	7.548842e-03	-3.613002e-01
8.163087e-01	-3.306214e-03	-1.437490e-01
8.342506e-01	-3.299421e-03	-1.484183e-01
8.458021e-01	-3.281453e-03	-1.542400e-01
8.514126e-01	-3.247140e-03	-1.594827e-01
8.479804e-01	-3.214518e-03	-1.652449e-01
8.436097e-01	-3.127854e-03	-1.702205e-01
8.304774e-01	-3.005400e-03	-1.755983e-01
8.157348e-01	-2.857561e-03	-1.796485e-01
7.929009e-01	-2.670430e-03	-1.849285e-01
7.674593e-01	-2.436053e-03	-1.888171e-01
7.307763e-01	-2.195106e-03	-1.946764e-01
6.863682e-01	-1.968256e-03	-1.972580e-01
6.244977e-01	-1.653379e-03	-2.007146e-01
5.433776e-01	-1.433880e-03	-1.938302e-01
4.315570e-01	-1.068203e-03	-1.790394e-01
2.695362e-01	-6.896543e-04	-1.289614e-01
2.930257e-02	-2.933663e-04	-1.752023e-02
-3.146462e-01	1.018082e-04	2.412401e-01
-7.497600e-01	5.135374e-04	1.001115e+00
-4.816243e-01	9.368493e-04	3.054972e+00
2.962228e+00	1.408531e-03	2.966461e+00
3.076218e+00	1.796834e-03	9.504575e-01
2.599065e+00	2.194196e-03	6.703695e-02
2.220412e+00	2.565201e-03	-1.991229e-01
1.956395e+00	2.916163e-03	-3.601566e-01
1.767031e+00	3.243757e-03	-4.231820e-01
1.604437e+00	3.658472e-03	-4.712380e-01
1.482550e+00	3.916796e-03	-4.869363e-01
1.375475e+00	4.161329e-03	-4.996990e-01
1.289100e+00	4.381800e-03	-4.969836e-01
1.213146e+00	4.549021e-03	-4.945350e-01
1.147913e+00	4.657639e-03	-4.842266e-01
1.089772e+00	4.755770e-03	-4.756582e-01
1.036434e+00	4.835535e-03	-4.627746e-01
9.865807e-01	4.889324e-03	-4.515302e-01
9.365217e-01	4.962554e-03	-4.361707e-01
8.890366e-01	4.965288e-03	-4.219662e-01
8.396006e-01	4.963754e-03	-4.034434e-01
7.886102e-01	4.960018e-03	-3.831373e-01
7.400607e-01	4.956772e-03	-3.611567e-01
8.159058e-01	-2.030267e-03	-1.436780e-01
8.337587e-01	-2.026219e-03	-1.483308e-01
8.451905e-01	-2.015989e-03	-1.541285e-01
8.513263e-01	-1.997315e-03	-1.594665e-01
8.471555e-01	-1.967097e-03	-1.650842e-01
8.417717e-01	-2.010911e-03	-1.698497e-01
8.283691e-01	-1.888602e-03	-1.751525e-01
8.137582e-01	-1.783610e-03	-1.792132e-01
7.906860e-01	-1.684322e-03	-1.844119e-01
7.649586e-01	-1.542910e-03	-1.882018e-01
7.288214e-01	-1.386551e-03	-1.941556e-01
6.838807e-01	-1.215878e-03	-1.965431e-01
6.210259e-01	-1.016079e-03	-1.995987e-01
5.392211e-01	-7.367005e-04	-1.923475e-01
4.267587e-01	-5.018742e-04	-1.770487e-01
2.643292e-01	-2.950265e-04	-1.264700e-01
2.262812e-02	-5.136117e-05	-1.352952e-02
-3.227891e-01	1.709008e-04	2.474834e-01
-7.586744e-01	4.304810e-04	1.013018e+00
-4.853570e-01	6.871795e-04	3.078649e+00
2.978962e+00	9.820172e-04	2.983219e+00
3.089912e+00	1.232004e-03	9.546885e-01
2.608686e+00	1.472499e-03	6.728512e-02
2.227412e+00	1.730426e-03	-1.997506e-01
1.961873e+00	1.950009e-03	-3.611651e-01
1.773529e+00	2.163117e-03	-4.247382e-01
1.607782e+00	2.360777e-03	-4.722204e-01
1.483875e+00	2.461658e-03	-4.873714e-01
1.378037e+00	2.605958e-03	-5.006298e-01
1.291143e+00	2.742095e-03	-4.977713e-01
1.214355e+00	2.854761e-03	-4.950279e-01
1.148918e+00	2.945034e-03	-4.846507e-01
1.090624e+00	3.043347e-03	-4.760302e-01
1.036854e+00	3.108646e-03	-4.629624e-01
9.874655e-01	3.229291e-03	-4.519352e-01
9.373926e-01	3.220844e-03	-4.365763e-01
8.888925e-01	3.214944e-03	-4.218978e-01
8.394552e-01	3.212023e-03	-4.033735e-01
7.884533e-01	3.208784e-03	-3.830610e-01
7.398576e-01	3.206495e-03	-3.610576e-01
8.156293e-01	-1.104394e-03	-1.436293e-01
8.334193e-01	-1.101353e-03	-1.482704e-01
8.447887e-01	-1.091819e-03	-1.540552e-01
8.501634e-01	-1.098961e-03	-1.592487e-01
8.483911e-01	-1.050248e-03	-1.653250e-01
8.420684e-01	-1.033500e-03	-1.699095e-01
8.269949e-01	-9.983643e-04	-1.748620e-01
8.128366e-01	-9.745431e-04	-1.790102e-01
7.896465e-01	-9.856723e-04	-1.841694e-01
7.635502e-01	-9.088389e-04	-1.878553e-01
7.265017e-01	-8.086042e-04	-1.935376e-01
6.814340e-01	-6.878796e-04	-1.958399e-01
6.178695e-01	-5.764295e-04	-1.985843e-01
5.356942e-01	-3.423634e-04	-1.910894e-01
4.243309e-01	-2.522815e-04	-1.760415e-01
2.612858e-01	-1.242792e-04	-1.250139e-01
1.928940e-02	1.290253e-05	-1.153328e-02
-3.268596e-01	1.548798e-04	2.506042e-01
-7.640271e-01	3.042554e-04	1.020165e+00
-4.875901e-01	4.531025e-04	3.092813e+00
2.988904e+00	6.244118e-04	2.993176e+00
3.097711e+00	7.699419e-04	9.570983e-01
2.615270e+00	9.129949e-04	6.745493e-02
2.232147e+00	1.046596e-03	-2.001753e-01
1.965085e+00	1.174207e-03	-3.617565e-01
1.774060e+00	1.294035e-03	-4.248656e-01
1.608892e+00	1.321058e-03	-4.725463e-01
1.485972e+00	1.432657e-03	-4.880602e-01
1.379131e+00	1.539679e-03	-5.010273e-01
1.292239e+00	1.596173e-03	-4.981939e-01
1.215687e+00	1.659226e-03	-4.955710e-01
1.150315e+00	1.800137e-03	-4.852400e-01
1.091966e+00	1.816300e-03	-4.766159e-01
1.039064e+00	1.852501e-03	-4.639490e-01
9.885100e-01	1.856195e-03	-4.524132e-01
9.362511e-01	1.829405e-03	-4.360447e-01
8.888268e-01	1.838653e-03	-4.218667e-01
8.394150e-01	1.863641e-03	-4.033542e-01
7.883381e-01	1.860882e-03	-3.830051e-01
7.397102e-01	1.859454e-03	-3.609856e-01
8.153954e-01	-1.372082e-03	-1.435881e-01
8.330091e-01	-1.372265e-03	-1.481975e-01
8.452165e-01	-1.373416e-03	-1.541333e-01
8.501186e-01	-1.356808e-03	-1.592403e-01
8.458995e-01	-1.317417e-03	-1.648394e-01
8.408570e-01	-1.272613e-03	-1.696651e-01
8.274709e-01	-1.140637e-03	-1.749626e-01
8.135935e-01	-1.200226e-03	-1.791769e-01
7.897780e-01	-9.783472e-04	-1.842001e-01
7.626332e-01	-1.025839e-03	-1.876297e-01
7.259341e-01	-6.677886e-04	-1.933864e-01
6.807811e-01	-7.545520e-04	-1.956523e-01
6.162755e-01	-3.177170e-04	-1.980719e-01
5.342943e-01	-3.797700e-04	-1.905900e-01
4.232450e-01	7.998366e-05	-1.755910e-01
2.594524e-01	4.170386e-04	-1.241367e-01
1.667254e-02	6.089469e-04	-9.968635e-03
-3.302366e-01	6.544414e-04	2.531934e-01
-7.669092e-01	7.004696e-04	1.024014e+00
-4.888194e-01	7.605928e-04	3.100611e+00
2.994478e+00	8.405636e-04	2.998758e+00
3.102586e+00	9.178868e-04	9.586043e-01
2.617582e+00	1.013192e-03	6.751456e-02
2.233874e+00	1.093928e-03	-2.003301e-01
1.966835e+00	1.027211e-03	-3.620786e-01
1.775945e+00	8.082707e-04	-4.253170e-01
1.609945e+00	4.596762e-04	-4.728557e-01
1.486907e+00	6.232533e-04	-4.883672e-01
1.380157e+00	3.066580e-04	-5.014000e-01
1.292653e+00	4.371996e-04	-4.983533e-01
1.216903e+00	1.437142e-04	-4.960666e-01
1.150951e+00	2.964422e-04	-4.855082e-01
1.091314e+00	4.065579e-05	-4.763311e-01
1.037450e+00	1.025795e-04	-4.632281e-01
9.871286e-01	-1.062253e-04	-4.517810e-01
9.370053e-01	-5.427354e-05	-4.363959e-01
8.896273e-01	-7.252780e-05	-4.222466e-01
8.402924e-01	-7.963099e-05	-4.037758e-01
7.882379e-01	-7.488630e-05	-3.829564e-01
7.396390e-01	-7.385968e-05	-3.609509e-01
8.156600e-01	3.850620e-05	-1.436347e-01
8.335035e-01	2.092239e-05	-1.482854e-01
8.441630e-01	1.933660e-05	-1.539412e-01
8.487023e-01	4.068513e-05	-1.589750e-01
8.466893e-01	3.833077e-05	-1.649933e-01
8.389238e-01	3.720889e-05	-1.692750e-01
8.260245e-01	3.571754e-05	-1.746568e-01
8.104065e-01	3.640212e-05	-1.784751e-01
7.873657e-01	7.932815e-05	-1.836375e-01
7.594480e-01	6.785141e-05	-1.868461e-01
7.229197e-01	5.978989e-05	-1.925834e-01
6.769039e-01	5.886280e-05	-1.945380e-01
6.124359e-01	-1.097770e-06	-1.968379e-01
5.301518e-01	2.058192e-06	-1.891124e-01
4.112186e-01	3.332330e-05	-1.706016e-01
2.512919e-01	8.638190e-07	-1.202323e-01
1.385069e-02	4.154520e-06	-8.281431e-03
-3.292064e-01	6.640543e-06	2.524035e-01
-7.668775e-01	7.792655e-06	1.023972e+00
-4.890859e-01	7.970207e-06	3.102301e+00
2.996696e+00	7.465350e-06	3.000978e+00
3.105468e+00	6.576736e-06	9.594949e-01
2.620886e+00	5.174503e-06	6.759978e-02
2.232070e+00	2.854688e-06	-2.001683e-01
1.959070e+00	3.487827e-05	-3.606491e-01
1.764181e+00	3.069684e-05	-4.224995e-01
1.606463e+00	-3.726141e-06	-4.718328e-01
1.483636e+00	4.701495e-05	-4.872928e-01
1.376821e+00	3.308146e-05	-5.001879e-01
1.290150e+00	2.364306e-05	-4.973884e-01
1.213898e+00	1.790085e-05	-4.948416e-01
1.149101e+00	-2.507920e-05	-4.847276e-01
1.089250e+00	-2.154161e-05	-4.754303e-01
1.037144e+00	-2.235235e-05	-4.630918e-01
9.857281e-01	-2.129203e-05	-4.511400e-01
9.369968e-01	-2.132424e-05	-4.363920e-01
8.882163e-01	-2.019389e-05	-4.215769e-01
8.392746e-01	-4.254370e-05	-4.032868e-01
7.886637e-01	-4.142529e-05	-3.831633e-01
7.398674e-01	-2.393954e-05	-3.610623e-01
8.183464e-01	1.462408e-03	-1.441078e-01
8.337200e-01	1.462795e-03	-1.483239e-01
8.444151e-01	1.464711e-03	-1.539871e-01
8.497223e-01	1.450222e-03	-1.591660e-01
8.459670e-01	1.413875e-03	-1.648526e-01
8.409024e-01	1.460186e-03	-1.696742e-01
8.274817e-01	1.287233e-03	-1.749649e-01
8.129554e-01	1.348630e-03	-1.790364e-01
7.893681e-01	1.080857e-03	-1.841045e-01
7.628894e-01	1.127423e-03	-1.876927e-01
7.260522e-01	7.736557e-04	-1.934179e-01
6.815776e-01	7.834808e-04	-1.958812e-01
6.170935e-01	3.488692e-04	-1.983349e-01
5.338023e-01	4.362246e-04	-1.904146e-01
4.231975e-01	-5.813275e-05	-1.755713e-01
2.600486e-01	-3.949831e-04	-1.244220e-01
1.654705e-02	-5.881489e-04	-9.893606e-03
-3.303355e-01	-6.097057e-04	2.532692e-01
-7.669514e-01	-6.860921e-04	1.024070e+00
-4.888171e-01	-7.472707e-04	3.100597e+00
2.994406e+00	-8.306355e-04	2.998685e+00
3.102480e+00	-8.830411e-04	9.585718e-01
2.617457e+00	-9.785796e-04	6.751133e-02
2.234710e+00	-1.092748e-03	-2.004051e-01
1.967331e+00	-1.031059e-03	-3.621699e-01
1.775250e+00	-7.850273e-04	-4.251504e-01
1.610255e+00	-4.451195e-04	-4.729467e-01
1.487389e+00	-6.460468e-04	-4.885255e-01
1.379854e+00	-3.430904e-04	-5.012897e-01
1.292461e+00	-4.095873e-04	-4.982795e-01
1.216296e+00	-1.324757e-04	-4.958190e-01
1.150437e+00	-2.726501e-04	-4.852914e-01
1.091352e+00	-2.715417e-05	-4.763478e-01
1.037452e+00	-1.334504e-04	-4.632291e-01
9.871462e-01	-3.226488e-05	-4.517890e-01
9.370237e-01	-5.958788e-05	-4.364045e-01
8.892117e-01	-2.988643e-05	-4.220493e-01
8.395104e-01	-2.013124e-05	-4.034000e-01
7.888554e-01	-2.427879e-05	-3.832564e-01
7.423168e-01	-2.524855e-05	-3.622577e-01
8.155951e-01	1.195998e-03	-1.436233e-01
8.333605e-01	1.210700e-03	-1.482600e-01
8.446844e-01	1.203510e-03	-1.540362e-01
8.500324e-01	1.197878e-03	-1.592241e-01
8.463356e-01	1.086608e-03	-1.649244e-01
8.413550e-01	1.062432e-03	-1.697656e-01
8.275654e-01	9.892417e-04	-1.749826e-01
8.134839e-01	9.712379e-04	-1.791528e-01
7.902658e-01	9.461183e-04	-1.843139e-01
7.635058e-01	8.673177e-04	-1.878444e-01
7.274452e-01	7.786720e-04	-1.937890e-01
6.824518e-01	7.082261e-04	-1.961324e-01
6.174970e-01	6.278720e-04	-1.984645e-01
5.357896e-01	4.789489e-04	-1.911234e-01
4.249280e-01	3.444842e-04	-1.762892e-01
2.613028e-01	2.374733e-04	-1.250221e-01
1.886719e-02	8.913687e-05	-1.128083e-02
-3.269185e-01	-6.119536e-05	2.506494e-01
-7.629944e-01	-2.170272e-04	1.018787e+00
-4.875458e-01	-3.711033e-04	3.092533e+00
2.990221e+00	-5.477944e-04	2.994494e+00
3.098571e+00	-6.976449e-04	9.573639e-01
2.614009e+00	-8.446576e-04	6.742241e-02
2.231275e+00	-9.810414e-04	-2.000971e-01
1.965586e+00	-1.145139e-03	-3.618486e-01
1.774337e+00	-1.262761e-03	-4.249317e-01
1.608173e+00	-1.371156e-03	-4.723352e-01
1.485275e+00	-1.501605e-03	-4.878312e-01
1.379809e+00	-1.585906e-03	-5.012736e-01
1.292835e+00	-1.650168e-03	-4.984236e-01
1.215638e+00	-1.703223e-03	-4.955508e-01
1.150350e+00	-1.779770e-03	-4.852545e-01
1.091252e+00	-1.801593e-03	-4.763042e-01
1.036927e+00	-1.807693e-03	-4.629946e-01
9.870441e-01	-1.829680e-03	-4.517423e-01
9.369432e-01	-1.851156e-03	-4.363670e-01
8.891738e-01	-1.768894e-03	-4.220314e-01
8.395258e-01	-1.779361e-03	-4.034075e-01
7.883769e-01	-1.779132e-03	-3.830239e-01
7.397189e-01	-1.795625e-03	-3.609899e-01
8.158791e-01	1.711303e-03	-1.436733e-01
8.337019e-01	1.700375e-03	-1.483207e-01
8.448311e-01	1.576697e-03	-1.540630e-01
8.529559e-01	1.669266e-03	-1.597717e-01
8.485269e-01	1.696418e-03	-1.653514e-01
8.426355e-01	1.705133e-03	-1.700240e-01
8.288429e-01	1.662601e-03	-1.752527e-01
8.135709e-01	1.596669e-03	-1.791720e-01
7.907823e-01	1.523111e-03	-1.844343e-01
7.650877e-01	1.407448e-03	-1.882336e-01
7.281337e-01	1.265626e-03	-1.939724e-01
6.835866e-01	1.184383e-03	-1.964586e-01
6.202514e-01	9.806435e-04	-1.993498e-01
5.380295e-01	7.846188e-04	-1.919225e-01