# vtk DataFile Version 2.0
OUTPUT by 3D-VPM
ASCII
DATASET UNSTRUCTURED_GRID
POINTS 820 double
1.000000e+00	0.000000e+00	-2.263012e-03
9.931674e-01	0.000000e+00	-3.224837e-03
9.755282e-01	0.000000e+00	-5.676322e-03
9.448927e-01	0.000000e+00	-9.799422e-03
9.045085e-01	0.000000e+00	-1.503765e-02
8.530688e-01	0.000000e+00	-2.132907e-02
7.938926e-01	0.000000e+00	-2.816787e-02
7.266841e-01	0.000000e+00	-3.530421e-02
6.545085e-01	0.000000e+00	-4.235574e-02
5.781101e-01	0.000000e+00	-4.886723e-02
5.000000e-01	0.000000e+00	-5.457326e-02
4.218900e-01	0.000000e+00	-5.878034e-02
3.454915e-01	0.000000e+00	-6.140241e-02
2.733159e-01	0.000000e+00	-6.163232e-02
2.061074e-01	0.000000e+00	-5.971744e-02
1.469312e-01	0.000000e+00	-5.502690e-02
9.549150e-02	0.000000e+00	-4.819162e-02
5.510729e-02	0.000000e+00	-3.896056e-02
2.447174e-02	0.000000e+00	-2.812549e-02
6.832625e-03	0.000000e+00	-1.569650e-02
0.000000e+00	0.000000e+00	-2.263012e-03
6.832625e-03	0.000000e+00	1.117047e-02
2.447174e-02	0.000000e+00	2.359947e-02
5.510728e-02	0.000000e+00	3.443454e-02
9.549150e-02	0.000000e+00	4.366560e-02
1.469312e-01	0.000000e+00	5.050087e-02
2.061074e-01	0.000000e+00	5.519143e-02
2.733159e-01	0.000000e+00	5.710630e-02
3.454915e-01	0.000000e+00	5.687639e-02
4.218900e-01	0.000000e+00	5.425432e-02
5.000000e-01	0.000000e+00	5.004724e-02
5.781101e-01	0.000000e+00	4.434120e-02
6.545085e-01	0.000000e+00	3.782972e-02
7.266841e-01	0.000000e+00	3.077819e-02
7.938926e-01	0.000000e+00	2.364185e-02
8.530688e-01	0.000000e+00	1.680305e-02
9.045085e-01	0.000000e+00	1.051163e-02
9.448927e-01	0.000000e+00	5.273398e-03
9.755282e-01	0.000000e+00	1.150298e-03
9.931674e-01	0.000000e+00	-1.301187e-03
1.000000e+00	0.000000e+00	-2.263012e-03
1.000000e+00	1.052632e+00	-2.263012e-03
9.931674e-01	1.052632e+00	-3.224837e-03
9.755282e-01	1.052632e+00	-5.676322e-03
9.448927e-01	1.052632e+00	-9.799422e-03
9.045085e-01	1.052632e+00	-1.503765e-02
8.530689e-01	1.052632e+00	-2.132907e-02
7.938926e-01	1.052632e+00	-2.816787e-02
7.266841e-01	1.052632e+00	-3.530421e-02
6.545085e-01	1.052632e+00	-4.235574e-02
5.781101e-01	1.052632e+00	-4.886723e-02
5.000000e-01	1.052632e+00	-5.457326e-02
4.218900e-01	1.052632e+00	-5.878034e-02
3.454915e-01	1.052632e+00	-6.140241e-02
2.733158e-01	1.052632e+00	-6.163232e-02
2.061074e-01	1.052632e+00	-5.971744e-02
1.469311e-01	1.052632e+00	-5.502690e-02
9.549150e-02	1.052632e+00	-4.819162e-02
5.510729e-02	1.052632e+00	-3.896056e-02
2.447174e-02	1.052632e+00	-2.812549e-02
6.832625e-03	1.052632e+00	-1.569650e-02
0.000000e+00	1.052632e+00	-2.263012e-03
6.832625e-03	1.052632e+00	1.117047e-02
2.447174e-02	1.052632e+00	2.359947e-02
5.510728e-02	1.052632e+00	3.443454e-02
9.549150e-02	1.052632e+00	4.366560e-02
1.469311e-01	1.052632e+00	5.050087e-02
2.061074e-01	1.052632e+00	5.519143e-02
2.733158e-01	1.052632e+00	5.710630e-02
3.454915e-01	1.052632e+00	5.687639e-02
4.218900e-01	1.052632e+00	5.425432e-02
5.000000e-01	1.052632e+00	5.004724e-02
5.781101e-01	1.052632e+00	4.434120e-02
6.545085e-01	1.052632e+00	3.782972e-02
7.266841e-01	1.052632e+00	3.077819e-02
7.938926e-01	1.052632e+00	2.364185e-02
8.530689e-01	1.052632e+00	1.680305e-02
9.045085e-01	1.052632e+00	1.051163e-02
9.448927e-01	1.052632e+00	5.273398e-03
9.755282e-01	1.052632e+00	1.150298e-03
9.931674e-01	1.052632e+00	-1.301187e-03
1.000000e+00	1.052632e+00	-2.263012e-03
1.000000e+00	2.105263e+00	-2.263012e-03
9.931674e-01	2.105263e+00	-3.224837e-03
9.755282e-01	2.105263e+00	-5.676322e-03
9.448927e-01	2.105263e+00	-9.799422e-03
9.045085e-01	2.105263e+00	-1.503765e-02
8.530689e-01	2.105263e+00	-2.132907e-02
7.938926e-01	2.105263e+00	-2.816787e-02
7.266841e-01	2.105263e+00	-3.530421e-02
6.545085e-01	2.105263e+00	-4.235574e-02
5.781101e-01	2.105263e+00	-4.886723e-02
5.000000e-01	2.105263e+00	-5.457326e-02
4.218900e-01	2.105263e+00	-5.878034e-02
3.454915e-01	2.105263e+00	-6.140241e-02
2.733158e-01	2.105263e+00	-6.163232e-02
2.061074e-01	2.105263e+00	-5.971744e-02
1.469312e-01	2.105263e+00	-5.502690e-02
9.549150e-02	2.105263e+00	-4.819162e-02
5.510729e-02	2.105263e+00	-3.896056e-02
2.447174e-02	2.105263e+00	-2.812549e-02
6.832625e-03	2.105263e+00	-1.569650e-02
0.000000e+00	2.105263e+00	-2.263012e-03
6.832625e-03	2.105263e+00	1.117047e-02
2.447174e-02	2.105263e+00	2.359947e-02
5.510728e-02	2.105263e+00	3.443454e-02
9.549150e-02	2.105263e+00	4.366560e-02
1.469312e-01	2.105263e+00	5.050087e-02
2.061074e-01	2.105263e+00	5.519143e-02
2.733158e-01	2.105263e+00	5.710630e-02
3.454915e-01	2.105263e+00	5.687639e-02
4.218900e-01	2.105263e+00	5.425432e-02
5.000000e-01	2.105263e+00	5.004724e-02
5.781101e-01	2.105263e+00	4.434120e-02
6.545085e-01	2.105263e+00	3.782972e-02
7.266841e-01	2.105263e+00	3.077819e-02
7.938926e-01	2.105263e+00	2.364185e-02
8.530689e-01	2.105263e+00	1.680305e-02
9.045085e-01	2.105263e+00	1.051163e-02
9.448927e-01	2.105263e+00	5.273398e-03
9.755282e-01	2.105263e+00	1.150298e-03
9.931674e-01	2.105263e+00	-1.301187e-03
1.000000e+00	2.105263e+00	-2.263012e-03
1.000000e+00	3.157895e+00	-2.263012e-03
9.931674e-01	3.157895e+00	-3.224837e-03
9.755282e-01	3.157895e+00	-5.676322e-03
9.448927e-01	3.157895e+00	-9.799422e-03
9.045085e-01	3.157895e+00	-1.503765e-02
8.530689e-01	3.157895e+00	-2.132907e-02
7.938926e-01	3.157895e+00	-2.816787e-02
7.266842e-01	3.157895e+00	-3.530421e-02
6.545085e-01	3.157895e+00	-4.235574e-02
5.781101e-01	3.157895e+00	-4.886723e-02
5.000000e-01	3.157895e+00	-5.457326e-02
4.218900e-01	3.157895e+00	-5.878034e-02
3.454915e-01	3.157895e+00	-6.140241e-02
2.733158e-01	3.157895e+00	-6.163232e-02
2.061074e-01	3.157895e+00	-5.971744e-02
1.469312e-01	3.157895e+00	-5.502690e-02
9.549150e-02	3.157895e+00	-4.819162e-02
5.510729e-02	3.157895e+00	-3.896056e-02
2.447174e-02	3.157895e+00	-2.812549e-02
6.832625e-03	3.157895e+00	-1.569650e-02
0.000000e+00	3.157895e+00	-2.263012e-03
6.832625e-03	3.157895e+00	1.117047e-02
2.447174e-02	3.157895e+00	2.359947e-02
5.510728e-02	3.157895e+00	3.443454e-02
9.549150e-02	3.157895e+00	4.366560e-02
1.469312e-01	3.157895e+00	5.050087e-02
2.061074e-01	3.157895e+00	5.519143e-02
2.733158e-01	3.157895e+00	5.710630e-02
3.454915e-01	3.157895e+00	5.687639e-02
4.218900e-01	3.157895e+00	5.425432e-02
5.000000e-01	3.157895e+00	5.004724e-02
5.781101e-01	3.157895e+00	4.434120e-02
6.545085e-01	3.157895e+00	3.782972e-02
7.266842e-01	3.157895e+00	3.077819e-02
7.938926e-01	3.157895e+00	2.364185e-02
8.530689e-01	3.157895e+00	1.680305e-02
9.045085e-01	3.157895e+00	1.051163e-02
9.448927e-01	3.157895e+00	5.273398e-03
9.755282e-01	3.157895e+00	1.150298e-03
9.931674e-01	3.157895e+00	-1.301187e-03
1.000000e+00	3.157895e+00	-2.263012e-03
1.000000e+00	4.210526e+00	-2.263012e-03
9.931674e-01	4.210526e+00	-3.224837e-03
9.755282e-01	4.210526e+00	-5.676322e-03
9.448927e-01	4.210526e+00	-9.799422e-03
9.045085e-01	4.210526e+00	-1.503765e-02
8.530689e-01	4.210526e+00	-2.132907e-02
7.938926e-01	4.210526e+00	-2.816787e-02
7.266841e-01	4.210526e+00	-3.530421e-02
6.545085e-01	4.210526e+00	-4.235574e-02
5.781101e-01	4.210526e+00	-4.886723e-02
5.000000e-01	4.210526e+00	-5.457326e-02
4.218900e-01	4.210526e+00	-5.878034e-02
3.454915e-01	4.210526e+00	-6.140241e-02
2.733158e-01	4.210526e+00	-6.163232e-02
2.061074e-01	4.210526e+00	-5.971744e-02
1.469311e-01	4.210526e+00	-5.502690e-02
9.549150e-02	4.210526e+00	-4.819162e-02
5.510729e-02	4.210526e+00	-3.896056e-02
2.447174e-02	4.210526e+00	-2.812549e-02
6.832625e-03	4.210526e+00	-1.569650e-02
0.000000e+00	4.210526e+00	-2.263012e-03
6.832625e-03	4.210526e+00	1.117047e-02
2.447174e-02	4.210526e+00	2.359947e-02
5.510728e-02	4.210526e+00	3.443454e-02
9.549150e-02	4.210526e+00	4.366560e-02
1.469311e-01	4.210526e+00	5.050087e-02
2.061074e-01	4.210526e+00	5.519143e-02
2.733158e-01	4.210526e+00	5.710630e-02
3.454915e-01	4.210526e+00	5.687639e-02
4.218900e-01	4.210526e+00	5.425432e-02
5.000000e-01	4.210526e+00	5.004724e-02
5.781101e-01	4.210526e+00	4.434120e-02
6.545085e-01	4.210526e+00	3.782972e-02
7.266841e-01	4.210526e+00	3.077819e-02
7.938926e-01	4.210526e+00	2.364185e-02
8.530689e-01	4.210526e+00	1.680305e-02
9.045085e-01	4.210526e+00	1.051163e-02
9.448927e-01	4.210526e+00	5.273398e-03
9.755282e-01	4.210526e+00	1.150298e-03
9.931674e-01	4.210526e+00	-1.301187e-03
1.000000e+00	4.210526e+00	-2.263012e-03
1.000000e+00	5.263158e+00	-2.263012e-03
9.931674e-01	5.263158e+00	-3.224837e-03
9.755282e-01	5.263158e+00	-5.676322e-03
9.448927e-01	5.263158e+00	-9.799422e-03
9.045085e-01	5.263158e+00	-1.503765e-02
8.530689e-01	5.263158e+00	-2.132907e-02
7.938926e-01	5.263158e+00	-2.816787e-02
7.266842e-01	5.263158e+00	-3.530421e-02
6.545085e-01	5.263158e+00	-4.235574e-02
5.781101e-01	5.263158e+00	-4.886723e-02
5.000000e-01	5.263158e+00	-5.457326e-02
4.218900e-01	5.263158e+00	-5.878034e-02
3.454915e-01	5.263158e+00	-6.140241e-02
2.733158e-01	5.263158e+00	-6.163232e-02
2.061074e-01	5.263158e+00	-5.971744e-02
1.469311e-01	5.263158e+00	-5.502690e-02
9.549150e-02	5.263158e+00	-4.819162e-02
5.510729e-02	5.263158e+00	-3.896056e-02
2.447174e-02	5.263158e+00	-2.812549e-02
6.832625e-03	5.263158e+00	-1.569650e-02
0.000000e+00	5.263158e+00	-2.263012e-03
6.832625e-03	5.263158e+00	1.117047e-02
2.447174e-02	5.263158e+00	2.359947e-02
5.510728e-02	5.263158e+00	3.443454e-02
9.549150e-02	5.263158e+00	4.366560e-02
1.469311e-01	5.263158e+00	5.050087e-02
2.061074e-01	5.263158e+00	5.519143e-02
2.733158e-01	5.263158e+00	5.710630e-02
3.454915e-01	5.263158e+00	5.687639e-02
4.218900e-01	5.263158e+00	5.425432e-02
5.000000e-01	5.263158e+00	5.004724e-02
5.781101e-01	5.263158e+00	4.434120e-02
6.545085e-01	5.263158e+00	3.782972e-02
7.266842e-01	5.263158e+00	3.077819e-02
7.938926e-01	5.263158e+00	2.364185e-02
8.530689e-01	5.263158e+00	1.680305e-02
9.045085e-01	5.263158e+00	1.051163e-02
9.448927e-01	5.263158e+00	5.273398e-03
9.755282e-01	5.263158e+00	1.150298e-03
9.931674e-01	5.263158e+00	-1.301187e-03
1.000000e+00	5.263158e+00	-2.263012e-03
1.000000e+00	6.315789e+00	-2.263012e-03
9.931673e-01	6.315789e+00	-3.224837e-03
9.755282e-01	6.315789e+00	-5.676322e-03
9.448927e-01	6.315789e+00	-9.799422e-03
[...]
CELL_DATA 760
VECTORS V double
3.179844e-01	8.570504e-04	4.476233e-02
3.332504e-01	8.483802e-04	4.631506e-02
3.462951e-01	8.088918e-04	4.660637e-02
3.564915e-01	7.423350e-04	4.624047e-02
3.636639e-01	6.530898e-04	4.447857e-02
3.707439e-01	5.417488e-04	4.284562e-02
3.758694e-01	4.065895e-04	3.991063e-02
3.815653e-01	2.460402e-04	3.727876e-02
3.864695e-01	6.131821e-05	3.293903e-02
3.921825e-01	-1.421000e-04	2.864941e-02
3.974295e-01	-3.540113e-04	2.140594e-02
4.029286e-01	-5.603851e-04	1.382890e-02
4.074188e-01	-7.466448e-04	1.297801e-03
4.106058e-01	-8.990992e-04	-1.169884e-02
4.133519e-01	-1.010128e-03	-3.276392e-02
4.074792e-01	-1.076588e-03	-5.414563e-02
3.897804e-01	-1.102244e-03	-8.909635e-02
3.569954e-01	-1.093199e-03	-1.262609e-01
2.585327e-01	-1.055814e-03	-1.821691e-01
5.421241e-02	-9.971509e-04	-1.065859e-01
1.324936e-01	-9.068285e-04	2.604930e-01
3.443320e-01	-8.098549e-04	2.426256e-01
4.210436e-01	-6.916363e-04	1.489132e-01
4.361615e-01	-5.532832e-04	9.969819e-02
4.412160e-01	-3.858024e-04	5.862856e-02
4.379482e-01	-1.898840e-04	3.471359e-02
4.278310e-01	3.416967e-05	1.218955e-02
4.188472e-01	2.761151e-04	-1.334206e-03
4.092809e-01	5.230651e-04	-1.404692e-02
3.994674e-01	7.568831e-04	-2.151570e-02
3.901605e-01	9.614239e-04	-2.850170e-02
3.806883e-01	1.123948e-03	-3.244629e-02
3.720072e-01	1.238367e-03	-3.634494e-02
3.625930e-01	1.305685e-03	-3.850092e-02
3.536942e-01	1.332829e-03	-4.087525e-02
3.430893e-01	1.331105e-03	-4.196216e-02
3.330102e-01	1.313366e-03	-4.319472e-02
3.216385e-01	1.292100e-03	-4.328794e-02
3.101261e-01	1.277981e-03	-4.310126e-02
2.991958e-01	1.278297e-03	-4.211748e-02
3.187159e-01	4.920968e-04	4.486531e-02
3.347444e-01	4.858609e-04	4.652270e-02
3.481554e-01	4.614067e-04	4.685674e-02
3.584773e-01	4.208294e-04	4.649805e-02
3.657226e-01	3.667614e-04	4.473037e-02
3.729093e-01	2.998973e-04	4.309587e-02
3.781899e-01	2.197934e-04	4.015703e-02
3.840690e-01	1.261026e-04	3.752338e-02
3.891477e-01	1.993001e-05	3.316729e-02
3.949821e-01	-9.547176e-05	2.885393e-02
4.002554e-01	-2.144723e-04	2.155814e-02
4.056546e-01	-3.295369e-04	1.392245e-02
4.099005e-01	-4.329534e-04	1.305707e-03
4.127020e-01	-5.174826e-04	-1.175856e-02
4.149378e-01	-5.791040e-04	-3.288962e-02
4.084493e-01	-6.160682e-04	-5.427454e-02
3.900310e-01	-6.302714e-04	-8.915364e-02
3.563569e-01	-6.248210e-04	-1.260350e-01
2.568069e-01	-6.029484e-04	-1.809531e-01
5.192649e-02	-5.684353e-04	-1.020916e-01
1.354973e-01	-5.149534e-04	2.663985e-01
3.484639e-01	-4.573956e-04	2.455370e-01
4.250045e-01	-3.874488e-04	1.503141e-01
4.399154e-01	-3.062552e-04	1.005563e-01
4.449247e-01	-2.090833e-04	5.912137e-02
4.416569e-01	-9.679388e-05	3.500756e-02
4.315173e-01	3.021406e-05	1.229458e-02
4.224190e-01	1.661946e-04	-1.345583e-03
4.126136e-01	3.042288e-04	-1.416130e-02
4.024275e-01	4.346605e-04	-2.167514e-02
3.926359e-01	5.489996e-04	-2.868253e-02
3.826038e-01	6.405557e-04	-3.260954e-02
3.733329e-01	7.061512e-04	-3.647446e-02
3.633464e-01	7.463435e-04	-3.858092e-02
3.539328e-01	7.647840e-04	-4.090282e-02
3.429065e-01	7.674379e-04	-4.193981e-02
3.325278e-01	7.610593e-04	-4.313214e-02
3.210237e-01	7.522364e-04	-4.320520e-02
3.096509e-01	7.465843e-04	-4.303521e-02
2.992224e-01	7.477758e-04	-4.212123e-02
3.190367e-01	8.359862e-05	4.491046e-02
3.351308e-01	8.105450e-05	4.657640e-02
3.485737e-01	7.486692e-05	4.691303e-02
3.589032e-01	6.534224e-05	4.655329e-02
3.661453e-01	5.306907e-05	4.478206e-02
3.733249e-01	3.857195e-05	4.314390e-02
3.785961e-01	2.238531e-05	4.020016e-02
3.844632e-01	5.060954e-06	3.756189e-02
3.895269e-01	-1.277582e-05	3.319960e-02
3.953425e-01	-3.047918e-05	2.888025e-02
4.005922e-01	-4.738345e-05	2.157628e-02
4.059625e-01	-6.283066e-05	1.393302e-02
4.101729e-01	-7.627988e-05	1.306574e-03
4.129313e-01	-8.721753e-05	-1.176510e-02
4.151136e-01	-9.536264e-05	-3.290355e-02
4.085571e-01	-1.004650e-04	-5.428886e-02
3.900484e-01	-1.025229e-04	-8.915761e-02
3.562427e-01	-1.015788e-04	-1.259946e-01
2.565076e-01	-9.768561e-05	-1.807422e-01
5.151365e-02	-9.114319e-05	-1.012799e-01
1.360559e-01	-8.049136e-05	2.674967e-01
3.492269e-01	-6.879917e-05	2.460746e-01
4.257071e-01	-5.478878e-05	1.505626e-01
4.405373e-01	-3.924002e-05	1.006984e-01
4.454890e-01	-2.186731e-05	5.919636e-02
4.421731e-01	-3.344629e-06	3.504848e-02
4.319909e-01	1.601587e-05	1.230807e-02
4.228507e-01	3.543062e-05	-1.346958e-03
4.130029e-01	5.431742e-05	-1.417466e-02
4.027732e-01	7.194383e-05	-2.169375e-02
3.929374e-01	8.778797e-05	-2.870456e-02
3.828618e-01	1.014308e-04	-3.263154e-02
3.735496e-01	1.126699e-04	-3.649564e-02
3.635259e-01	1.215256e-04	-3.859997e-02
3.540807e-01	1.281808e-04	-4.091992e-02
3.430305e-01	1.329958e-04	-4.195497e-02
3.326376e-01	1.363728e-04	-4.314638e-02
3.211339e-01	1.387649e-04	-4.322003e-02
3.097825e-01	1.405628e-04	-4.305349e-02
2.993968e-01	1.418494e-04	-4.214578e-02
3.191452e-01	2.879742e-05	4.492574e-02
3.352536e-01	2.787259e-05	4.659347e-02
3.487024e-01	2.576696e-05	4.693035e-02
3.590316e-01	2.260227e-05	4.656995e-02
3.662707e-01	1.858803e-05	4.479741e-02
3.734469e-01	1.390757e-05	4.315800e-02
3.787146e-01	8.726706e-06	4.021274e-02
3.845781e-01	3.203725e-06	3.757311e-02
3.896377e-01	-2.483687e-06	3.320905e-02
3.954486e-01	-8.153216e-06	2.888800e-02
4.006926e-01	-1.361619e-05	2.158169e-02
4.060560e-01	-1.868212e-05	1.393623e-02
4.102579e-01	-2.318919e-05	1.306845e-03
4.130055e-01	-2.696972e-05	-1.176721e-02
4.151742e-01	-2.992208e-05	-3.290836e-02
4.085999e-01	-3.193934e-05	-5.429455e-02
3.900665e-01	-3.299342e-05	-8.916176e-02
3.562239e-01	-3.305697e-05	-1.259880e-01
2.564345e-01	-3.212917e-05	-1.806907e-01
5.140140e-02	-3.027224e-05	-1.010593e-01
1.362154e-01	-2.703470e-05	2.678103e-01
3.494492e-01	-2.336250e-05	2.462313e-01
4.259133e-01	-1.889675e-05	1.506355e-01
4.407199e-01	-1.391284e-05	1.007402e-01
4.456544e-01	-8.342794e-06	5.921833e-02
4.423241e-01	-2.413258e-06	3.506044e-02
4.321297e-01	3.783509e-06	1.231203e-02
4.229782e-01	1.002227e-05	-1.347365e-03
4.131198e-01	1.615294e-05	-1.417867e-02
4.028796e-01	2.197378e-05	-2.169948e-02
3.930335e-01	2.733907e-05	-2.871158e-02
3.829474e-01	3.211131e-05	-3.263884e-02
3.736247e-01	3.619323e-05	-3.650298e-02
3.635905e-01	3.953512e-05	-3.860684e-02
3.541351e-01	4.212652e-05	-4.092621e-02
3.430757e-01	4.402630e-05	-4.196050e-02
3.326753e-01	4.533738e-05	-4.315127e-02
3.211677e-01	4.620667e-05	-4.322458e-02
3.098178e-01	4.678502e-05	-4.305840e-02
2.994395e-01	4.714803e-05	-4.215179e-02
3.191927e-01	1.344045e-05	4.493243e-02
3.353061e-01	1.301381e-05	4.660076e-02
3.487568e-01	1.206646e-05	4.693767e-02
3.590856e-01	1.065008e-05	4.657695e-02
3.663232e-01	8.857528e-06	4.480382e-02
3.734976e-01	6.774786e-06	4.316386e-02
3.787636e-01	4.480255e-06	4.021795e-02
3.846255e-01	2.043528e-06	3.757775e-02
3.896834e-01	-4.643943e-07	3.321295e-02
3.954925e-01	-2.970309e-06	2.889121e-02
4.007345e-01	-5.398031e-06	2.158395e-02
4.060954e-01	-7.668969e-06	1.393758e-02
4.102943e-01	-9.715905e-06	1.306961e-03
4.130382e-01	-1.146673e-05	-1.176814e-02
4.152020e-01	-1.287452e-05	-3.291056e-02
4.086211e-01	-1.388520e-05	-5.429736e-02
3.900783e-01	-1.447925e-05	-8.916445e-02
3.562212e-01	-1.463301e-05	-1.259870e-01
2.564100e-01	-1.434195e-05	-1.806734e-01
5.135899e-02	-1.362207e-05	-1.009759e-01
1.362786e-01	-1.228246e-05	2.679345e-01
3.495393e-01	-1.071599e-05	2.462948e-01
4.259978e-01	-8.780510e-06	1.506654e-01
4.407952e-01	-6.600391e-06	1.007574e-01
4.457228e-01	-4.151203e-06	5.922742e-02
4.423867e-01	-1.536348e-06	3.506540e-02
4.321873e-01	1.201665e-06	1.231367e-02
4.230313e-01	3.963788e-06	-1.347534e-03
4.131686e-01	6.685834e-06	-1.418034e-02
4.029243e-01	9.282672e-06	-2.170189e-02
3.930741e-01	1.169247e-05	-2.871455e-02
3.829841e-01	1.385603e-05	-3.264196e-02
3.736574e-01	1.573176e-05	-3.650616e-02
3.636192e-01	1.729496e-05	-3.860988e-02
3.541599e-01	1.853828e-05	-4.092907e-02
3.430969e-01	1.947551e-05	-4.196309e-02
3.326935e-01	2.014270e-05	-4.315364e-02
3.211842e-01	2.059591e-05	-4.322680e-02
3.098344e-01	2.089226e-05	-4.306071e-02
2.994581e-01	2.106254e-05	-4.215440e-02
3.192172e-01	7.517905e-06	4.493587e-02
3.353328e-01	7.288468e-06	4.660448e-02
3.487845e-01	6.784944e-06	4.694140e-02
3.591131e-01	6.033004e-06	4.658052e-02
3.663500e-01	5.077539e-06	4.480711e-02
3.735236e-01	3.963009e-06	4.316686e-02
3.787886e-01	2.734338e-06	4.022060e-02
3.846497e-01	1.430904e-06	3.758011e-02
3.897068e-01	9.072228e-08	3.321494e-02
3.955151e-01	-1.251409e-06	2.889286e-02
4.007561e-01	-2.559097e-06	2.158511e-02
4.061159e-01	-3.792147e-06	1.393829e-02
4.103135e-01	-4.914910e-06	1.307022e-03
4.130557e-01	-5.888130e-06	-1.176864e-02
4.152172e-01	-6.685923e-06	-3.291177e-02
4.086332e-01	-7.277282e-06	-5.429897e-02
3.900859e-01	-7.649969e-06	-8.916619e-02
3.562219e-01	-7.787607e-06	-1.259873e-01
2.563998e-01	-7.687066e-06	-1.806662e-01
5.133922e-02	-7.352342e-06	-1.009370e-01
1.363093e-01	-6.686905e-06	2.679949e-01
3.495839e-01	-5.886325e-06	2.463262e-01
4.260400e-01	-4.882404e-06	1.506803e-01
4.408331e-01	-3.741187e-06	1.007660e-01
4.457573e-01	-2.451567e-06	5.923201e-02
4.424183e-01	-1.069111e-06	3.506791e-02
4.322166e-01	3.832734e-07	1.231450e-02
4.230583e-01	1.853480e-06	-1.347620e-03
4.131935e-01	3.308330e-06	-1.418120e-02
4.029472e-01	4.703345e-06	-2.170313e-02
3.930952e-01	6.006590e-06	-2.871608e-02
3.830032e-01	7.186902e-06	-3.264359e-02
3.736747e-01	8.223130e-06	-3.650785e-02
3.636346e-01	9.099649e-06	-3.861152e-02
3.541736e-01	9.809348e-06	-4.093065e-02
3.431088e-01	1.035677e-05	-4.196455e-02
3.327040e-01	1.075499e-05	-4.315500e-02
3.211938e-01	1.103009e-05	-4.322809e-02
3.098438e-01	1.120948e-05	-4.306202e-02
2.994683e-01	1.130816e-05	-4.215584e-02
3.192315e-01	4.740126e-06	4.493788e-02
3.353483e-01	4.603770e-06	4.660663e-02
3.488004e-01	4.306494e-06	4.694354e-02
3.591289e-01	3.863435e-06	4.658257e-02
3.663655e-01	3.300258e-06	4.480900e-02
3.735387e-01	2.640726e-06	4.316861e-02
3.788032e-01	1.909764e-06	4.022216e-02
3.846638e-01	1.130664e-06	3.758149e-02
3.897204e-01	3.284182e-07	3.321610e-02
3.955282e-01	-4.752755e-07	2.889382e-02
4.007688e-01	-1.260208e-06	2.158580e-02
4.061281e-01	-2.005478e-06	1.393871e-02
4.103250e-01	-2.691291e-06	1.307059e-03
4.130663e-01	-3.294126e-06	-1.176894e-02
4.152267e-01	-3.797778e-06	-3.291252e-02
4.086410e-01	-4.182325e-06	-5.430001e-02
3.900914e-01	-4.439410e-06	-8.916744e-02
3.562235e-01	-4.557034e-06	-1.259879e-01
2.563954e-01	-4.533006e-06	-1.806631e-01
5.132896e-02	-4.366804e-06	-1.009168e-01
1.363261e-01	-4.004650e-06	2.680279e-01
3.496088e-01	-3.553128e-06	2.463438e-01
4.260639e-01	-2.976618e-06	1.506887e-01
4.408547e-01	-2.313880e-06	1.007710e-01
4.457771e-01	-1.559398e-06	5.923464e-02
4.424366e-01	-7.462937e-07	3.506936e-02
4.322335e-01	1.116562e-07	1.231498e-02
4.230740e-01	9.835946e-07	-1.347670e-03
4.132081e-01	1.849954e-06	-1.418170e-02
4.029607e-01	2.684706e-06	-2.170385e-02
3.931076e-01	3.469987e-06	-2.871699e-02
3.830147e-01	4.188376e-06	-3.264457e-02
3.736851e-01	4.825494e-06	-3.650888e-02
3.636441e-01	5.371496e-06	-3.861253e-02
3.541820e-01	5.819377e-06	-4.093163e-02
3.431164e-01	6.171472e-06	-4.196547e-02
3.327108e-01	6.433625e-06	-4.315588e-02
3.212001e-01	6.618219e-06	-4.322893e-02
3.098500e-01	6.738712e-06	-4.306288e-02
2.994747e-01	6.802778e-06	-4.215675e-02
3.192402e-01	3.007200e-06	4.493911e-02
3.353578e-01	2.954466e-06	4.660794e-02
3.488102e-01	2.838058e-06	4.694486e-02
3.591387e-01	2.669590e-06	4.658383e-02
3.663751e-01	2.467180e-06	4.481017e-02
3.735479e-01	2.242835e-06	4.316968e-02
3.788123e-01	1.993108e-06	4.022311e-02
3.846726e-01	1.708114e-06	3.758234e-02
3.897289e-01	1.371403e-06	3.321683e-02
3.955365e-01	9.728652e-07	2.889442e-02
4.007768e-01	5.192984e-07	2.158622e-02
4.061358e-01	3.769443e-08	1.393897e-02
4.103323e-01	-4.329767e-07	1.307082e-03
4.130732e-01	-8.514373e-07	-1.176914e-02
4.152330e-01	-1.193378e-06	-3.291302e-02
4.086464e-01	-1.446204e-06	-5.430073e-02
3.900954e-01	-1.612975e-06	-8.916836e-02
3.562254e-01	-1.694242e-06	-1.259885e-01
2.563937e-01	-1.693416e-06	-1.806619e-01
5.132348e-02	-1.610490e-06	-1.009060e-01
1.363357e-01	-1.416112e-06	2.680469e-01
3.496235e-01	-1.167549e-06	2.463541e-01
4.260782e-01	-8.462597e-07	1.506938e-01
4.408678e-01	-4.728040e-07	1.007739e-01
4.457892e-01	-3.960941e-08	5.923624e-02
4.424478e-01	4.426700e-07	3.507025e-02
4.322439e-01	9.743524e-07	1.231528e-02
4.230837e-01	1.537183e-06	-1.347701e-03
4.132171e-01	2.105494e-06	-1.418201e-02
4.029691e-01	2.636313e-06	-2.170431e-02
3.931154e-01	3.090818e-06	-2.871757e-02
3.830219e-01	3.443563e-06	-3.264518e-02
3.736918e-01	3.692277e-06	-3.650953e-02
3.636502e-01	3.855500e-06	-3.861318e-02
3.541876e-01	3.960728e-06	-4.093227e-02
3.431215e-01	4.031537e-06	-4.196609e-02
3.327154e-01	4.085517e-06	-4.315648e-02
3.212044e-01	4.129206e-06	-4.322952e-02
3.098542e-01	4.163720e-06	-4.306347e-02
2.994791e-01	4.186304e-06	-4.215736e-02
3.192404e-01	-3.337724e-04	4.493913e-02
3.353580e-01	-3.343827e-04	4.660798e-02
3.488102e-01	-3.362965e-04	4.694487e-02
3.591383e-01	-3.329310e-04	4.658379e-02
3.663743e-01	-3.225284e-04	4.481007e-02
3.735470e-01	-3.345588e-04	4.316957e-02
3.788116e-01	-2.816101e-04	4.022305e-02
3.846728e-01	-3.047463e-04	3.758237e-02
3.897306e-01	-2.184305e-04	3.321697e-02
3.955397e-01	-2.510603e-04	2.889466e-02
4.007815e-01	-1.325013e-04	2.158648e-02
4.061413e-01	-1.723892e-04	1.393916e-02
4.103380e-01	-2.907881e-05	1.307100e-03
4.130784e-01	-7.543201e-05	-1.176929e-02
4.152372e-01	8.651800e-05	-3.291336e-02
4.086497e-01	1.888793e-04	-5.430116e-02
3.900976e-01	2.364280e-04	-8.916887e-02
3.562264e-01	2.187399e-04	-1.259889e-01
2.563929e-01	2.101382e-04	-1.806613e-01
5.132074e-02	2.067613e-04	-1.009007e-01
1.363405e-01	2.068458e-04	2.680563e-01
3.496308e-01	2.103669e-04	2.463593e-01
4.260853e-01	2.191087e-04	1.506963e-01
4.408744e-01	2.369239e-04	1.007755e-01
4.457958e-01	1.894905e-04	5.923712e-02
4.424545e-01	8.722941e-05	3.507078e-02
4.322508e-01	-7.463769e-05	1.231548e-02
4.230905e-01	-2.822002e-05	-1.347723e-03
4.132233e-01	-1.714854e-04	-1.418222e-02
4.029740e-01	-1.315735e-04	-2.170457e-02
3.931185e-01	-2.501289e-04	-2.871779e-02
3.830230e-01	-2.175155e-04	-3.264528e-02
3.736911e-01	-3.038630e-04	-3.650946e-02
3.636484e-01	-2.807712e-04	-3.861298e-02
3.541852e-01	-3.337700e-04	-4.093199e-02
3.431189e-01	-3.217914e-04	-4.196579e-02
3.327133e-01	-3.322403e-04	-4.315620e-02
3.212027e-01	-3.356420e-04	-4.322929e-02
3.098531e-01	-3.337492e-04	-4.306331e-02
2.994786e-01	-3.331456e-04	-4.215728e-02
3.193432e-01	1.070970e-08	4.495361e-02
3.355091e-01	9.624980e-09	4.662898e-02
3.487279e-01	1.041823e-08	4.693379e-02
3.587717e-01	1.194369e-08	4.653623e-02
3.664503e-01	1.353001e-08	4.481937e-02
3.727586e-01	1.391676e-08	4.307846e-02
3.784039e-01	1.558842e-08	4.017975e-02
3.837085e-01	1.666985e-08	3.748816e-02
3.890200e-01	1.687245e-08	3.315640e-02
3.943681e-01	1.612835e-08	2.880907e-02
3.997010e-01	1.439442e-08	2.152828e-02
4.047520e-01	1.203052e-08	1.389148e-02
4.088275e-01	9.741177e-09	1.302289e-03
4.114067e-01	7.279158e-09	-1.172166e-02
4.105173e-01	4.557827e-09	-3.253923e-02
4.055095e-01	1.398673e-09	-5.388390e-02
3.891863e-01	-2.233297e-09	-8.896055e-02
3.570715e-01	-6.108051e-09	-1.262878e-01
2.568849e-01	-1.013986e-08	-1.810080e-01
5.144780e-02	-1.394205e-08	-1.011505e-01
1.364699e-01	-1.787853e-08	2.683106e-01
3.501253e-01	-2.074375e-08	2.467077e-01
4.269324e-01	-2.305553e-08	1.509959e-01
4.399645e-01	-2.471030e-08	1.005675e-01
4.426566e-01	-2.578313e-08	5.881999e-02
4.377353e-01	-2.618990e-08	3.469672e-02
4.305797e-01	-2.580194e-08	1.226787e-02
4.215805e-01	-2.455475e-08	-1.342912e-03
4.118343e-01	-2.337154e-08	-1.413455e-02
4.018937e-01	-2.147533e-08	-2.164638e-02
3.919469e-01	-1.983597e-08	-2.863220e-02
3.823123e-01	-1.866241e-08	-3.258471e-02
3.727267e-01	-1.791564e-08	-3.641524e-02
3.632404e-01	-1.734533e-08	-3.856966e-02
3.533966e-01	-1.695352e-08	-4.084085e-02
3.431947e-01	-1.534571e-08	-4.197505e-02
3.323463e-01	-1.491744e-08	-4.310861e-02
3.211202e-01	-1.517883e-08	-4.321818e-02
3.100040e-01	-1.655589e-08	-4.308428e-02
2.995809e-01	-1.898296e-08	-4.217169e-02
3.192405e-01	3.338409e-04	4.493916e-02
3.353580e-01	3.344554e-04	4.660798e-02
3.488102e-01	3.363741e-04	4.694486e-02
3.591383e-01	3.330120e-04	4.658378e-02
3.663742e-01	3.226128e-04	4.481007e-02
3.735469e-01	3.346463e-04	4.316956e-02
3.788116e-01	2.816996e-04	4.022304e-02
3.846728e-01	3.048357e-04	3.758237e-02
3.897306e-01	2.185173e-04	3.321697e-02
3.955398e-01	2.511421e-04	2.889467e-02
4.007815e-01	1.325764e-04	2.158648e-02
4.061414e-01	1.724564e-04	1.393916e-02
4.103381e-01	2.913713e-05	1.307100e-03
4.130785e-01	7.548017e-05	-1.176929e-02
4.152374e-01	-8.648147e-05	-3.291336e-02
4.086498e-01	-1.888555e-04	-5.430118e-02
3.900978e-01	-2.364178e-04	-8.916891e-02
3.562266e-01	-2.187433e-04	-1.259890e-01
2.563932e-01	-2.101550e-04	-1.806615e-01
5.132099e-02	-2.068013e-04	-1.009012e-01
1.363403e-01	-2.068999e-04	2.680558e-01
3.496306e-01	-2.104216e-04	2.463591e-01
4.260852e-01	-2.191731e-04	1.506963e-01
4.408744e-01	-2.369957e-04	1.007755e-01
4.457957e-01	-1.895675e-04	5.923711e-02
4.424545e-01	-8.730968e-05	3.507078e-02
4.322508e-01	7.455584e-05	1.231548e-02
4.230906e-01	2.813819e-05	-1.347723e-03
4.132234e-01	1.714051e-04	-1.418222e-02
4.029741e-01	1.314959e-04	-2.170457e-02
3.931186e-01	2.500544e-04	-2.871779e-02
3.830230e-01	2.174439e-04	-3.264528e-02
3.736911e-01	3.037943e-04	-3.650946e-02
3.636484e-01	2.807060e-04	-3.861298e-02
3.541852e-01	3.337094e-04	-4.093199e-02
3.431190e-01	3.217371e-04	-4.196579e-02
3.327133e-01	3.321939e-04	-4.315620e-02
3.212027e-01	3.356046e-04	-4.322929e-02
3.098529e-01	3.337192e-04	-4.306329e-02
2.994781e-01	3.331208e-04	-4.215723e-02
3.192395e-01	-2.904940e-06	4.493901e-02
3.353573e-01	-2.845430e-06	4.660788e-02
3.488099e-01	-2.722567e-06	4.694482e-02
3.591385e-01	-2.548260e-06	4.658381e-02
3.663749e-01	-2.340371e-06	4.481015e-02
3.735479e-01	-2.110783e-06	4.316967e-02
3.788122e-01	-1.859468e-06	4.022311e-02
3.846726e-01	-1.575378e-06	3.758235e-02
3.897290e-01	-1.241822e-06	3.321684e-02
3.955366e-01	-8.478053e-07	2.889444e-02
4.007770e-01	-3.996754e-07	2.158623e-02
4.061360e-01	7.460167e-08	1.393898e-02
4.103326e-01	5.346181e-07	1.307083e-03
4.130736e-01	9.391891e-07	-1.176915e-02
4.152334e-01	1.264468e-06	-3.291305e-02
4.086469e-01	1.498908e-06	-5.430080e-02
3.900961e-01	1.646164e-06	-8.916851e-02
3.562262e-01	1.707747e-06	-1.259888e-01
2.563950e-01	1.686847e-06	-1.806628e-01
5.132472e-02	1.584756e-06	-1.009085e-01
1.363353e-01	1.369695e-06	2.680461e-01
3.496231e-01	1.105062e-06	2.463538e-01
4.260777e-01	7.697112e-07	1.506936e-01
4.408675e-01	3.851030e-07	1.007739e-01
4.457890e-01	-5.656931e-08	5.923622e-02
4.424477e-01	-5.444965e-07	3.507024e-02
4.322439e-01	-1.079351e-06	1.231528e-02
4.230837e-01	-1.643275e-06	-1.347701e-03
4.132171e-01	-2.210167e-06	-1.418201e-02
4.029692e-01	-2.738001e-06	-2.170431e-02
3.931155e-01	-3.187458e-06	-2.871757e-02
3.830220e-01	-3.533476e-06	-3.264519e-02
3.736919e-01	-3.774980e-06	-3.650954e-02
3.636504e-01	-3.930716e-06	-3.861319e-02
3.541878e-01	-4.027578e-06	-4.093229e-02
3.431217e-01	-4.089874e-06	-4.196613e-02
3.327159e-01	-4.133009e-06	-4.315654e-02
3.212050e-01	-4.164631e-06	-4.322959e-02
3.098549e-01	-4.187163e-06	-4.306357e-02
2.994800e-01	-4.200230e-06	-4.215748e-02
3.192305e-01	-4.630901e-06	4.493774e-02
3.353476e-01	-4.491025e-06	4.660653e-02
3.487999e-01	-4.189691e-06	4.694347e-02
3.591286e-01	-3.741091e-06	4.658253e-02
3.663653e-01	-3.173895e-06	4.480897e-02
3.735385e-01	-2.512905e-06	4.316859e-02
3.788032e-01	-1.783066e-06	4.022215e-02
3.846638e-01	-1.006546e-06	3.758149e-02
3.897205e-01	-2.067757e-07	3.321611e-02
3.955284e-01	5.939026e-07	2.889384e-02
4.007691e-01	1.373156e-06	2.158581e-02
4.061284e-01	2.108226e-06	1.393872e-02
4.103254e-01	2.779328e-06	1.307060e-03
4.130669e-01	3.364062e-06	-1.176896e-02
4.152274e-01	3.847253e-06	-3.291258e-02
4.086419e-01	4.209968e-06	-5.430013e-02
3.900925e-01	4.444166e-06	-8.916769e-02
3.562250e-01	4.538729e-06	-1.259884e-01
2.563972e-01	4.490999e-06	-1.806643e-01