# vtk DataFile Version 2.0
OUTPUT by 3D-VPM
ASCII
DATASET UNSTRUCTURED_GRID
POINTS 820 double
1.000000e+00	0.000000e+00	1.276239e-04
9.931674e-01	0.000000e+00	-8.342011e-04
9.755282e-01	0.000000e+00	-3.285686e-03
9.448927e-01	0.000000e+00	-7.408786e-03
9.045085e-01	0.000000e+00	-1.264702e-02
8.530688e-01	0.000000e+00	-1.893844e-02
7.938926e-01	0.000000e+00	-2.577724e-02
7.266841e-01	0.000000e+00	-3.291358e-02
6.545085e-01	0.000000e+00	-3.996511e-02
5.781101e-01	0.000000e+00	-4.647659e-02
5.000000e-01	0.000000e+00	-5.218263e-02
4.218900e-01	0.000000e+00	-5.638971e-02
3.454915e-01	0.000000e+00	-5.901178e-02
2.733159e-01	0.000000e+00	-5.924169e-02
2.061074e-01	0.000000e+00	-5.732681e-02
1.469312e-01	0.000000e+00	-5.263626e-02
9.549150e-02	0.000000e+00	-4.580099e-02
5.510729e-02	0.000000e+00	-3.656993e-02
2.447174e-02	0.000000e+00	-2.573486e-02
6.832625e-03	0.000000e+00	-1.330586e-02
0.000000e+00	0.000000e+00	1.276239e-04
6.832625e-03	0.000000e+00	1.356111e-02
2.447174e-02	0.000000e+00	2.599010e-02
5.510728e-02	0.000000e+00	3.682517e-02
9.549150e-02	0.000000e+00	4.605623e-02
1.469312e-01	0.000000e+00	5.289151e-02
2.061074e-01	0.000000e+00	5.758206e-02
2.733159e-01	0.000000e+00	5.949693e-02
3.454915e-01	0.000000e+00	5.926702e-02
4.218900e-01	0.000000e+00	5.664495e-02
5.000000e-01	0.000000e+00	5.243787e-02
5.781101e-01	0.000000e+00	4.673184e-02
6.545085e-01	0.000000e+00	4.022035e-02
7.266841e-01	0.000000e+00	3.316882e-02
7.938926e-01	0.000000e+00	2.603248e-02
8.530688e-01	0.000000e+00	1.919368e-02
9.045085e-01	0.000000e+00	1.290226e-02
9.448927e-01	0.000000e+00	7.664034e-03
9.755282e-01	0.000000e+00	3.540934e-03
9.931674e-01	0.000000e+00	1.089449e-03
1.000000e+00	0.000000e+00	1.276239e-04
1.000000e+00	1.052632e+00	1.276239e-04
9.931674e-01	1.052632e+00	-8.342011e-04
9.755282e-01	1.052632e+00	-3.285686e-03
9.448927e-01	1.052632e+00	-7.408786e-03
9.045085e-01	1.052632e+00	-1.264702e-02
8.530689e-01	1.052632e+00	-1.893844e-02
7.938926e-01	1.052632e+00	-2.577724e-02
7.266841e-01	1.052632e+00	-3.291358e-02
6.545085e-01	1.052632e+00	-3.996511e-02
5.781101e-01	1.052632e+00	-4.647659e-02
5.000000e-01	1.052632e+00	-5.218263e-02
4.218900e-01	1.052632e+00	-5.638971e-02
3.454915e-01	1.052632e+00	-5.901178e-02
2.733158e-01	1.052632e+00	-5.924169e-02
2.061074e-01	1.052632e+00	-5.732681e-02
1.469311e-01	1.052632e+00	-5.263626e-02
9.549150e-02	1.052632e+00	-4.580099e-02
5.510729e-02	1.052632e+00	-3.656993e-02
2.447174e-02	1.052632e+00	-2.573486e-02
6.832625e-03	1.052632e+00	-1.330586e-02
0.000000e+00	1.052632e+00	1.276239e-04
6.832625e-03	1.052632e+00	1.356111e-02
2.447174e-02	1.052632e+00	2.599010e-02
5.510728e-02	1.052632e+00	3.682517e-02
9.549150e-02	1.052632e+00	4.605623e-02
1.469311e-01	1.052632e+00	5.289151e-02
2.061074e-01	1.052632e+00	5.758206e-02
2.733158e-01	1.052632e+00	5.949693e-02
3.454915e-01	1.052632e+00	5.926702e-02
4.218900e-01	1.052632e+00	5.664495e-02
5.000000e-01	1.052632e+00	5.243787e-02
5.781101e-01	1.052632e+00	4.673184e-02
6.545085e-01	1.052632e+00	4.022035e-02
7.266841e-01	1.052632e+00	3.316882e-02
7.938926e-01	1.052632e+00	2.603248e-02
8.530689e-01	1.052632e+00	1.919368e-02
9.045085e-01	1.052632e+00	1.290226e-02
9.448927e-01	1.052632e+00	7.664034e-03
9.755282e-01	1.052632e+00	3.540934e-03
9.931674e-01	1.052632e+00	1.089449e-03
1.000000e+00	1.052632e+00	1.276239e-04
1.000000e+00	2.105263e+00	1.276239e-04
9.931674e-01	2.105263e+00	-8.342011e-04
9.755282e-01	2.105263e+00	-3.285686e-03
9.448927e-01	2.105263e+00	-7.408786e-03
9.045085e-01	2.105263e+00	-1.264702e-02
8.530689e-01	2.105263e+00	-1.893844e-02
7.938926e-01	2.105263e+00	-2.577724e-02
7.266841e-01	2.105263e+00	-3.291358e-02
6.545085e-01	2.105263e+00	-3.996511e-02
5.781101e-01	2.105263e+00	-4.647659e-02
5.000000e-01	2.105263e+00	-5.218263e-02
4.218900e-01	2.105263e+00	-5.638971e-02
3.454915e-01	2.105263e+00	-5.901178e-02
2.733158e-01	2.105263e+00	-5.924169e-02
2.061074e-01	2.105263e+00	-5.732681e-02
1.469312e-01	2.105263e+00	-5.263626e-02
9.549150e-02	2.105263e+00	-4.580099e-02
5.510729e-02	2.105263e+00	-3.656993e-02
2.447174e-02	2.105263e+00	-2.573486e-02
6.832625e-03	2.105263e+00	-1.330586e-02
0.000000e+00	2.105263e+00	1.276239e-04
6.832625e-03	2.105263e+00	1.356111e-02
2.447174e-02	2.105263e+00	2.599010e-02
5.510728e-02	2.105263e+00	3.682517e-02
9.549150e-02	2.105263e+00	4.605623e-02
1.469312e-01	2.105263e+00	5.289151e-02
2.061074e-01	2.105263e+00	5.758206e-02
2.733158e-01	2.105263e+00	5.949693e-02
3.454915e-01	2.105263e+00	5.926702e-02
4.218900e-01	2.105263e+00	5.664495e-02
5.000000e-01	2.105263e+00	5.243787e-02
5.781101e-01	2.105263e+00	4.673184e-02
6.545085e-01	2.105263e+00	4.022035e-02
7.266841e-01	2.105263e+00	3.316882e-02
7.938926e-01	2.105263e+00	2.603248e-02
8.530689e-01	2.105263e+00	1.919368e-02
9.045085e-01	2.105263e+00	1.290226e-02
9.448927e-01	2.105263e+00	7.664034e-03
9.755282e-01	2.105263e+00	3.540934e-03
9.931674e-01	2.105263e+00	1.089449e-03
1.000000e+00	2.105263e+00	1.276239e-04
1.000000e+00	3.157895e+00	1.276239e-04
9.931674e-01	3.157895e+00	-8.342011e-04
9.755282e-01	3.157895e+00	-3.285686e-03
9.448927e-01	3.157895e+00	-7.408786e-03
9.045085e-01	3.157895e+00	-1.264702e-02
8.530689e-01	3.157895e+00	-1.893844e-02
7.938926e-01	3.157895e+00	-2.577724e-02
7.266842e-01	3.157895e+00	-3.291358e-02
6.545085e-01	3.157895e+00	-3.996511e-02
5.781101e-01	3.157895e+00	-4.647659e-02
5.000000e-01	3.157895e+00	-5.218263e-02
4.218900e-01	3.157895e+00	-5.638971e-02
3.454915e-01	3.157895e+00	-5.901178e-02
2.733158e-01	3.157895e+00	-5.924169e-02
2.061074e-01	3.157895e+00	-5.732681e-02
1.469312e-01	3.157895e+00	-5.263626e-02
9.549150e-02	3.157895e+00	-4.580099e-02
5.510729e-02	3.157895e+00	-3.656993e-02
2.447174e-02	3.157895e+00	-2.573486e-02
6.832625e-03	3.157895e+00	-1.330586e-02
0.000000e+00	3.157895e+00	1.276239e-04
6.832625e-03	3.157895e+00	1.356111e-02
2.447174e-02	3.157895e+00	2.599010e-02
5.510728e-02	3.157895e+00	3.682517e-02
9.549150e-02	3.157895e+00	4.605623e-02
1.469312e-01	3.157895e+00	5.289151e-02
2.061074e-01	3.157895e+00	5.758206e-02
2.733158e-01	3.157895e+00	5.949693e-02
3.454915e-01	3.157895e+00	5.926702e-02
4.218900e-01	3.157895e+00	5.664495e-02
5.000000e-01	3.157895e+00	5.243787e-02
5.781101e-01	3.157895e+00	4.673184e-02
6.545085e-01	3.157895e+00	4.022035e-02
7.266842e-01	3.157895e+00	3.316882e-02
7.938926e-01	3.157895e+00	2.603248e-02
8.530689e-01	3.157895e+00	1.919368e-02
9.045085e-01	3.157895e+00	1.290226e-02
9.448927e-01	3.157895e+00	7.664034e-03
9.755282e-01	3.157895e+00	3.540934e-03
9.931674e-01	3.157895e+00	1.089449e-03
1.000000e+00	3.157895e+00	1.276239e-04
1.000000e+00	4.210526e+00	1.276239e-04
9.931674e-01	4.210526e+00	-8.342011e-04
9.755282e-01	4.210526e+00	-3.285686e-03
9.448927e-01	4.210526e+00	-7.408786e-03
9.045085e-01	4.210526e+00	-1.264702e-02
8.530689e-01	4.210526e+00	-1.893844e-02
7.938926e-01	4.210526e+00	-2.577724e-02
7.266841e-01	4.210526e+00	-3.291358e-02
6.545085e-01	4.210526e+00	-3.996511e-02
5.781101e-01	4.210526e+00	-4.647659e-02
5.000000e-01	4.210526e+00	-5.218263e-02
4.218900e-01	4.210526e+00	-5.638971e-02
3.454915e-01	4.210526e+00	-5.901178e-02
2.733158e-01	4.210526e+00	-5.924169e-02
2.061074e-01	4.210526e+00	-5.732681e-02
1.469311e-01	4.210526e+00	-5.263626e-02
9.549150e-02	4.210526e+00	-4.580099e-02
5.510729e-02	4.210526e+00	-3.656993e-02
2.447174e-02	4.210526e+00	-2.573486e-02
6.832625e-03	4.210526e+00	-1.330586e-02
0.000000e+00	4.210526e+00	1.276239e-04
6.832625e-03	4.210526e+00	1.356111e-02
2.447174e-02	4.210526e+00	2.599010e-02
5.510728e-02	4.210526e+00	3.682517e-02
9.549150e-02	4.210526e+00	4.605623e-02
1.469311e-01	4.210526e+00	5.289151e-02
2.061074e-01	4.210526e+00	5.758206e-02
2.733158e-01	4.210526e+00	5.949693e-02
3.454915e-01	4.210526e+00	5.926702e-02
4.218900e-01	4.210526e+00	5.664495e-02
5.000000e-01	4.210526e+00	5.243787e-02
5.781101e-01	4.210526e+00	4.673184e-02
6.545085e-01	4.210526e+00	4.022035e-02
7.266841e-01	4.210526e+00	3.316882e-02
7.938926e-01	4.210526e+00	2.603248e-02
8.530689e-01	4.210526e+00	1.919368e-02
9.045085e-01	4.210526e+00	1.290226e-02
9.448927e-01	4.210526e+00	7.664034e-03
9.755282e-01	4.210526e+00	3.540934e-03
9.931674e-01	4.210526e+00	1.089449e-03
1.000000e+00	4.210526e+00	1.276239e-04
1.000000e+00	5.263158e+00	1.276239e-04
9.931674e-01	5.263158e+00	-8.342011e-04
9.755282e-01	5.263158e+00	-3.285686e-03
9.448927e-01	5.263158e+00	-7.408786e-03
9.045085e-01	5.263158e+00	-1.264702e-02
8.530689e-01	5.263158e+00	-1.893844e-02
7.938926e-01	5.263158e+00	-2.577724e-02
7.266842e-01	5.263158e+00	-3.291358e-02
6.545085e-01	5.263158e+00	-3.996511e-02
5.781101e-01	5.263158e+00	-4.647659e-02
5.000000e-01	5.263158e+00	-5.218263e-02
4.218900e-01	5.263158e+00	-5.638971e-02
3.454915e-01	5.263158e+00	-5.901178e-02
2.733158e-01	5.263158e+00	-5.924169e-02
2.061074e-01	5.263158e+00	-5.732681e-02
1.469311e-01	5.263158e+00	-5.263626e-02
9.549150e-02	5.263158e+00	-4.580099e-02
5.510729e-02	5.263158e+00	-3.656993e-02
2.447174e-02	5.263158e+00	-2.573486e-02
6.832625e-03	5.263158e+00	-1.330586e-02
0.000000e+00	5.263158e+00	1.276239e-04
6.832625e-03	5.263158e+00	1.356111e-02
2.447174e-02	5.263158e+00	2.599010e-02
5.510728e-02	5.263158e+00	3.682517e-02
9.549150e-02	5.263158e+00	4.605623e-02
1.469311e-01	5.263158e+00	5.289151e-02
2.061074e-01	5.263158e+00	5.758206e-02
2.733158e-01	5.263158e+00	5.949693e-02
3.454915e-01	5.263158e+00	5.926702e-02
4.218900e-01	5.263158e+00	5.664495e-02
5.000000e-01	5.263158e+00	5.243787e-02
5.781101e-01	5.263158e+00	4.673184e-02
6.545085e-01	5.263158e+00	4.022035e-02
7.266842e-01	5.263158e+00	3.316882e-02
7.938926e-01	5.263158e+00	2.603248e-02
8.530689e-01	5.263158e+00	1.919368e-02
9.045085e-01	5.263158e+00	1.290226e-02
9.448927e-01	5.263158e+00	7.664034e-03
9.755282e-01	5.263158e+00	3.540934e-03
9.931674e-01	5.263158e+00	1.089449e-03
1.000000e+00	5.263158e+00	1.276239e-04
1.000000e+00	6.315789e+00	1.276239e-04
9.931673e-01	6.315789e+00	-8.342011e-04
9.755282e-01	6.315789e+00	-3.285686e-03
9.448927e-01	6.315789e+00	-7.408786e-03
[...]
CELL_DATA 760
VECTORS V double
2.758836e-01	1.196416e-03	3.883584e-02
2.902020e-01	1.217493e-03	4.033220e-02
3.061407e-01	1.258986e-03	4.120216e-02
3.215370e-01	1.306896e-03	4.170653e-02
3.346658e-01	1.348120e-03	4.093190e-02
3.474709e-01	1.369434e-03	4.015604e-02
3.579906e-01	1.358506e-03	3.801222e-02
3.686334e-01	1.304560e-03	3.601533e-02
3.783108e-01	1.200823e-03	3.224365e-02
3.886219e-01	1.046052e-03	2.838931e-02
3.987074e-01	8.459748e-04	2.147477e-02
4.092631e-01	6.130720e-04	1.404630e-02
4.196249e-01	3.634928e-04	1.336683e-03
4.294612e-01	1.156984e-04	-1.223606e-02
4.406111e-01	-1.169183e-04	-3.492459e-02
4.451146e-01	-3.233973e-04	-5.914661e-02
4.417317e-01	-5.029371e-04	-1.009714e-01
4.289004e-01	-6.541252e-04	-1.516920e-01
3.550012e-01	-7.860708e-04	-2.501434e-01
1.422744e-01	-8.968522e-04	-2.797229e-01
4.443258e-02	-1.003191e-03	8.735800e-02
2.478667e-01	-1.075557e-03	1.746535e-01
3.491427e-01	-1.126457e-03	1.234836e-01
3.842148e-01	-1.148010e-03	8.782417e-02
4.035857e-01	-1.133938e-03	5.362827e-02
4.106947e-01	-1.077389e-03	3.255337e-02
4.089820e-01	-9.740514e-04	1.165251e-02
4.066486e-01	-8.263079e-04	-1.295348e-03
4.029552e-01	-6.412162e-04	-1.382981e-02
3.982004e-01	-4.321126e-04	-2.144746e-02
3.937349e-01	-2.135478e-04	-2.876282e-02
3.888657e-01	1.384326e-07	-3.314325e-02
3.849663e-01	1.982231e-04	-3.761104e-02
3.805152e-01	3.746574e-04	-4.040394e-02
3.770426e-01	5.278531e-04	-4.357354e-02
3.722312e-01	6.594646e-04	-4.552642e-02
3.682817e-01	7.720716e-04	-4.776978e-02
3.625890e-01	8.661743e-04	-4.879929e-02
3.552995e-01	9.367692e-04	-4.937944e-02
3.461205e-01	9.708476e-04	-4.872303e-02
2.741052e-01	6.922579e-04	3.858551e-02
2.884255e-01	7.039309e-04	4.008531e-02
3.046246e-01	7.264913e-04	4.099812e-02
3.204323e-01	7.519940e-04	4.156324e-02
3.340491e-01	7.732108e-04	4.085648e-02
3.473988e-01	7.830061e-04	4.014771e-02
3.585138e-01	7.748499e-04	3.806778e-02
3.697857e-01	7.430641e-04	3.612790e-02
3.800995e-01	6.841156e-04	3.239611e-02
3.910151e-01	5.973677e-04	2.856413e-02
4.016310e-01	4.858449e-04	2.163223e-02
4.126072e-01	3.561302e-04	1.416108e-02
4.232578e-01	2.167420e-04	1.348255e-03
4.332603e-01	7.753374e-05	-1.234430e-02
4.444868e-01	-5.428367e-05	-3.523179e-02
4.490512e-01	-1.725573e-04	-5.966970e-02
4.457868e-01	-2.766042e-04	-1.018983e-01
4.332641e-01	-3.651491e-04	-1.532353e-01
3.596510e-01	-4.429851e-04	-2.534198e-01
1.457473e-01	-5.084959e-04	-2.865508e-01
4.167946e-02	-5.712119e-04	8.194514e-02
2.456294e-01	-6.136240e-04	1.730771e-01
3.481100e-01	-6.432805e-04	1.231183e-01
3.841743e-01	-6.559328e-04	8.781491e-02
4.043395e-01	-6.484118e-04	5.372843e-02
4.121271e-01	-6.172085e-04	3.266690e-02
4.109815e-01	-5.601563e-04	1.170948e-02
4.090882e-01	-4.786225e-04	-1.303119e-03
4.056926e-01	-3.763644e-04	-1.392376e-02
4.010898e-01	-2.604639e-04	-2.160309e-02
3.966484e-01	-1.386415e-04	-2.897565e-02
3.917063e-01	-1.858742e-05	-3.338536e-02
3.876811e-01	9.385057e-05	-3.787627e-02
3.831000e-01	1.952424e-04	-4.067840e-02
3.795411e-01	2.844923e-04	-4.386228e-02
3.747303e-01	3.622282e-04	-4.583208e-02
3.708979e-01	4.295503e-04	-4.810912e-02
3.654192e-01	4.863603e-04	-4.918020e-02
3.582912e-01	5.294403e-04	-4.979522e-02
3.489958e-01	5.509980e-04	-4.912777e-02
2.739138e-01	1.241471e-04	3.855856e-02
2.882628e-01	1.255529e-04	4.006270e-02
3.045138e-01	1.277645e-04	4.098321e-02
3.203815e-01	1.295292e-04	4.155664e-02
3.340570e-01	1.299457e-04	4.085745e-02
3.474630e-01	1.283328e-04	4.015512e-02
3.586327e-01	1.242554e-04	3.808041e-02
3.699588e-01	1.174015e-04	3.614482e-02
3.803268e-01	1.076609e-04	3.241548e-02
3.912962e-01	9.507967e-05	2.858467e-02
4.019652e-01	7.989988e-05	2.165023e-02
4.129933e-01	6.256548e-05	1.417433e-02
4.236944e-01	4.362456e-05	1.349646e-03
4.337469e-01	2.383949e-05	-1.235817e-02
4.450245e-01	3.829945e-06	-3.527441e-02
4.496467e-01	-1.556992e-05	-5.974883e-02
4.464516e-01	-3.401214e-05	-1.020503e-01
4.340260e-01	-5.076041e-05	-1.535048e-01
3.604919e-01	-6.610866e-05	-2.540123e-01
1.463774e-01	-7.919040e-05	-2.877896e-01
4.119516e-02	-9.149339e-05	8.099297e-02
2.452522e-01	-9.947210e-05	1.728113e-01
3.479359e-01	-1.048002e-04	1.230567e-01
3.841472e-01	-1.070975e-04	8.780871e-02
4.044130e-01	-1.063407e-04	5.373820e-02
4.122761e-01	-1.024432e-04	3.267871e-02
4.111892e-01	-9.540094e-05	1.171540e-02
4.093429e-01	-8.543955e-05	-1.303931e-03
4.059852e-01	-7.283469e-05	-1.393380e-02
4.014127e-01	-5.808666e-05	-2.162047e-02
3.969955e-01	-4.172746e-05	-2.900101e-02
3.920731e-01	-2.438677e-05	-3.341662e-02
3.880657e-01	-6.669028e-06	-3.791385e-02
3.835041e-01	1.089041e-05	-4.072130e-02
3.799711e-01	2.784669e-05	-4.391198e-02
3.751984e-01	4.386565e-05	-4.588932e-02
3.714219e-01	5.861926e-05	-4.817709e-02
3.660187e-01	7.159741e-05	-4.926088e-02
3.589771e-01	8.185099e-05	-4.989055e-02
3.497583e-01	8.774825e-05	-4.923510e-02
2.738680e-01	4.292174e-05	3.855212e-02
2.882264e-01	4.327493e-05	4.005763e-02
3.044944e-01	4.378316e-05	4.098060e-02
3.203820e-01	4.402804e-05	4.155672e-02
3.340772e-01	4.370233e-05	4.085992e-02
3.475010e-01	4.258756e-05	4.015952e-02
3.586868e-01	4.058314e-05	3.808615e-02
3.700271e-01	3.765447e-05	3.615149e-02
3.804080e-01	3.384445e-05	3.242240e-02
3.913895e-01	2.923460e-05	2.859148e-02
4.020701e-01	2.394169e-05	2.165589e-02
4.131100e-01	1.811429e-05	1.417833e-02
4.238231e-01	1.190420e-05	1.350056e-03
4.338886e-01	5.513341e-06	-1.236220e-02
4.451806e-01	-9.070610e-07	-3.528678e-02
4.498200e-01	-7.126629e-06	-5.977186e-02
4.466460e-01	-1.305170e-05	-1.020947e-01
4.342496e-01	-1.844278e-05	-1.535838e-01
3.607386e-01	-2.337672e-05	-2.541861e-01
1.465608e-01	-2.755182e-05	-2.881503e-01
4.105716e-02	-3.140960e-05	8.072165e-02
2.451489e-01	-3.382666e-05	1.727385e-01
3.478923e-01	-3.533390e-05	1.230413e-01
3.841455e-01	-3.583507e-05	8.780833e-02
4.044394e-01	-3.533913e-05	5.374171e-02
4.123231e-01	-3.384673e-05	3.268244e-02
4.112522e-01	-3.136969e-05	1.171720e-02
4.094191e-01	-2.798346e-05	-1.304173e-03
4.060726e-01	-2.375942e-05	-1.393680e-02
4.015102e-01	-1.882747e-05	-2.162573e-02
3.971026e-01	-1.331817e-05	-2.900883e-02
3.921896e-01	-7.395223e-06	-3.342655e-02
3.881917e-01	-1.234182e-06	-3.792616e-02
3.836400e-01	4.980900e-06	-4.073573e-02
3.801178e-01	1.105363e-05	-4.392894e-02
3.753580e-01	1.680266e-05	-4.590885e-02
3.715976e-01	2.204020e-05	-4.819988e-02
3.662139e-01	2.654290e-05	-4.928715e-02
3.591929e-01	2.998855e-05	-4.992055e-02
3.499909e-01	3.190484e-05	-4.926785e-02
2.738542e-01	1.946533e-05	3.855017e-02
2.882160e-01	1.957353e-05	4.005619e-02
3.044903e-01	1.971187e-05	4.098004e-02
3.203853e-01	1.971712e-05	4.155714e-02
3.340878e-01	1.946999e-05	4.086122e-02
3.475184e-01	1.888583e-05	4.016154e-02
3.587105e-01	1.792378e-05	3.808867e-02
3.700567e-01	1.656649e-05	3.615438e-02
3.804431e-01	1.482423e-05	3.242539e-02
3.914298e-01	1.272313e-05	2.859442e-02
4.021154e-01	1.031330e-05	2.165832e-02
4.131602e-01	7.663502e-06	1.418006e-02
4.238783e-01	4.844693e-06	1.350232e-03
4.339492e-01	1.950611e-06	-1.236393e-02
4.452470e-01	-9.490513e-07	-3.529205e-02
4.498934e-01	-3.749347e-06	-5.978161e-02
4.467279e-01	-6.406286e-06	-1.021135e-01
4.343431e-01	-8.809421e-06	-1.536169e-01
3.608406e-01	-1.098857e-05	-2.542580e-01
1.466352e-01	-1.280602e-05	-2.882966e-01
4.100321e-02	-1.444252e-05	8.061558e-02
2.451115e-01	-1.541873e-05	1.727121e-01
3.478796e-01	-1.596155e-05	1.230368e-01
3.841499e-01	-1.603698e-05	8.780932e-02
4.044551e-01	-1.564910e-05	5.374380e-02
4.123470e-01	-1.480750e-05	3.268433e-02
4.112825e-01	-1.352258e-05	1.171806e-02
4.094545e-01	-1.183706e-05	-1.304286e-03
4.061124e-01	-9.790329e-06	-1.393817e-02
4.015538e-01	-7.450792e-06	-2.162808e-02
3.971496e-01	-4.886998e-06	-2.901226e-02
3.922397e-01	-2.181166e-06	-3.343082e-02
3.882448e-01	5.837100e-07	-3.793135e-02
3.836963e-01	3.330125e-06	-4.074171e-02
3.801778e-01	5.983308e-06	-4.393587e-02
3.754226e-01	8.473499e-06	-4.591674e-02
3.716680e-01	1.072382e-05	-4.820901e-02
3.662914e-01	1.264024e-05	-4.929758e-02
3.592778e-01	1.408959e-05	-4.993235e-02
3.500816e-01	1.488614e-05	-4.928062e-02
2.738498e-01	1.055698e-05	3.854955e-02
2.882132e-01	1.059064e-05	4.005581e-02
3.044905e-01	1.061875e-05	4.098006e-02
3.203889e-01	1.056207e-05	4.155761e-02
3.340947e-01	1.036513e-05	4.086206e-02
3.475284e-01	9.992355e-06	4.016269e-02
3.587233e-01	9.427551e-06	3.809003e-02
3.700721e-01	8.663376e-06	3.615589e-02
3.804611e-01	7.709264e-06	3.242693e-02
3.914503e-01	6.576928e-06	2.859592e-02
4.021385e-01	5.288038e-06	2.165957e-02
4.131858e-01	3.874508e-06	1.418093e-02
4.239065e-01	2.371948e-06	1.350322e-03
4.339801e-01	8.297907e-07	-1.236481e-02
4.452809e-01	-7.145353e-07	-3.529474e-02
4.499309e-01	-2.204078e-06	-5.978659e-02
4.467695e-01	-3.613488e-06	-1.021230e-01
4.343904e-01	-4.881822e-06	-1.536336e-01
3.608918e-01	-6.022017e-06	-2.542941e-01
1.466719e-01	-6.959505e-06	-2.883687e-01
4.097758e-02	-7.781598e-06	8.056518e-02
2.450951e-01	-8.246174e-06	1.727006e-01
3.478757e-01	-8.468336e-06	1.230354e-01
3.841544e-01	-8.434914e-06	8.781036e-02
4.044652e-01	-8.148667e-06	5.374513e-02
4.123610e-01	-7.620088e-06	3.268544e-02
4.112995e-01	-6.858553e-06	1.171854e-02
4.094737e-01	-5.892474e-06	-1.304347e-03
4.061336e-01	-4.747614e-06	-1.393889e-02
4.015765e-01	-3.464286e-06	-2.162930e-02
3.971737e-01	-2.080117e-06	-2.901402e-02
3.922650e-01	-6.368780e-07	-3.343298e-02
3.882714e-01	8.272676e-07	-3.793395e-02
3.837244e-01	2.274603e-06	-4.074470e-02
3.802078e-01	3.668311e-06	-4.393934e-02
3.754548e-01	4.972113e-06	-4.592068e-02
3.717029e-01	6.143073e-06	-4.821354e-02
3.663295e-01	7.130687e-06	-4.930270e-02
3.593191e-01	7.868741e-06	-4.993809e-02
3.501253e-01	8.269652e-06	-4.928678e-02
2.738485e-01	6.411398e-06	3.854937e-02
2.882129e-01	6.417736e-06	4.005577e-02
3.044918e-01	6.408583e-06	4.098024e-02
3.203921e-01	6.341238e-06	4.155802e-02
3.340997e-01	6.186028e-06	4.086267e-02
3.475350e-01	5.924629e-06	4.016345e-02
3.587315e-01	5.551801e-06	3.809089e-02
3.700817e-01	5.064541e-06	3.615682e-02
3.804719e-01	4.469546e-06	3.242785e-02
3.914624e-01	3.778072e-06	2.859681e-02
4.021519e-01	3.003548e-06	2.166029e-02
4.132006e-01	2.162421e-06	1.418144e-02
4.239228e-01	1.273497e-06	1.350374e-03
4.339979e-01	3.643784e-07	-1.236532e-02
4.453004e-01	-5.434653e-07	-3.529628e-02
4.499523e-01	-1.416123e-06	-5.978944e-02
4.467933e-01	-2.237900e-06	-1.021284e-01
4.344171e-01	-2.972221e-06	-1.536431e-01
3.609204e-01	-3.625239e-06	-2.543142e-01
1.466920e-01	-4.153040e-06	-2.884081e-01
4.096420e-02	-4.601344e-06	8.053888e-02
2.450875e-01	-4.837684e-06	1.726952e-01
3.478751e-01	-4.925971e-06	1.230352e-01
3.841584e-01	-4.861851e-06	8.781126e-02
4.044721e-01	-4.647423e-06	5.374605e-02
4.123700e-01	-4.292034e-06	3.268615e-02
4.113100e-01	-3.803232e-06	1.171884e-02
4.094854e-01	-3.200267e-06	-1.304384e-03
4.061461e-01	-2.499540e-06	-1.393933e-02
4.015898e-01	-1.724696e-06	-2.163002e-02
3.971877e-01	-8.953762e-07	-2.901505e-02
3.922797e-01	-3.489090e-08	-3.343423e-02
3.882869e-01	8.350202e-07	-3.793546e-02
3.837407e-01	1.691410e-06	-4.074643e-02
3.802250e-01	2.510805e-06	-4.394133e-02
3.754731e-01	3.271767e-06	-4.592292e-02
3.717226e-01	3.948467e-06	-4.821609e-02
3.663507e-01	4.513395e-06	-4.930556e-02
3.593419e-01	4.931623e-06	-4.994126e-02
3.501493e-01	5.156512e-06	-4.929015e-02
2.738487e-01	3.964083e-06	3.854940e-02
2.882136e-01	3.983646e-06	4.005586e-02
3.044934e-01	4.017666e-06	4.098046e-02
3.203947e-01	4.048974e-06	4.155837e-02
3.341034e-01	4.064355e-06	4.086312e-02
3.475396e-01	4.050894e-06	4.016398e-02
3.587369e-01	3.992846e-06	3.809146e-02
3.700879e-01	3.866538e-06	3.615742e-02
3.804789e-01	3.644494e-06	3.242844e-02
3.914701e-01	3.308908e-06	2.859737e-02
4.021603e-01	2.863638e-06	2.166074e-02
4.132098e-01	2.333657e-06	1.418176e-02
4.239328e-01	1.758178e-06	1.350405e-03
4.340088e-01	1.179962e-06	-1.236563e-02
4.453123e-01	6.251399e-07	-3.529722e-02
4.499653e-01	1.129197e-07	-5.979117e-02
4.468076e-01	-3.563195e-07	-1.021317e-01
4.344331e-01	-7.699369e-07	-1.536487e-01
3.609372e-01	-1.135596e-06	-2.543261e-01
1.467035e-01	-1.429492e-06	-2.884308e-01
4.095694e-02	-1.676149e-06	8.052460e-02
2.450840e-01	-1.802482e-06	1.726928e-01
3.478757e-01	-1.843931e-06	1.230355e-01
3.841616e-01	-1.797532e-06	8.781200e-02
4.044770e-01	-1.659966e-06	5.374670e-02
4.123760e-01	-1.428962e-06	3.268663e-02
4.113168e-01	-1.100681e-06	1.171904e-02
4.094928e-01	-6.866137e-07	-1.304408e-03
4.061540e-01	-2.101869e-07	-1.393960e-02
4.015982e-01	2.868891e-07	-2.163047e-02
3.971964e-01	7.633253e-07	-2.901569e-02
3.922889e-01	1.190902e-06	-3.343501e-02
3.882964e-01	1.561949e-06	-3.793639e-02
3.837507e-01	1.888029e-06	-4.074748e-02
3.802355e-01	2.186429e-06	-4.394253e-02
3.754842e-01	2.467358e-06	-4.592427e-02
3.717343e-01	2.729390e-06	-4.821762e-02
3.663633e-01	2.961159e-06	-4.930726e-02
3.593554e-01	3.141311e-06	-4.994313e-02
3.501633e-01	3.241394e-06	-4.929212e-02
2.738452e-01	-3.332627e-04	3.854891e-02
2.882099e-01	-3.338468e-04	4.005535e-02
3.044897e-01	-3.357069e-04	4.097995e-02
3.203910e-01	-3.322664e-04	4.155788e-02
3.340997e-01	-3.217791e-04	4.086267e-02
3.475363e-01	-3.337249e-04	4.016360e-02
3.587344e-01	-2.807005e-04	3.809120e-02
3.700868e-01	-3.037729e-04	3.615732e-02
3.804797e-01	-2.174114e-04	3.242851e-02
3.914729e-01	-2.500160e-04	2.859758e-02
4.021651e-01	-1.314555e-04	2.166100e-02
4.132159e-01	-1.713648e-04	1.418197e-02
4.239396e-01	-2.809951e-05	1.350427e-03
4.340158e-01	-7.452060e-05	-1.236583e-02
4.453192e-01	8.733957e-05	-3.529777e-02
4.499723e-01	1.895900e-04	-5.979210e-02
4.468149e-01	2.370091e-04	-1.021333e-01
4.344411e-01	2.191760e-04	-1.536516e-01
3.609458e-01	2.104133e-04	-2.543321e-01
1.467095e-01	2.068697e-04	-2.884425e-01
4.095298e-02	2.067582e-04	8.051682e-02
2.450818e-01	2.101119e-04	1.726913e-01
3.478757e-01	2.186911e-04	1.230354e-01
3.841631e-01	2.363590e-04	8.781234e-02
4.044797e-01	1.887926e-04	5.374706e-02
4.123799e-01	8.641734e-05	3.268694e-02
4.113218e-01	-7.554145e-05	1.171918e-02
4.094984e-01	-2.919071e-05	-1.304426e-03
4.061596e-01	-1.724968e-04	-1.393979e-02
4.016030e-01	-1.325993e-04	-2.163073e-02
3.971999e-01	-2.511447e-04	-2.901594e-02
3.922908e-01	-2.184977e-04	-3.343517e-02
3.882970e-01	-3.047927e-04	-3.793645e-02
3.837505e-01	-2.816319e-04	-4.074747e-02
3.802352e-01	-3.345535e-04	-4.394250e-02
3.754842e-01	-3.224954e-04	-4.592428e-02
3.717350e-01	-3.328706e-04	-4.821771e-02
3.663648e-01	-3.362084e-04	-4.930746e-02
3.593577e-01	-3.342683e-04	-4.994345e-02
3.501662e-01	-3.336388e-04	-4.929252e-02
2.739473e-01	3.325388e-08	3.856327e-02
2.883604e-01	3.237566e-08	4.007627e-02
3.044068e-01	2.923645e-08	4.096880e-02
3.200237e-01	2.589488e-08	4.151024e-02
3.341751e-01	2.312778e-08	4.087190e-02
3.467475e-01	2.011984e-08	4.007244e-02
3.583264e-01	1.534783e-08	3.804788e-02
3.691222e-01	8.825453e-09	3.606308e-02
3.797690e-01	1.807387e-09	3.236794e-02
3.903013e-01	-4.313649e-09	2.851199e-02
4.010848e-01	-9.397539e-09	2.160281e-02
4.118269e-01	-1.232970e-08	1.413429e-02
4.224296e-01	-1.339583e-08	1.345617e-03
4.323448e-01	-1.341901e-08	-1.231822e-02
4.406001e-01	-1.330425e-08	-3.492372e-02
4.468333e-01	-1.312534e-08	-5.937498e-02
4.459050e-01	-1.423076e-08	-1.019254e-01
4.352885e-01	-1.606062e-08	-1.539513e-01
3.614407e-01	-1.848533e-08	-2.546808e-01
1.468392e-01	-2.113911e-08	-2.886976e-01
4.107968e-02	-2.421500e-08	8.076592e-02
2.455735e-01	-2.672049e-08	1.730377e-01
3.487205e-01	-2.905488e-08	1.233342e-01
3.832515e-01	-3.111884e-08	8.760398e-02
4.013395e-01	-3.293385e-08	5.332979e-02
4.076599e-01	-3.424629e-08	3.231281e-02
4.096502e-01	-3.529211e-08	1.167155e-02
4.079881e-01	-3.381056e-08	-1.299615e-03
4.047705e-01	-2.972859e-08	-1.389211e-02
4.005227e-01	-2.230152e-08	-2.157254e-02
3.960284e-01	-1.103835e-08	-2.893036e-02
3.915805e-01	1.775589e-09	-3.337463e-02
3.873330e-01	1.436230e-08	-3.784227e-02
3.833431e-01	2.453715e-08	-4.070421e-02
3.794471e-01	3.029331e-08	-4.385143e-02
3.755605e-01	3.132682e-08	-4.593361e-02
3.713687e-01	2.893931e-08	-4.817019e-02
3.662829e-01	2.482767e-08	-4.929644e-02
3.595092e-01	2.074879e-08	-4.996451e-02
3.502695e-01	1.912043e-08	-4.930707e-02
2.738454e-01	3.333156e-04	3.854893e-02
2.882102e-01	3.339000e-04	4.005539e-02
3.044899e-01	3.357623e-04	4.097998e-02
3.203911e-01	3.323259e-04	4.155790e-02
3.340998e-01	3.218428e-04	4.086269e-02
3.475365e-01	3.337901e-04	4.016362e-02
3.587346e-01	2.807631e-04	3.809122e-02
3.700869e-01	3.038217e-04	3.615734e-02
3.804798e-01	2.174522e-04	3.242852e-02
3.914731e-01	2.500491e-04	2.859759e-02
4.021652e-01	1.314834e-04	2.166101e-02
4.132160e-01	1.713905e-04	1.418197e-02
4.239397e-01	2.812521e-05	1.350427e-03
4.340158e-01	7.454507e-05	-1.236583e-02
4.453192e-01	-8.731767e-05	-3.529777e-02
4.499723e-01	-1.895727e-04	-5.979210e-02
4.468149e-01	-2.369985e-04	-1.021334e-01
4.344413e-01	-2.191738e-04	-1.536516e-01
3.609460e-01	-2.104203e-04	-2.543322e-01
1.467096e-01	-2.068859e-04	-2.884429e-01
4.095281e-02	-2.067841e-04	8.051648e-02
2.450817e-01	-2.101452e-04	1.726911e-01
3.478756e-01	-2.187306e-04	1.230354e-01
3.841630e-01	-2.364035e-04	8.781232e-02
4.044797e-01	-1.888413e-04	5.374705e-02
4.123799e-01	-8.646940e-05	3.268694e-02
4.113218e-01	7.548724e-05	1.171918e-02
4.094985e-01	2.913429e-05	-1.304426e-03
4.061598e-01	1.724441e-04	-1.393980e-02
4.016033e-01	1.325552e-04	-2.163074e-02
3.972002e-01	2.511150e-04	-2.901596e-02
3.922911e-01	2.184869e-04	-3.343520e-02
3.882973e-01	3.048017e-04	-3.793648e-02
3.837507e-01	2.816659e-04	-4.074749e-02
3.802353e-01	3.345968e-04	-4.394251e-02
3.754842e-01	3.225405e-04	-4.592427e-02
3.717349e-01	3.329118e-04	-4.821769e-02
3.663645e-01	3.362437e-04	-4.930743e-02
3.593573e-01	3.342980e-04	-4.994340e-02
3.501659e-01	3.336648e-04	-4.929248e-02
2.738487e-01	-3.910730e-06	3.854939e-02
2.882135e-01	-3.927066e-06	4.005584e-02
3.044932e-01	-3.951901e-06	4.098043e-02
3.203945e-01	-3.972568e-06	4.155834e-02
3.341033e-01	-3.980218e-06	4.086311e-02
3.475396e-01	-3.963999e-06	4.016399e-02
3.587371e-01	-3.906740e-06	3.809149e-02
3.700882e-01	-3.781975e-06	3.615746e-02
3.804791e-01	-3.560908e-06	3.242846e-02
3.914702e-01	-3.224594e-06	2.859738e-02
4.021604e-01	-2.776448e-06	2.166075e-02
4.132098e-01	-2.244913e-06	1.418176e-02
4.239328e-01	-1.671798e-06	1.350405e-03
4.340088e-01	-1.101325e-06	-1.236563e-02
4.453124e-01	-5.596408e-07	-3.529723e-02
4.499656e-01	-6.525135e-08	-5.979120e-02
4.468079e-01	3.837785e-07	-1.021318e-01
4.344336e-01	7.760919e-07	-1.536489e-01
3.609379e-01	1.119821e-06	-2.543266e-01
1.467041e-01	1.393077e-06	-2.884319e-01
4.095641e-02	1.618216e-06	8.052356e-02
2.450835e-01	1.728694e-06	1.726924e-01
3.478754e-01	1.757193e-06	1.230353e-01
3.841614e-01	1.701394e-06	8.781195e-02
4.044768e-01	1.557387e-06	5.374668e-02
4.123759e-01	1.322470e-06	3.268662e-02
4.113167e-01	9.925684e-07	1.171903e-02
4.094929e-01	5.768948e-07	-1.304408e-03
4.061542e-01	9.973564e-08	-1.393960e-02
4.015985e-01	-3.962801e-07	-2.163048e-02
3.971969e-01	-8.680063e-07	-2.901572e-02
3.922894e-01	-1.284123e-06	-3.343506e-02
3.882971e-01	-1.637348e-06	-3.793646e-02
3.837512e-01	-1.942119e-06	-4.074754e-02
3.802357e-01	-2.219971e-06	-4.394256e-02
3.754841e-01	-2.485200e-06	-4.592427e-02
3.717341e-01	-2.737783e-06	-4.821759e-02
3.663629e-01	-2.963967e-06	-4.930720e-02
3.593549e-01	-3.140348e-06	-4.994306e-02
3.501626e-01	-3.239530e-06	-4.929203e-02
2.738481e-01	-6.333049e-06	3.854932e-02
2.882124e-01	-6.332887e-06	4.005570e-02
3.044914e-01	-6.313334e-06	4.098018e-02
3.203918e-01	-6.237898e-06	4.155798e-02
3.340996e-01	-6.079886e-06	4.086266e-02
3.475351e-01	-5.819371e-06	4.016347e-02
3.587317e-01	-5.445927e-06	3.809091e-02
3.700819e-01	-4.946260e-06	3.615684e-02
3.804721e-01	-4.342521e-06	3.242786e-02
3.914625e-01	-3.642072e-06	2.859682e-02
4.021520e-01	-2.864774e-06	2.166029e-02
4.132007e-01	-2.032153e-06	1.418145e-02
4.239230e-01	-1.164012e-06	1.350374e-03
4.339982e-01	-2.840900e-07	-1.236533e-02
4.453010e-01	5.877333e-07	-3.529632e-02
4.499531e-01	1.421009e-06	-5.978955e-02
4.467943e-01	2.202189e-06	-1.021286e-01
4.344186e-01	2.897225e-06	-1.536436e-01
3.609222e-01	3.512145e-06	-2.543155e-01