# vtk DataFile Version 2.0
OUTPUT by 3D-VPM
ASCII
DATASET UNSTRUCTURED_GRID
POINTS 820 double
9.510565e-01	0.000000e+00	-3.090170e-01
9.442611e-01	0.000000e+00	-3.078203e-01
9.267277e-01	0.000000e+00	-3.047010e-01
8.963175e-01	0.000000e+00	-2.991555e-01
8.562911e-01	0.000000e+00	-2.916579e-01
8.054250e-01	0.000000e+00	-2.817457e-01
7.470317e-01	0.000000e+00	-2.699633e-01
6.809074e-01	0.000000e+00	-2.559818e-01
6.100852e-01	0.000000e+00	-2.403847e-01
5.354138e-01	0.000000e+00	-2.229691e-01
4.593635e-01	0.000000e+00	-2.042585e-01
3.837764e-01	0.000000e+00	-1.841224e-01
3.103069e-01	0.000000e+00	-1.630077e-01
2.415927e-01	0.000000e+00	-1.409228e-01
1.782654e-01	0.000000e+00	-1.183331e-01
1.234349e-01	0.000000e+00	-9.558566e-02
7.662509e-02	0.000000e+00	-7.318920e-02
4.106998e-02	0.000000e+00	-5.193053e-02
1.528206e-02	0.000000e+00	-3.215886e-02
2.347037e-03	0.000000e+00	-1.488740e-02
0.000000e+00	0.000000e+00	0.000000e+00
1.064939e-02	0.000000e+00	1.066461e-02
3.126595e-02	0.000000e+00	1.703450e-02
6.375031e-02	0.000000e+00	1.787236e-02
1.050105e-01	0.000000e+00	1.417221e-02
1.560448e-01	0.000000e+00	4.777214e-03
2.137742e-01	0.000000e+00	-9.048270e-03
2.782849e-01	0.000000e+00	-2.799567e-02
3.468570e-01	0.000000e+00	-5.051783e-02
4.187060e-01	0.000000e+00	-7.662000e-02
4.916930e-01	0.000000e+00	-1.047585e-01
5.642168e-01	0.000000e+00	-1.343226e-01
6.348639e-01	0.000000e+00	-1.641238e-01
7.013280e-01	0.000000e+00	-1.931337e-01
7.630418e-01	0.000000e+00	-2.206893e-01
8.172084e-01	0.000000e+00	-2.454799e-01
8.641863e-01	0.000000e+00	-2.673591e-01
9.009752e-01	0.000000e+00	-2.848204e-01
9.288372e-01	0.000000e+00	-2.982085e-01
9.448555e-01	0.000000e+00	-3.059908e-01
9.510565e-01	0.000000e+00	-3.090170e-01
9.510565e-01	1.052632e+00	-3.090170e-01
9.442611e-01	1.052632e+00	-3.078203e-01
9.267277e-01	1.052632e+00	-3.047010e-01
8.963175e-01	1.052632e+00	-2.991555e-01
8.562911e-01	1.052632e+00	-2.916579e-01
8.054250e-01	1.052632e+00	-2.817457e-01
7.470317e-01	1.052632e+00	-2.699633e-01
6.809074e-01	1.052632e+00	-2.559818e-01
6.100852e-01	1.052632e+00	-2.403847e-01
5.354138e-01	1.052632e+00	-2.229691e-01
4.593635e-01	1.052632e+00	-2.042585e-01
3.837764e-01	1.052632e+00	-1.841224e-01
3.103069e-01	1.052632e+00	-1.630077e-01
2.415927e-01	1.052632e+00	-1.409228e-01
1.782654e-01	1.052632e+00	-1.183331e-01
1.234349e-01	1.052632e+00	-9.558566e-02
7.662509e-02	1.052632e+00	-7.318920e-02
4.106998e-02	1.052632e+00	-5.193053e-02
1.528206e-02	1.052632e+00	-3.215886e-02
2.347037e-03	1.052632e+00	-1.488740e-02
0.000000e+00	1.052632e+00	0.000000e+00
1.064939e-02	1.052632e+00	1.066461e-02
3.126595e-02	1.052632e+00	1.703450e-02
6.375031e-02	1.052632e+00	1.787236e-02
1.050105e-01	1.052632e+00	1.417221e-02
1.560448e-01	1.052632e+00	4.777214e-03
2.137742e-01	1.052632e+00	-9.048270e-03
2.782849e-01	1.052632e+00	-2.799567e-02
3.468570e-01	1.052632e+00	-5.051783e-02
4.187060e-01	1.052632e+00	-7.662000e-02
4.916930e-01	1.052632e+00	-1.047585e-01
5.642168e-01	1.052632e+00	-1.343226e-01
6.348639e-01	1.052632e+00	-1.641238e-01
7.013280e-01	1.052632e+00	-1.931337e-01
7.630418e-01	1.052632e+00	-2.206893e-01
8.172084e-01	1.052632e+00	-2.454799e-01
8.641863e-01	1.052632e+00	-2.673591e-01
9.009752e-01	1.052632e+00	-2.848204e-01
9.288372e-01	1.052632e+00	-2.982085e-01
9.448555e-01	1.052632e+00	-3.059908e-01
9.510565e-01	1.052632e+00	-3.090170e-01
9.510565e-01	2.105263e+00	-3.090170e-01
9.442611e-01	2.105263e+00	-3.078203e-01
9.267277e-01	2.105263e+00	-3.047010e-01
8.963175e-01	2.105263e+00	-2.991555e-01
8.562911e-01	2.105263e+00	-2.916579e-01
8.054250e-01	2.105263e+00	-2.817457e-01
7.470317e-01	2.105263e+00	-2.699633e-01
6.809074e-01	2.105263e+00	-2.559818e-01
6.100852e-01	2.105263e+00	-2.403847e-01
5.354138e-01	2.105263e+00	-2.229691e-01
4.593635e-01	2.105263e+00	-2.042585e-01
3.837764e-01	2.105263e+00	-1.841224e-01
3.103069e-01	2.105263e+00	-1.630077e-01
2.415927e-01	2.105263e+00	-1.409228e-01
1.782654e-01	2.105263e+00	-1.183331e-01
1.234349e-01	2.105263e+00	-9.558566e-02
7.662509e-02	2.105263e+00	-7.318920e-02
4.106998e-02	2.105263e+00	-5.193053e-02
1.528206e-02	2.105263e+00	-3.215886e-02
2.347037e-03	2.105263e+00	-1.488740e-02
0.000000e+00	2.105263e+00	0.000000e+00
1.064939e-02	2.105263e+00	1.066461e-02
3.126595e-02	2.105263e+00	1.703450e-02
6.375031e-02	2.105263e+00	1.787236e-02
1.050105e-01	2.105263e+00	1.417221e-02
1.560448e-01	2.105263e+00	4.777214e-03
2.137742e-01	2.105263e+00	-9.048270e-03
2.782849e-01	2.105263e+00	-2.799567e-02
3.468570e-01	2.105263e+00	-5.051783e-02
4.187060e-01	2.105263e+00	-7.662000e-02
4.916930e-01	2.105263e+00	-1.047585e-01
5.642168e-01	2.105263e+00	-1.343226e-01
6.348639e-01	2.105263e+00	-1.641238e-01
7.013280e-01	2.105263e+00	-1.931337e-01
7.630418e-01	2.105263e+00	-2.206893e-01
8.172084e-01	2.105263e+00	-2.454799e-01
8.641863e-01	2.105263e+00	-2.673591e-01
9.009752e-01	2.105263e+00	-2.848204e-01
9.288372e-01	2.105263e+00	-2.982085e-01
9.448555e-01	2.105263e+00	-3.059908e-01
9.510565e-01	2.105263e+00	-3.090170e-01
9.510565e-01	3.157895e+00	-3.090170e-01
9.442611e-01	3.157895e+00	-3.078203e-01
9.267277e-01	3.157895e+00	-3.047010e-01
8.963175e-01	3.157895e+00	-2.991555e-01
8.562911e-01	3.157895e+00	-2.916579e-01
8.054250e-01	3.157895e+00	-2.817457e-01
7.470317e-01	3.157895e+00	-2.699633e-01
6.809074e-01	3.157895e+00	-2.559818e-01
6.100852e-01	3.157895e+00	-2.403847e-01
5.354138e-01	3.157895e+00	-2.229691e-01
4.593635e-01	3.157895e+00	-2.042585e-01
3.837764e-01	3.157895e+00	-1.841224e-01
3.103069e-01	3.157895e+00	-1.630077e-01
2.415927e-01	3.157895e+00	-1.409228e-01
1.782654e-01	3.157895e+00	-1.183331e-01
1.234349e-01	3.157895e+00	-9.558566e-02
7.662509e-02	3.157895e+00	-7.318920e-02
4.106998e-02	3.157895e+00	-5.193053e-02
1.528206e-02	3.157895e+00	-3.215886e-02
2.347037e-03	3.157895e+00	-1.488740e-02
0.000000e+00	3.157895e+00	0.000000e+00
1.064939e-02	3.157895e+00	1.066461e-02
3.126595e-02	3.157895e+00	1.703450e-02
6.375031e-02	3.157895e+00	1.787236e-02
1.050105e-01	3.157895e+00	1.417221e-02
1.560448e-01	3.157895e+00	4.777214e-03
2.137742e-01	3.157895e+00	-9.048270e-03
2.782849e-01	3.157895e+00	-2.799567e-02
3.468570e-01	3.157895e+00	-5.051783e-02
4.187060e-01	3.157895e+00	-7.662000e-02
4.916930e-01	3.157895e+00	-1.047585e-01
5.642168e-01	3.157895e+00	-1.343226e-01
6.348639e-01	3.157895e+00	-1.641238e-01
7.013280e-01	3.157895e+00	-1.931337e-01
7.630418e-01	3.157895e+00	-2.206893e-01
8.172084e-01	3.157895e+00	-2.454799e-01
8.641863e-01	3.157895e+00	-2.673591e-01
9.009752e-01	3.157895e+00	-2.848204e-01
9.288372e-01	3.157895e+00	-2.982085e-01
9.448555e-01	3.157895e+00	-3.059908e-01
9.510565e-01	3.157895e+00	-3.090170e-01
9.510565e-01	4.210526e+00	-3.090170e-01
9.442611e-01	4.210526e+00	-3.078203e-01
9.267277e-01	4.210526e+00	-3.047010e-01
8.963175e-01	4.210526e+00	-2.991555e-01
8.562911e-01	4.210526e+00	-2.916579e-01
8.054250e-01	4.210526e+00	-2.817457e-01
7.470317e-01	4.210526e+00	-2.699633e-01
6.809074e-01	4.210526e+00	-2.559818e-01
6.100852e-01	4.210526e+00	-2.403847e-01
5.354138e-01	4.210526e+00	-2.229691e-01
4.593635e-01	4.210526e+00	-2.042585e-01
3.837764e-01	4.210526e+00	-1.841224e-01
3.103069e-01	4.210526e+00	-1.630077e-01
2.415927e-01	4.210526e+00	-1.409228e-01
1.782654e-01	4.210526e+00	-1.183331e-01
1.234349e-01	4.210526e+00	-9.558566e-02
7.662509e-02	4.210526e+00	-7.318920e-02
4.106998e-02	4.210526e+00	-5.193053e-02
1.528206e-02	4.210526e+00	-3.215886e-02
2.347037e-03	4.210526e+00	-1.488740e-02
0.000000e+00	4.210526e+00	0.000000e+00
1.064939e-02	4.210526e+00	1.066461e-02
3.126595e-02	4.210526e+00	1.703450e-02
6.375031e-02	4.210526e+00	1.787236e-02
1.050105e-01	4.210526e+00	1.417221e-02
1.560448e-01	4.210526e+00	4.777214e-03
2.137742e-01	4.210526e+00	-9.048270e-03
2.782849e-01	4.210526e+00	-2.799567e-02
3.468570e-01	4.210526e+00	-5.051783e-02
4.187060e-01	4.210526e+00	-7.662000e-02
4.916930e-01	4.210526e+00	-1.047585e-01
5.642168e-01	4.210526e+00	-1.343226e-01
6.348639e-01	4.210526e+00	-1.641238e-01
7.013280e-01	4.210526e+00	-1.931337e-01
7.630418e-01	4.210526e+00	-2.206893e-01
8.172084e-01	4.210526e+00	-2.454799e-01
8.641863e-01	4.210526e+00	-2.673591e-01
9.009752e-01	4.210526e+00	-2.848204e-01
9.288372e-01	4.210526e+00	-2.982085e-01
9.448555e-01	4.210526e+00	-3.059908e-01
9.510565e-01	4.210526e+00	-3.090170e-01
9.510565e-01	5.263158e+00	-3.090170e-01
9.442611e-01	5.263158e+00	-3.078203e-01
9.267277e-01	5.263158e+00	-3.047010e-01
8.963175e-01	5.263158e+00	-2.991555e-01
8.562911e-01	5.263158e+00	-2.916579e-01
8.054250e-01	5.263158e+00	-2.817457e-01
7.470317e-01	5.263158e+00	-2.699633e-01
6.809074e-01	5.263158e+00	-2.559818e-01
6.100852e-01	5.263158e+00	-2.403847e-01
5.354138e-01	5.263158e+00	-2.229691e-01
4.593635e-01	5.263158e+00	-2.042585e-01
3.837764e-01	5.263158e+00	-1.841224e-01
3.103069e-01	5.263158e+00	-1.630077e-01
2.415927e-01	5.263158e+00	-1.409228e-01
1.782654e-01	5.263158e+00	-1.183331e-01
1.234349e-01	5.263158e+00	-9.558566e-02
7.662509e-02	5.263158e+00	-7.318920e-02
4.106998e-02	5.263158e+00	-5.193053e-02
1.528206e-02	5.263158e+00	-3.215886e-02
2.347037e-03	5.263158e+00	-1.488740e-02
0.000000e+00	5.263158e+00	0.000000e+00
1.064939e-02	5.263158e+00	1.066461e-02
3.126595e-02	5.263158e+00	1.703450e-02
6.375031e-02	5.263158e+00	1.787236e-02
1.050105e-01	5.263158e+00	1.417221e-02
1.560448e-01	5.263158e+00	4.777214e-03
2.137742e-01	5.263158e+00	-9.048270e-03
2.782849e-01	5.263158e+00	-2.799567e-02
3.468570e-01	5.263158e+00	-5.051783e-02
4.187060e-01	5.263158e+00	-7.662000e-02
4.916930e-01	5.263158e+00	-1.047585e-01
5.642168e-01	5.263158e+00	-1.343226e-01
6.348639e-01	5.263158e+00	-1.641238e-01
7.013280e-01	5.263158e+00	-1.931337e-01
7.630418e-01	5.263158e+00	-2.206893e-01
8.172084e-01	5.263158e+00	-2.454799e-01
8.641863e-01	5.263158e+00	-2.673591e-01
9.009752e-01	5.263158e+00	-2.848204e-01
9.288372e-01	5.263158e+00	-2.982085e-01
9.448555e-01	5.263158e+00	-3.059908e-01
9.510565e-01	5.263158e+00	-3.090170e-01
9.510565e-01	6.315789e+00	-3.090170e-01
9.442611e-01	6.315789e+00	-3.078203e-01
[...]
CELL_DATA 760
VECTORS V double
8.414229e-01	-6.903444e-02	-1.481715e-01
8.655436e-01	-6.886086e-02	-1.539856e-01
8.835584e-01	-6.841110e-02	-1.611253e-01
8.953239e-01	-6.761669e-02	-1.677079e-01
8.977884e-01	-6.645576e-02	-1.749510e-01
8.991004e-01	-6.491065e-02	-1.814172e-01
8.920620e-01	-6.297104e-02	-1.886199e-01
8.847511e-01	-6.061284e-02	-1.948479e-01
8.704162e-01	-5.780784e-02	-2.030074e-01
8.547755e-01	-5.452299e-02	-2.102994e-01
8.294698e-01	-5.073304e-02	-2.209680e-01
7.985470e-01	-4.642377e-02	-2.294975e-01
7.511967e-01	-4.162816e-02	-2.414358e-01
6.891708e-01	-3.639735e-02	-2.458366e-01
6.025181e-01	-3.076933e-02	-2.499657e-01
4.718397e-01	-2.486691e-02	-2.257548e-01
2.701262e-01	-1.869790e-02	-1.615105e-01
-1.745352e-02	-1.242870e-02	1.338166e-02
-4.218462e-01	-5.860549e-03	5.632692e-01
-3.427127e-01	7.203846e-04	2.173848e+00
2.327137e+00	8.433968e-03	2.330463e+00
2.541793e+00	1.519913e-02	7.853364e-01
2.210622e+00	2.214573e-02	5.701794e-02
1.925579e+00	2.899350e-02	-1.726828e-01
1.720224e+00	3.598320e-02	-3.166794e-01
1.570433e+00	4.295018e-02	-3.760994e-01
1.435576e+00	4.988857e-02	-4.216419e-01
1.336755e+00	5.661985e-02	-4.390507e-01
1.250654e+00	6.302589e-02	-4.543526e-01
1.181710e+00	6.890886e-02	-4.555819e-01
1.121879e+00	7.415321e-02	-4.573302e-01
1.071620e+00	7.862186e-02	-4.520437e-01
1.027479e+00	8.225288e-02	-4.484689e-01
9.872038e-01	8.503789e-02	-4.407931e-01
9.499818e-01	8.702863e-02	-4.347799e-01
9.115293e-01	8.832301e-02	-4.245309e-01
8.743617e-01	8.904932e-02	-4.150010e-01
8.341870e-01	8.935664e-02	-4.008421e-01
7.910583e-01	8.940060e-02	-3.843267e-01
7.483071e-01	8.935493e-02	-3.651810e-01
8.268571e-01	-4.834406e-02	-1.456065e-01
8.473450e-01	-4.821975e-02	-1.507479e-01
8.618075e-01	-4.790123e-02	-1.571588e-01
8.704935e-01	-4.733741e-02	-1.630568e-01
8.702447e-01	-4.650567e-02	-1.695836e-01
8.688603e-01	-4.538719e-02	-1.753155e-01
8.588609e-01	-4.397127e-02	-1.815998e-01
8.479928e-01	-4.224295e-02	-1.867527e-01
8.293222e-01	-4.018735e-02	-1.934230e-01
8.083322e-01	-3.778934e-02	-1.988730e-01
7.765441e-01	-3.501913e-02	-2.068687e-01
7.378835e-01	-3.192735e-02	-2.120632e-01
6.815779e-01	-2.849101e-02	-2.190603e-01
6.085245e-01	-2.476541e-02	-2.170690e-01
5.087226e-01	-2.077649e-02	-2.110529e-01
3.607186e-01	-1.660731e-02	-1.725882e-01
1.373068e-01	-1.225956e-02	-8.209678e-02
-1.815823e-01	-7.846829e-03	1.392197e-01
-6.032871e-01	-3.229161e-03	8.055378e-01
-4.198829e-01	1.390517e-03	2.663343e+00
2.682667e+00	6.790873e-03	2.686501e+00
2.844235e+00	1.150707e-02	8.787819e-01
2.433360e+00	1.632132e-02	6.276298e-02
2.097415e+00	2.103073e-02	-1.880927e-01
1.860547e+00	2.579390e-02	-3.425118e-01
1.689696e+00	3.049139e-02	-4.046613e-01
1.539102e+00	3.511729e-02	-4.520485e-01
1.427840e+00	3.955346e-02	-4.689671e-01
1.330744e+00	4.372832e-02	-4.834487e-01
1.251925e+00	4.753368e-02	-4.826517e-01
1.182687e+00	5.085949e-02	-4.821183e-01
1.123355e+00	5.367700e-02	-4.738671e-01
1.070407e+00	5.593646e-02	-4.672057e-01
1.021751e+00	5.764231e-02	-4.562185e-01
9.765976e-01	5.883577e-02	-4.469612e-01
9.307658e-01	5.958768e-02	-4.334900e-01
8.867529e-01	5.998645e-02	-4.208823e-01
8.402946e-01	6.013287e-02	-4.037769e-01
7.917015e-01	6.012924e-02	-3.846391e-01
7.448100e-01	6.008594e-02	-3.634744e-01
8.205612e-01	-2.041082e-02	-1.444978e-01
8.397195e-01	-2.035898e-02	-1.493913e-01
8.527021e-01	-2.022861e-02	-1.554983e-01
8.598603e-01	-1.999257e-02	-1.610650e-01
8.580690e-01	-1.963395e-02	-1.672109e-01
8.551019e-01	-1.913607e-02	-1.725394e-01
8.434781e-01	-1.848920e-02	-1.783472e-01
8.308736e-01	-1.768794e-02	-1.829825e-01
8.103130e-01	-1.670515e-02	-1.889895e-01
7.869206e-01	-1.558489e-02	-1.936051e-01
7.528531e-01	-1.431274e-02	-2.005576e-01
7.115555e-01	-1.290357e-02	-2.044967e-01
6.517287e-01	-1.134734e-02	-2.094667e-01
5.745688e-01	-9.680254e-03	-2.049565e-01
4.697778e-01	-7.912671e-03	-1.948959e-01
3.150225e-01	-6.076509e-03	-1.507246e-01
8.301760e-02	-4.168794e-03	-4.963684e-02
-2.483874e-01	-2.237449e-03	1.904393e-01
-6.768133e-01	-2.216208e-04	9.037134e-01
-4.509262e-01	1.786777e-03	2.860252e+00
2.823779e+00	4.116020e-03	2.827815e+00
2.961970e+00	6.124114e-03	9.151583e-01
2.517990e+00	8.137707e-03	6.494582e-02
2.160718e+00	1.006164e-02	-1.937696e-01
1.910373e+00	1.195219e-02	-3.516844e-01
1.730303e+00	1.375615e-02	-4.143863e-01
1.572800e+00	1.546815e-02	-4.619457e-01
1.456140e+00	1.704799e-02	-4.782619e-01
1.354664e+00	1.847814e-02	-4.921385e-01
1.271702e+00	1.974421e-02	-4.902764e-01
1.198800e+00	2.080946e-02	-4.886868e-01
1.136484e+00	2.166976e-02	-4.794054e-01
1.080553e+00	2.230662e-02	-4.716344e-01
1.029171e+00	2.277812e-02	-4.595317e-01
9.815351e-01	2.308018e-02	-4.492210e-01
9.334887e-01	2.324482e-02	-4.347581e-01
8.875242e-01	2.330728e-02	-4.212484e-01
8.394014e-01	2.330504e-02	-4.033477e-01
7.894762e-01	2.327457e-02	-3.835580e-01
7.416753e-01	2.324777e-02	-3.619446e-01
8.181575e-01	-1.021937e-02	-1.440745e-01
8.367422e-01	-1.019832e-02	-1.488616e-01
8.489696e-01	-1.014203e-02	-1.548177e-01
8.553555e-01	-1.003621e-02	-1.602212e-01
8.527762e-01	-9.871023e-03	-1.661795e-01
8.489703e-01	-9.623122e-03	-1.713022e-01
8.364768e-01	-9.310431e-03	-1.768668e-01
8.225783e-01	-8.912945e-03	-1.811557e-01
8.009468e-01	-8.439611e-03	-1.868050e-01
7.769231e-01	-7.875727e-03	-1.911455e-01
7.414983e-01	-7.236357e-03	-1.975327e-01
6.983649e-01	-6.498516e-03	-2.007058e-01
6.368026e-01	-5.693035e-03	-2.046694e-01
5.574893e-01	-4.816852e-03	-1.988640e-01
4.500745e-01	-3.882052e-03	-1.867217e-01
2.917735e-01	-2.906016e-03	-1.396010e-01
5.529917e-02	-1.892571e-03	-3.306378e-02
-2.825441e-01	-8.589882e-04	2.166274e-01
-7.144098e-01	2.207773e-04	9.539141e-01
-4.667610e-01	1.295484e-03	2.960694e+00
2.895353e+00	2.537657e-03	2.899491e+00
3.021219e+00	3.602424e-03	9.334647e-01
2.560201e+00	4.662060e-03	6.603454e-02
2.191944e+00	5.665943e-03	-1.965699e-01
1.934695e+00	6.645707e-03	-3.561618e-01
1.749913e+00	7.565871e-03	-4.190825e-01
1.588903e+00	8.430360e-03	-4.666755e-01
1.469545e+00	9.227448e-03	-4.826650e-01
1.365875e+00	9.935948e-03	-4.962114e-01
1.281342e+00	1.055493e-02	-4.939927e-01
1.206799e+00	1.109350e-02	-4.919479e-01
1.142497e+00	1.152492e-02	-4.819419e-01
1.085246e+00	1.186307e-02	-4.736827e-01
1.032971e+00	1.210126e-02	-4.612284e-01
9.842006e-01	1.226137e-02	-4.504409e-01
9.351555e-01	1.234237e-02	-4.355344e-01
8.883136e-01	1.238635e-02	-4.216231e-01
8.394626e-01	1.239655e-02	-4.033771e-01
7.889770e-01	1.238973e-02	-3.833155e-01
7.407060e-01	1.238106e-02	-3.614716e-01
8.170298e-01	-5.651676e-03	-1.438760e-01
8.351876e-01	-5.640555e-03	-1.485850e-01
8.470048e-01	-5.609059e-03	-1.544594e-01
8.529502e-01	-5.549682e-03	-1.597707e-01
8.496150e-01	-5.453492e-03	-1.655635e-01
8.453709e-01	-5.313197e-03	-1.705759e-01
8.324940e-01	-5.141830e-03	-1.760247e-01
8.184741e-01	-4.922197e-03	-1.802518e-01
7.963125e-01	-4.657270e-03	-1.857242e-01
7.711235e-01	-4.321483e-03	-1.897186e-01
7.348547e-01	-3.930553e-03	-1.957628e-01
6.909860e-01	-3.494275e-03	-1.985851e-01
6.283743e-01	-3.022796e-03	-2.019605e-01
5.476637e-01	-2.602301e-03	-1.953591e-01
4.386856e-01	-2.058790e-03	-1.819968e-01
2.783844e-01	-1.451281e-03	-1.331949e-01
3.930896e-02	-8.419570e-04	-2.350312e-02
-3.024393e-01	-2.224030e-04	2.318811e-01
-7.363117e-01	4.253740e-04	9.831586e-01
-4.759729e-01	1.070017e-03	3.019125e+00
2.936845e+00	1.813233e-03	2.941042e+00
3.055387e+00	2.447978e-03	9.440214e-01
2.584417e+00	3.076363e-03	6.665915e-02
2.209856e+00	3.667121e-03	-1.981763e-01
1.948477e+00	4.236746e-03	-3.586991e-01
1.760859e+00	4.759627e-03	-4.217039e-01
1.597937e+00	5.245066e-03	-4.693286e-01
1.476994e+00	5.788949e-03	-4.851115e-01
1.371958e+00	6.193302e-03	-4.984214e-01
1.286310e+00	6.531716e-03	-4.959080e-01
1.210947e+00	6.812653e-03	-4.936385e-01
1.146318e+00	7.042124e-03	-4.835537e-01
1.088275e+00	7.239634e-03	-4.750049e-01
1.034942e+00	7.382175e-03	-4.621084e-01
9.854717e-01	7.480310e-03	-4.510226e-01
9.358715e-01	7.528787e-03	-4.358679e-01
8.888575e-01	7.552127e-03	-4.218812e-01
8.396029e-01	7.558553e-03	-4.034445e-01
7.887823e-01	7.554719e-03	-3.832209e-01
7.403482e-01	7.550459e-03	-3.612970e-01
8.162911e-01	-3.263135e-03	-1.437459e-01
8.342288e-01	-3.270111e-03	-1.484144e-01
8.457751e-01	-3.250854e-03	-1.542351e-01
8.513803e-01	-3.214387e-03	-1.594766e-01
8.479425e-01	-3.152717e-03	-1.652375e-01
8.435659e-01	-3.100154e-03	-1.702117e-01
8.304282e-01	-2.983065e-03	-1.755879e-01
8.156774e-01	-2.839227e-03	-1.796359e-01
7.928336e-01	-2.655075e-03	-1.849128e-01
7.673817e-01	-2.422782e-03	-1.887980e-01
7.306866e-01	-2.183437e-03	-1.946525e-01
6.862650e-01	-1.957872e-03	-1.972283e-01
6.243758e-01	-1.643807e-03	-2.006754e-01
5.432335e-01	-1.425707e-03	-1.937788e-01
4.313868e-01	-1.061269e-03	-1.789687e-01
2.693301e-01	-6.833252e-04	-1.288628e-01
2.905525e-02	-2.869504e-04	-1.737235e-02
-3.149558e-01	1.079179e-04	2.414775e-01
-7.501022e-01	5.199555e-04	1.001572e+00
-4.817679e-01	9.292274e-04	3.055883e+00
2.962867e+00	1.400306e-03	2.967101e+00
3.076734e+00	1.801455e-03	9.506170e-01
2.599422e+00	2.197234e-03	6.704616e-02
2.220668e+00	2.566267e-03	-1.991458e-01
1.956583e+00	2.915817e-03	-3.601913e-01
1.767170e+00	3.242428e-03	-4.232153e-01
1.604549e+00	3.656055e-03	-4.712706e-01
1.482643e+00	3.905776e-03	-4.869667e-01
1.375548e+00	4.156133e-03	-4.997254e-01
1.289157e+00	4.375118e-03	-4.970055e-01
1.213191e+00	4.540148e-03	-4.945533e-01
1.147948e+00	4.645816e-03	-4.842415e-01
1.089801e+00	4.740368e-03	-4.756706e-01
1.036456e+00	4.815300e-03	-4.627845e-01
9.865959e-01	4.861320e-03	-4.515372e-01
9.365313e-01	4.922836e-03	-4.361752e-01
8.890414e-01	4.931926e-03	-4.219685e-01
8.396009e-01	4.933767e-03	-4.034435e-01
7.886064e-01	4.930429e-03	-3.831354e-01
7.400537e-01	4.941322e-03	-3.611532e-01
8.182005e-01	-2.031593e-03	-1.440821e-01
8.341237e-01	-2.027561e-03	-1.483958e-01
8.450452e-01	-2.017378e-03	-1.541020e-01
8.504363e-01	-1.998782e-03	-1.592998e-01
8.473366e-01	-1.968666e-03	-1.651195e-01
8.423749e-01	-2.012631e-03	-1.699714e-01
8.284616e-01	-1.890422e-03	-1.751721e-01
8.137987e-01	-1.785627e-03	-1.792221e-01
7.906882e-01	-1.686655e-03	-1.844124e-01
7.649330e-01	-1.545603e-03	-1.881955e-01
7.287752e-01	-1.389855e-03	-1.941433e-01
6.838111e-01	-1.220265e-03	-1.965231e-01
6.209312e-01	-1.022165e-03	-1.995683e-01
5.391009e-01	-7.442368e-04	-1.923046e-01
4.266032e-01	-5.082428e-04	-1.769842e-01
2.641309e-01	-3.003124e-04	-1.263752e-01
2.239106e-02	-5.620027e-05	-1.338778e-02
-3.230789e-01	1.666836e-04	2.477056e-01
-7.589980e-01	4.282847e-04	1.013450e+00
-4.854935e-01	6.875093e-04	3.079515e+00
2.979569e+00	9.848325e-04	2.983827e+00
3.090399e+00	1.236091e-03	9.548392e-01
2.609006e+00	1.508399e-03	6.729336e-02
2.227626e+00	1.737849e-03	-1.997698e-01
1.962035e+00	1.958301e-03	-3.611950e-01
1.773654e+00	2.171845e-03	-4.247683e-01
1.607871e+00	2.398683e-03	-4.722466e-01
1.483935e+00	2.471108e-03	-4.873910e-01
1.378073e+00	2.614975e-03	-5.006428e-01
1.291154e+00	2.750660e-03	-4.977755e-01
1.214339e+00	2.862942e-03	-4.950212e-01
1.148873e+00	2.952918e-03	-4.846317e-01
1.090542e+00	3.051090e-03	-4.759943e-01
1.036698e+00	3.116255e-03	-4.628925e-01
9.871737e-01	3.236774e-03	-4.518016e-01
9.372717e-01	3.228215e-03	-4.365200e-01
8.891277e-01	3.222235e-03	-4.220095e-01
8.395873e-01	3.219269e-03	-4.034370e-01
7.889174e-01	3.216014e-03	-3.832866e-01
7.420163e-01	3.213725e-03	-3.621110e-01
8.156144e-01	-1.152949e-03	-1.436267e-01
8.334012e-01	-1.136060e-03	-1.482672e-01
8.447661e-01	-1.127611e-03	-1.540511e-01
8.501356e-01	-1.136632e-03	-1.592435e-01
8.483583e-01	-1.116432e-03	-1.653186e-01
8.420289e-01	-1.064897e-03	-1.699015e-01
8.269504e-01	-1.023464e-03	-1.748525e-01
8.127865e-01	-9.946143e-04	-1.789992e-01
7.895883e-01	-1.001236e-03	-1.841559e-01
7.634854e-01	-9.206011e-04	-1.878394e-01
7.264341e-01	-8.169909e-04	-1.935196e-01
6.813677e-01	-6.612853e-04	-1.958209e-01
6.177915e-01	-5.806675e-04	-1.985592e-01
5.355562e-01	-3.454117e-04	-1.910402e-01
4.241239e-01	-2.544994e-04	-1.759556e-01
2.610504e-01	-1.261882e-04	-1.249013e-01
1.901967e-02	1.169838e-05	-1.137200e-02
-3.272312e-01	1.547052e-04	2.508891e-01
-7.644920e-01	3.051107e-04	1.020786e+00
-4.877885e-01	4.549484e-04	3.094072e+00
2.989719e+00	6.273820e-04	2.993992e+00
3.099958e+00	7.738670e-04	9.577925e-01
2.615422e+00	9.178533e-04	6.745884e-02
2.231803e+00	1.052696e-03	-2.001444e-01
1.965299e+00	1.181879e-03	-3.617959e-01
1.774739e+00	1.302205e-03	-4.250282e-01
1.608972e+00	1.329346e-03	-4.725697e-01
1.485676e+00	1.440311e-03	-4.879630e-01
1.379192e+00	1.547377e-03	-5.010495e-01
1.292286e+00	1.607906e-03	-4.982117e-01
1.215724e+00	1.676172e-03	-4.955858e-01
1.150345e+00	1.821801e-03	-4.852525e-01
1.091991e+00	1.842518e-03	-4.766267e-01
1.039082e+00	1.884363e-03	-4.639572e-01
9.885213e-01	1.896243e-03	-4.524184e-01
9.362571e-01	1.881438e-03	-4.360475e-01
8.888287e-01	1.884432e-03	-4.218675e-01
8.394132e-01	1.906141e-03	-4.033534e-01
7.883333e-01	1.902946e-03	-3.830028e-01
7.397030e-01	1.887344e-03	-3.609821e-01
8.153661e-01	-1.385826e-03	-1.435830e-01
8.329722e-01	-1.385882e-03	-1.481909e-01
8.451746e-01	-1.386534e-03	-1.541256e-01
8.500667e-01	-1.368606e-03	-1.592305e-01
8.458370e-01	-1.326834e-03	-1.648272e-01
8.407848e-01	-1.248943e-03	-1.696505e-01
8.273902e-01	-1.151749e-03	-1.749455e-01
8.134989e-01	-1.214080e-03	-1.791561e-01
7.896685e-01	-9.935808e-04	-1.841746e-01
7.625134e-01	-1.041596e-03	-1.876002e-01
7.253889e-01	-6.834360e-04	-1.932412e-01
6.806385e-01	-7.697129e-04	-1.956113e-01
6.166073e-01	-3.325887e-04	-1.981786e-01
5.341437e-01	-3.947000e-04	-1.905363e-01
4.230705e-01	6.621598e-05	-1.755186e-01
2.592361e-01	4.076875e-04	-1.240332e-01
1.639922e-02	6.049939e-04	-9.805214e-03
-3.305793e-01	6.547109e-04	2.534561e-01
-7.672888e-01	7.030729e-04	1.024521e+00
-4.889788e-01	7.646682e-04	3.101622e+00
2.995187e+00	8.466409e-04	2.999467e+00
3.103156e+00	9.265785e-04	9.587807e-01
2.617973e+00	9.940727e-04	6.752465e-02
2.234159e+00	1.107228e-03	-2.003557e-01
1.967037e+00	1.043410e-03	-3.621158e-01
1.776081e+00	8.624574e-04	-4.253495e-01
1.610026e+00	4.839642e-04	-4.728795e-01
1.486959e+00	6.469077e-04	-4.883842e-01
1.380247e+00	3.314506e-04	-5.014327e-01
1.292781e+00	4.627292e-04	-4.984026e-01
1.217011e+00	1.693558e-04	-4.961105e-01
1.151025e+00	3.212259e-04	-4.855391e-01
1.091367e+00	6.301125e-05	-4.763543e-01
1.037490e+00	1.194437e-04	-4.632461e-01
9.871552e-01	-9.790566e-05	-4.517931e-01
9.370219e-01	-3.998639e-05	-4.364037e-01
8.896366e-01	-5.445012e-05	-4.222510e-01
8.402950e-01	-6.050629e-05	-4.037771e-01
7.882306e-01	-5.547748e-05	-3.829529e-01
7.396270e-01	-5.440952e-05	-3.609450e-01
8.156239e-01	-2.060673e-04	-1.436284e-01
8.334472e-01	-2.341807e-04	-1.482754e-01
8.440748e-01	-1.797078e-04	-1.539251e-01
8.485794e-01	-1.268603e-04	-1.589520e-01
8.458868e-01	-1.041989e-04	-1.648370e-01
8.389908e-01	-8.394038e-05	-1.692885e-01
8.265331e-01	-6.696641e-05	-1.747643e-01
8.104144e-01	-5.026025e-05	-1.784768e-01
7.873330e-01	5.822602e-06	-1.836299e-01
7.593885e-01	5.630301e-06	-1.868314e-01
7.228444e-01	7.181600e-06	-1.925633e-01
6.768272e-01	-1.762886e-05	-1.945160e-01
6.123545e-01	-3.713178e-05	-1.968117e-01
5.299983e-01	-2.672693e-05	-1.890576e-01
4.109241e-01	1.114916e-05	-1.704794e-01
2.508771e-01	-1.537854e-05	-1.200338e-01
1.337238e-02	-6.825478e-06	-7.995447e-03
-3.297541e-01	5.106008e-07	2.528235e-01
-7.674523e-01	6.444406e-06	1.024739e+00
-4.893214e-01	1.125769e-05	3.103795e+00
2.997746e+00	1.617090e-05	3.002030e+00
3.106332e+00	2.015391e-05	9.597619e-01
2.621499e+00	2.399757e-05	6.761560e-02
2.232516e+00	2.726005e-05	-2.002084e-01
1.960169e+00	6.535046e-05	-3.608514e-01
1.764923e+00	6.844431e-05	-4.226773e-01
1.606101e+00	4.267980e-05	-4.717266e-01
1.483347e+00	1.041602e-04	-4.871981e-01
1.376906e+00	1.020186e-04	-5.002190e-01
1.290207e+00	1.022658e-04	-4.974103e-01
1.213925e+00	1.073638e-04	-4.948526e-01
1.149089e+00	7.872712e-05	-4.847226e-01
1.089170e+00	9.963712e-05	-4.753956e-01
1.036963e+00	1.187962e-04	-4.630110e-01
9.856830e-01	1.428480e-04	-4.511194e-01
9.371877e-01	1.685472e-04	-4.364809e-01
8.883364e-01	1.985096e-04	-4.216339e-01
8.393178e-01	2.097633e-04	-4.033075e-01
7.886778e-01	2.882984e-04	-3.831701e-01
7.398666e-01	2.777505e-04	-3.610619e-01
8.200842e-01	1.464637e-03	-1.444138e-01
8.302504e-01	1.464997e-03	-1.477067e-01
8.416205e-01	1.466687e-03	-1.534775e-01
8.482890e-01	1.451334e-03	-1.588976e-01
8.449790e-01	1.413195e-03	-1.646601e-01
8.401471e-01	1.427060e-03	-1.695218e-01
8.268725e-01	1.289150e-03	-1.748361e-01
8.124477e-01	1.351776e-03	-1.789246e-01
7.889298e-01	1.110568e-03	-1.840023e-01
7.624955e-01	1.135490e-03	-1.875958e-01
7.256909e-01	7.864290e-04	-1.933216e-01
6.812311e-01	7.993351e-04	-1.957816e-01
6.167471e-01	3.680956e-04	-1.982235e-01
5.334451e-01	4.585024e-04	-1.902871e-01
4.228179e-01	-3.679010e-05	-1.754138e-01
2.596247e-01	-3.779011e-04	-1.242192e-01
1.605654e-02	-5.757197e-04	-9.600323e-03
-3.309257e-01	-6.014431e-04	2.537217e-01
-7.675918e-01	-6.531273e-04	1.024925e+00
-4.890851e-01	-7.473520e-04	3.102296e+00
2.995621e+00	-8.346889e-04	2.999902e+00
3.103499e+00	-8.905098e-04	9.588867e-01
2.618200e+00	-9.883718e-04	6.753050e-02
2.235285e+00	-1.104260e-03	-2.004567e-01
1.967804e+00	-1.044204e-03	-3.622569e-01
1.775660e+00	-8.343350e-04	-4.252487e-01
1.610632e+00	-4.913642e-04	-4.730573e-01
1.487754e+00	-6.611670e-04	-4.886454e-01
1.380223e+00	-3.568124e-04	-5.014239e-01
1.292848e+00	-4.215840e-04	-4.984287e-01
1.216718e+00	-1.433081e-04	-4.959913e-01
1.150914e+00	-2.449771e-04	-4.854925e-01
1.091902e+00	-2.958611e-05	-4.765877e-01
1.038106e+00	-1.270880e-04	-4.635215e-01
9.879485e-01	-1.575329e-05	-4.521562e-01
9.380476e-01	-4.792227e-05	-4.368814e-01
8.906306e-01	-2.124108e-05	-4.227228e-01
8.426375e-01	-1.209013e-05	-4.049027e-01
7.927557e-01	-1.635166e-05	-3.851513e-01
7.380116e-01	-1.734082e-05	-3.601567e-01
8.155636e-01	1.522218e-03	-1.436178e-01
8.333205e-01	1.547487e-03	-1.482529e-01
8.446364e-01	1.484351e-03	-1.540275e-01
8.499783e-01	1.447521e-03	-1.592140e-01
8.462780e-01	1.311505e-03	-1.649132e-01
8.413004e-01	1.266207e-03	-1.697546e-01
8.275414e-01	1.207327e-03	-1.749775e-01
8.130857e-01	1.132463e-03	-1.790651e-01
7.901792e-01	1.086626e-03	-1.842937e-01
7.636670e-01	9.889951e-04	-1.878841e-01
7.272679e-01	8.834171e-04	-1.937417e-01
6.822891e-01	7.978218e-04	-1.960857e-01
6.173261e-01	7.033323e-04	-1.984096e-01
5.356016e-01	5.413651e-04	-1.910564e-01
4.247146e-01	3.947372e-04	-1.762007e-01
2.610518e-01	2.763919e-04	-1.249020e-01
1.857861e-02	1.169594e-04	-1.110829e-02
-3.278743e-01	-4.405185e-05	2.513822e-01
-7.636651e-01	-2.106747e-04	1.019682e+00
-4.873201e-01	-3.753482e-04	3.091101e+00
2.990908e+00	-5.643909e-04	2.995182e+00
3.099192e+00	-7.251480e-04	9.575559e-01
2.614495e+00	-8.835460e-04	6.743494e-02
2.231639e+00	-1.031455e-03	-2.001297e-01
1.965863e+00	-1.207996e-03	-3.618997e-01
1.774555e+00	-1.338609e-03	-4.249840e-01
1.608350e+00	-1.461043e-03	-4.723872e-01
1.485425e+00	-1.606572e-03	-4.878805e-01
1.379935e+00	-1.707570e-03	-5.013194e-01
1.292928e+00	-1.790212e-03	-4.984596e-01
1.216159e+00	-1.863551e-03	-4.957633e-01
1.150462e+00	-1.963111e-03	-4.853017e-01
1.090872e+00	-2.011939e-03	-4.761384e-01
1.037017e+00	-2.048141e-03	-4.630348e-01
9.870996e-01	-2.089662e-03	-4.517677e-01
9.369849e-01	-2.133567e-03	-4.363864e-01
8.892043e-01	-2.078843e-03	-4.220458e-01
8.395442e-01	-2.122383e-03	-4.034163e-01
7.883833e-01	-2.199290e-03	-3.830270e-01
7.397151e-01	-2.187677e-03	-3.609880e-01
8.158436e-01	2.166582e-03	-1.436671e-01
8.336561e-01	2.162108e-03	-1.483126e-01
8.447743e-01	2.155140e-03	-1.540526e-01
8.528899e-01	2.055286e-03	-1.597594e-01
8.484538e-01	2.021989e-03	-1.653372e-01
8.419572e-01	1.983773e-03	-1.698871e-01
8.289411e-01	1.902296e-03	-1.752734e-01
8.141487e-01	1.804959e-03	-1.792992e-01
7.908764e-01	1.677597e-03	-1.844563e-01
7.651630e-01	1.559293e-03	-1.882521e-01
7.281920e-01	1.390851e-03	-1.939879e-01
6.836310e-01	1.286710e-03	-1.964713e-01
6.202835e-01	1.063252e-03	-1.993601e-01
5.380480e-01	8.519176e-04	-1.919290e-01