# vtk DataFile Version 2.0
OUTPUT by 3D-VPM
ASCII
DATASET UNSTRUCTURED_GRID
POINTS 820 double
1.000000e+00	0.000000e+00	3.059569e-03
9.931674e-01	0.000000e+00	2.097744e-03
9.755282e-01	0.000000e+00	-3.537407e-04
9.448927e-01	0.000000e+00	-4.476841e-03
9.045085e-01	0.000000e+00	-9.715071e-03
8.530688e-01	0.000000e+00	-1.600649e-02
7.938926e-01	0.000000e+00	-2.284529e-02
7.266841e-01	0.000000e+00	-2.998163e-02
6.545085e-01	0.000000e+00	-3.703316e-02
5.781101e-01	0.000000e+00	-4.354465e-02
5.000000e-01	0.000000e+00	-4.925068e-02
4.218900e-01	0.000000e+00	-5.345776e-02
3.454915e-01	0.000000e+00	-5.607983e-02
2.733159e-01	0.000000e+00	-5.630974e-02
2.061074e-01	0.000000e+00	-5.439486e-02
1.469312e-01	0.000000e+00	-4.970432e-02
9.549150e-02	0.000000e+00	-4.286904e-02
5.510729e-02	0.000000e+00	-3.363798e-02
2.447174e-02	0.000000e+00	-2.280291e-02
6.832625e-03	0.000000e+00	-1.037392e-02
0.000000e+00	0.000000e+00	3.059569e-03
6.832625e-03	0.000000e+00	1.649305e-02
2.447174e-02	0.000000e+00	2.892205e-02
5.510728e-02	0.000000e+00	3.975712e-02
9.549150e-02	0.000000e+00	4.898818e-02
1.469312e-01	0.000000e+00	5.582345e-02
2.061074e-01	0.000000e+00	6.051401e-02
2.733159e-01	0.000000e+00	6.242888e-02
3.454915e-01	0.000000e+00	6.219897e-02
4.218900e-01	0.000000e+00	5.957690e-02
5.000000e-01	0.000000e+00	5.536982e-02
5.781101e-01	0.000000e+00	4.966378e-02
6.545085e-01	0.000000e+00	4.315230e-02
7.266841e-01	0.000000e+00	3.610077e-02
7.938926e-01	0.000000e+00	2.896443e-02
8.530688e-01	0.000000e+00	2.212563e-02
9.045085e-01	0.000000e+00	1.583421e-02
9.448927e-01	0.000000e+00	1.059598e-02
9.755282e-01	0.000000e+00	6.472879e-03
9.931674e-01	0.000000e+00	4.021394e-03
1.000000e+00	0.000000e+00	3.059569e-03
1.000000e+00	1.052632e+00	3.059569e-03
9.931674e-01	1.052632e+00	2.097744e-03
9.755282e-01	1.052632e+00	-3.537407e-04
9.448927e-01	1.052632e+00	-4.476841e-03
9.045085e-01	1.052632e+00	-9.715071e-03
8.530689e-01	1.052632e+00	-1.600649e-02
7.938926e-01	1.052632e+00	-2.284529e-02
7.266841e-01	1.052632e+00	-2.998163e-02
6.545085e-01	1.052632e+00	-3.703316e-02
5.781101e-01	1.052632e+00	-4.354465e-02
5.000000e-01	1.052632e+00	-4.925068e-02
4.218900e-01	1.052632e+00	-5.345776e-02
3.454915e-01	1.052632e+00	-5.607983e-02
2.733158e-01	1.052632e+00	-5.630974e-02
2.061074e-01	1.052632e+00	-5.439486e-02
1.469311e-01	1.052632e+00	-4.970432e-02
9.549150e-02	1.052632e+00	-4.286904e-02
5.510729e-02	1.052632e+00	-3.363798e-02
2.447174e-02	1.052632e+00	-2.280291e-02
6.832625e-03	1.052632e+00	-1.037392e-02
0.000000e+00	1.052632e+00	3.059569e-03
6.832625e-03	1.052632e+00	1.649305e-02
2.447174e-02	1.052632e+00	2.892205e-02
5.510728e-02	1.052632e+00	3.975712e-02
9.549150e-02	1.052632e+00	4.898818e-02
1.469311e-01	1.052632e+00	5.582345e-02
2.061074e-01	1.052632e+00	6.051401e-02
2.733158e-01	1.052632e+00	6.242888e-02
3.454915e-01	1.052632e+00	6.219897e-02
4.218900e-01	1.052632e+00	5.957690e-02
5.000000e-01	1.052632e+00	5.536982e-02
5.781101e-01	1.052632e+00	4.966378e-02
6.545085e-01	1.052632e+00	4.315230e-02
7.266841e-01	1.052632e+00	3.610077e-02
7.938926e-01	1.052632e+00	2.896443e-02
8.530689e-01	1.052632e+00	2.212563e-02
9.045085e-01	1.052632e+00	1.583421e-02
9.448927e-01	1.052632e+00	1.059598e-02
9.755282e-01	1.052632e+00	6.472879e-03
9.931674e-01	1.052632e+00	4.021394e-03
1.000000e+00	1.052632e+00	3.059569e-03
1.000000e+00	2.105263e+00	3.059569e-03
9.931674e-01	2.105263e+00	2.097744e-03
9.755282e-01	2.105263e+00	-3.537407e-04
9.448927e-01	2.105263e+00	-4.476841e-03
9.045085e-01	2.105263e+00	-9.715071e-03
8.530689e-01	2.105263e+00	-1.600649e-02
7.938926e-01	2.105263e+00	-2.284529e-02
7.266841e-01	2.105263e+00	-2.998163e-02
6.545085e-01	2.105263e+00	-3.703316e-02
5.781101e-01	2.105263e+00	-4.354465e-02
5.000000e-01	2.105263e+00	-4.925068e-02
4.218900e-01	2.105263e+00	-5.345776e-02
3.454915e-01	2.105263e+00	-5.607983e-02
2.733158e-01	2.105263e+00	-5.630974e-02
2.061074e-01	2.105263e+00	-5.439486e-02
1.469312e-01	2.105263e+00	-4.970432e-02
9.549150e-02	2.105263e+00	-4.286904e-02
5.510729e-02	2.105263e+00	-3.363798e-02
2.447174e-02	2.105263e+00	-2.280291e-02
6.832625e-03	2.105263e+00	-1.037392e-02
0.000000e+00	2.105263e+00	3.059569e-03
6.832625e-03	2.105263e+00	1.649305e-02
2.447174e-02	2.105263e+00	2.892205e-02
5.510728e-02	2.105263e+00	3.975712e-02
9.549150e-02	2.105263e+00	4.898818e-02
1.469312e-01	2.105263e+00	5.582345e-02
2.061074e-01	2.105263e+00	6.051401e-02
2.733158e-01	2.105263e+00	6.242888e-02
3.454915e-01	2.105263e+00	6.219897e-02
4.218900e-01	2.105263e+00	5.957690e-02
5.000000e-01	2.105263e+00	5.536982e-02
5.781101e-01	2.105263e+00	4.966378e-02
6.545085e-01	2.105263e+00	4.315230e-02
7.266841e-01	2.105263e+00	3.610077e-02
7.938926e-01	2.105263e+00	2.896443e-02
8.530689e-01	2.105263e+00	2.212563e-02
9.045085e-01	2.105263e+00	1.583421e-02
9.448927e-01	2.105263e+00	1.059598e-02
9.755282e-01	2.105263e+00	6.472879e-03
9.931674e-01	2.105263e+00	4.021394e-03
1.000000e+00	2.105263e+00	3.059569e-03
1.000000e+00	3.157895e+00	3.059569e-03
9.931674e-01	3.157895e+00	2.097744e-03
9.755282e-01	3.157895e+00	-3.537407e-04
9.448927e-01	3.157895e+00	-4.476841e-03
9.045085e-01	3.157895e+00	-9.715071e-03
8.530689e-01	3.157895e+00	-1.600649e-02
7.938926e-01	3.157895e+00	-2.284529e-02
7.266842e-01	3.157895e+00	-2.998163e-02
6.545085e-01	3.157895e+00	-3.703316e-02
5.781101e-01	3.157895e+00	-4.354465e-02
5.000000e-01	3.157895e+00	-4.925068e-02
4.218900e-01	3.157895e+00	-5.345776e-02
3.454915e-01	3.157895e+00	-5.607983e-02
2.733158e-01	3.157895e+00	-5.630974e-02
2.061074e-01	3.157895e+00	-5.439486e-02
1.469312e-01	3.157895e+00	-4.970432e-02
9.549150e-02	3.157895e+00	-4.286904e-02
5.510729e-02	3.157895e+00	-3.363798e-02
2.447174e-02	3.157895e+00	-2.280291e-02
6.832625e-03	3.157895e+00	-1.037392e-02
0.000000e+00	3.157895e+00	3.059569e-03
6.832625e-03	3.157895e+00	1.649305e-02
2.447174e-02	3.157895e+00	2.892205e-02
5.510728e-02	3.157895e+00	3.975712e-02
9.549150e-02	3.157895e+00	4.898818e-02
1.469312e-01	3.157895e+00	5.582345e-02
2.061074e-01	3.157895e+00	6.051401e-02
2.733158e-01	3.157895e+00	6.242888e-02
3.454915e-01	3.157895e+00	6.219897e-02
4.218900e-01	3.157895e+00	5.957690e-02
5.000000e-01	3.157895e+00	5.536982e-02
5.781101e-01	3.157895e+00	4.966378e-02
6.545085e-01	3.157895e+00	4.315230e-02
7.266842e-01	3.157895e+00	3.610077e-02
7.938926e-01	3.157895e+00	2.896443e-02
8.530689e-01	3.157895e+00	2.212563e-02
9.045085e-01	3.157895e+00	1.583421e-02
9.448927e-01	3.157895e+00	1.059598e-02
9.755282e-01	3.157895e+00	6.472879e-03
9.931674e-01	3.157895e+00	4.021394e-03
1.000000e+00	3.157895e+00	3.059569e-03
1.000000e+00	4.210526e+00	3.059569e-03
9.931674e-01	4.210526e+00	2.097744e-03
9.755282e-01	4.210526e+00	-3.537407e-04
9.448927e-01	4.210526e+00	-4.476841e-03
9.045085e-01	4.210526e+00	-9.715071e-03
8.530689e-01	4.210526e+00	-1.600649e-02
7.938926e-01	4.210526e+00	-2.284529e-02
7.266841e-01	4.210526e+00	-2.998163e-02
6.545085e-01	4.210526e+00	-3.703316e-02
5.781101e-01	4.210526e+00	-4.354465e-02
5.000000e-01	4.210526e+00	-4.925068e-02
4.218900e-01	4.210526e+00	-5.345776e-02
3.454915e-01	4.210526e+00	-5.607983e-02
2.733158e-01	4.210526e+00	-5.630974e-02
2.061074e-01	4.210526e+00	-5.439486e-02
1.469311e-01	4.210526e+00	-4.970432e-02
9.549150e-02	4.210526e+00	-4.286904e-02
5.510729e-02	4.210526e+00	-3.363798e-02
2.447174e-02	4.210526e+00	-2.280291e-02
6.832625e-03	4.210526e+00	-1.037392e-02
0.000000e+00	4.210526e+00	3.059569e-03
6.832625e-03	4.210526e+00	1.649305e-02
2.447174e-02	4.210526e+00	2.892205e-02
5.510728e-02	4.210526e+00	3.975712e-02
9.549150e-02	4.210526e+00	4.898818e-02
1.469311e-01	4.210526e+00	5.582345e-02
2.061074e-01	4.210526e+00	6.051401e-02
2.733158e-01	4.210526e+00	6.242888e-02
3.454915e-01	4.210526e+00	6.219897e-02
4.218900e-01	4.210526e+00	5.957690e-02
5.000000e-01	4.210526e+00	5.536982e-02
5.781101e-01	4.210526e+00	4.966378e-02
6.545085e-01	4.210526e+00	4.315230e-02
7.266841e-01	4.210526e+00	3.610077e-02
7.938926e-01	4.210526e+00	2.896443e-02
8.530689e-01	4.210526e+00	2.212563e-02
9.045085e-01	4.210526e+00	1.583421e-02
9.448927e-01	4.210526e+00	1.059598e-02
9.755282e-01	4.210526e+00	6.472879e-03
9.931674e-01	4.210526e+00	4.021394e-03
1.000000e+00	4.210526e+00	3.059569e-03
1.000000e+00	5.263158e+00	3.059569e-03
9.931674e-01	5.263158e+00	2.097744e-03
9.755282e-01	5.263158e+00	-3.537407e-04
9.448927e-01	5.263158e+00	-4.476841e-03
9.045085e-01	5.263158e+00	-9.715071e-03
8.530689e-01	5.263158e+00	-1.600649e-02
7.938926e-01	5.263158e+00	-2.284529e-02
7.266842e-01	5.263158e+00	-2.998163e-02
6.545085e-01	5.263158e+00	-3.703316e-02
5.781101e-01	5.263158e+00	-4.354465e-02
5.000000e-01	5.263158e+00	-4.925068e-02
4.218900e-01	5.263158e+00	-5.345776e-02
3.454915e-01	5.263158e+00	-5.607983e-02
2.733158e-01	5.263158e+00	-5.630974e-02
2.061074e-01	5.263158e+00	-5.439486e-02
1.469311e-01	5.263158e+00	-4.970432e-02
9.549150e-02	5.263158e+00	-4.286904e-02
5.510729e-02	5.263158e+00	-3.363798e-02
2.447174e-02	5.263158e+00	-2.280291e-02
6.832625e-03	5.263158e+00	-1.037392e-02
0.000000e+00	5.263158e+00	3.059569e-03
6.832625e-03	5.263158e+00	1.649305e-02
2.447174e-02	5.263158e+00	2.892205e-02
5.510728e-02	5.263158e+00	3.975712e-02
9.549150e-02	5.263158e+00	4.898818e-02
1.469311e-01	5.263158e+00	5.582345e-02
2.061074e-01	5.263158e+00	6.051401e-02
2.733158e-01	5.263158e+00	6.242888e-02
3.454915e-01	5.263158e+00	6.219897e-02
4.218900e-01	5.263158e+00	5.957690e-02
5.000000e-01	5.263158e+00	5.536982e-02
5.781101e-01	5.263158e+00	4.966378e-02
6.545085e-01	5.263158e+00	4.315230e-02
7.266842e-01	5.263158e+00	3.610077e-02
7.938926e-01	5.263158e+00	2.896443e-02
8.530689e-01	5.263158e+00	2.212563e-02
9.045085e-01	5.263158e+00	1.583421e-02
9.448927e-01	5.263158e+00	1.059598e-02
9.755282e-01	5.263158e+00	6.472879e-03
9.931674e-01	5.263158e+00	4.021394e-03
1.000000e+00	5.263158e+00	3.059569e-03
1.000000e+00	6.315789e+00	3.059569e-03
9.931673e-01	6.315789e+00	2.097744e-03
9.755282e-01	6.315789e+00	-3.537407e-04
9.448927e-01	6.315789e+00	-4.476841e-03
9.045085e-01	6.315789e+00	-9.715071e-03
[...]
CELL_DATA 760
VECTORS V double
3.018112e-01	1.356527e-03	4.248564e-02
3.124105e-01	1.339702e-03	4.341874e-02
3.238329e-01	1.330535e-03	4.358327e-02
3.351847e-01	1.330304e-03	4.347677e-02
3.451340e-01	1.328350e-03	4.221225e-02
3.554926e-01	1.311446e-03	4.108309e-02
3.640637e-01	1.266988e-03	3.865708e-02
3.731213e-01	1.184422e-03	3.645379e-02
3.814229e-01	1.057562e-03	3.250890e-02
3.905101e-01	8.859856e-04	2.852724e-02
3.993998e-01	6.761213e-04	2.151206e-02
4.087711e-01	4.407830e-04	1.402942e-02
4.178201e-01	1.958974e-04	1.330934e-03
4.262171e-01	-4.087297e-05	-1.214363e-02
4.355922e-01	-2.572292e-04	-3.452677e-02
4.379451e-01	-4.436497e-04	-5.819393e-02
4.316293e-01	-6.003170e-04	-9.866221e-02
4.147572e-01	-7.272014e-04	-1.466898e-01
3.358854e-01	-8.331948e-04	-2.366739e-01
1.247813e-01	-9.179075e-04	-2.453299e-01
6.192206e-02	-9.940455e-04	1.217437e-01
2.669705e-01	-1.040599e-03	1.881146e-01
3.632703e-01	-1.066061e-03	1.284802e-01
3.942995e-01	-1.064083e-03	9.012933e-02
4.107352e-01	-1.028226e-03	5.457828e-02
4.156909e-01	-9.530450e-04	3.294939e-02
4.121998e-01	-8.352755e-04	1.174419e-02
4.084219e-01	-6.787731e-04	-1.300997e-03
4.034087e-01	-4.917422e-04	-1.384537e-02
3.974589e-01	-2.883219e-04	-2.140752e-02
3.917820e-01	-8.326884e-05	-2.862016e-02
3.856652e-01	1.095148e-04	-3.287047e-02
3.803523e-01	2.802177e-04	-3.716025e-02
3.742549e-01	4.239771e-04	-3.973920e-02
3.687303e-01	5.403958e-04	-4.261291e-02
3.612924e-01	6.323444e-04	-4.418852e-02
3.538305e-01	7.037161e-04	-4.589531e-02
3.434364e-01	7.573007e-04	-4.622162e-02
3.301567e-01	7.917949e-04	-4.588511e-02
3.144505e-01	8.026908e-04	-4.426487e-02
3.032307e-01	7.860753e-04	4.268547e-02
3.130131e-01	7.763494e-04	4.350248e-02
3.239617e-01	7.703782e-04	4.360060e-02
3.352148e-01	7.688096e-04	4.348067e-02
3.453397e-01	7.657308e-04	4.223740e-02
3.560442e-01	7.539138e-04	4.114682e-02
3.650708e-01	7.266247e-04	3.876402e-02
3.746467e-01	6.783151e-04	3.660283e-02
3.834861e-01	6.058215e-04	3.268474e-02
3.930823e-01	5.090190e-04	2.871515e-02
4.024063e-01	3.913753e-04	2.167399e-02
4.121005e-01	2.597049e-04	1.414368e-02
4.213398e-01	1.224361e-04	1.342146e-03
4.298027e-01	-1.099470e-05	-1.224579e-02
4.391507e-01	-1.339715e-04	-3.480883e-02
4.414491e-01	-2.411359e-04	-5.865954e-02
4.351136e-01	-3.323591e-04	-9.945867e-02
4.183587e-01	-4.071550e-04	-1.479636e-01
3.395566e-01	-4.702101e-04	-2.392607e-01
1.273689e-01	-5.208028e-04	-2.504173e-01
6.004939e-02	-5.661835e-04	1.180619e-01
2.656963e-01	-5.937601e-04	1.872168e-01
3.629795e-01	-6.087979e-04	1.283773e-01
3.948066e-01	-6.079338e-04	9.024525e-02
4.118958e-01	-5.878970e-04	5.473250e-02
4.174117e-01	-5.459572e-04	3.308578e-02
4.143802e-01	-4.804985e-04	1.180632e-02
4.109380e-01	-3.936697e-04	-1.309012e-03
4.061190e-01	-2.898168e-04	-1.393840e-02
4.002184e-01	-1.764311e-04	-2.155615e-02
3.944638e-01	-6.133154e-05	-2.881607e-02
3.881738e-01	4.800790e-05	-3.308428e-02
3.826337e-01	1.461657e-04	-3.738315e-02
3.762985e-01	2.302361e-04	-3.995620e-02
3.705632e-01	2.996042e-04	-4.282474e-02
3.629710e-01	3.553742e-04	-4.439383e-02
3.554225e-01	3.992114e-04	-4.610181e-02
3.449707e-01	4.322701e-04	-4.642812e-02
3.315192e-01	4.535251e-04	-4.607446e-02
3.153698e-01	4.604341e-04	-4.439428e-02
3.034523e-01	1.406277e-04	4.271667e-02
3.131529e-01	1.389787e-04	4.352192e-02
3.240571e-01	1.371277e-04	4.361345e-02
3.353058e-01	1.350448e-04	4.349248e-02
3.454531e-01	1.320027e-04	4.225127e-02
3.561932e-01	1.272754e-04	4.116405e-02
3.652612e-01	1.203797e-04	3.878423e-02
3.748805e-01	1.110155e-04	3.662566e-02
3.837634e-01	9.911312e-05	3.270838e-02
3.934023e-01	8.478343e-05	2.873852e-02
4.027671e-01	6.834100e-05	2.169342e-02
4.125001e-01	5.028757e-05	1.415740e-02
4.217760e-01	3.119414e-05	1.343535e-03
4.302742e-01	1.181226e-05	-1.225922e-02
4.396573e-01	-7.280029e-06	-3.484899e-02
4.419952e-01	-2.532350e-05	-5.873210e-02
4.357066e-01	-4.203178e-05	-9.959421e-02
4.190179e-01	-5.677845e-05	-1.481968e-01
3.402593e-01	-6.985269e-05	-2.397559e-01
1.278697e-01	-8.054569e-05	-2.514019e-01
5.969612e-02	-8.999496e-05	1.173673e-01
2.654630e-01	-9.549387e-05	1.870524e-01
3.629160e-01	-9.836405e-05	1.283548e-01
3.948611e-01	-9.838192e-05	9.025770e-02
4.120307e-01	-9.549748e-05	5.475043e-02
4.176063e-01	-8.972565e-05	3.310121e-02
4.146210e-01	-8.110471e-05	1.181318e-02
4.112151e-01	-6.993179e-05	-1.309894e-03
4.064248e-01	-5.652256e-05	-1.394889e-02
4.005461e-01	-4.141545e-05	-2.157380e-02
3.948078e-01	-2.516363e-05	-2.884120e-02
3.885289e-01	-8.419560e-06	-3.311455e-02
3.829958e-01	8.177178e-06	-3.741852e-02
3.766642e-01	2.404008e-05	-3.999503e-02
3.709306e-01	3.864677e-05	-4.286720e-02
3.633388e-01	5.155653e-05	-4.443881e-02
3.557893e-01	6.235272e-05	-4.614939e-02
3.453289e-01	7.067268e-05	-4.647633e-02
3.318425e-01	7.602145e-05	-4.611939e-02
3.156164e-01	7.804974e-05	-4.442899e-02
3.035090e-01	4.663834e-05	4.272464e-02
3.131960e-01	4.615890e-05	4.352791e-02
3.240948e-01	4.547211e-05	4.361852e-02
3.353461e-01	4.452427e-05	4.349770e-02
3.455007e-01	4.312286e-05	4.225709e-02
3.562496e-01	4.111462e-05	4.117056e-02
3.653268e-01	3.843008e-05	3.879120e-02
3.749557e-01	3.503442e-05	3.663301e-02
3.838484e-01	3.094211e-05	3.271562e-02
3.934973e-01	2.619760e-05	2.874546e-02
4.028722e-01	2.088803e-05	2.169909e-02
4.126155e-01	1.514407e-05	1.416136e-02
4.219016e-01	9.109615e-06	1.343935e-03
4.304105e-01	2.985853e-06	-1.226311e-02
4.398049e-01	-3.074420e-06	-3.486069e-02
4.421559e-01	-8.845686e-06	-5.875346e-02
4.358829e-01	-1.423408e-05	-9.963451e-02
4.192152e-01	-1.901856e-05	-1.482665e-01
3.404696e-01	-2.326373e-05	-2.399041e-01
1.280179e-01	-2.670927e-05	-2.516934e-01
5.959502e-02	-2.968478e-05	1.171685e-01
2.654015e-01	-3.132574e-05	1.870091e-01
3.629054e-01	-3.205613e-05	1.283511e-01
3.948844e-01	-3.183193e-05	9.026304e-02
4.120764e-01	-3.065778e-05	5.475651e-02
4.176680e-01	-2.857280e-05	3.310610e-02
4.146947e-01	-2.561177e-05	1.181528e-02
4.112981e-01	-2.188647e-05	-1.310159e-03
4.065151e-01	-1.749964e-05	-1.395199e-02
4.006422e-01	-1.261460e-05	-2.157897e-02
3.949086e-01	-7.385297e-06	-2.884856e-02
3.886336e-01	-1.987491e-06	-3.312347e-02
3.831038e-01	3.409570e-06	-3.742908e-02
3.767757e-01	8.644270e-06	-4.000686e-02
3.710455e-01	1.355433e-05	-4.288048e-02
3.634567e-01	1.798023e-05	-4.445323e-02
3.559088e-01	2.173910e-05	-4.616489e-02
3.454470e-01	2.466373e-05	-4.649222e-02
3.319534e-01	2.658179e-05	-4.613480e-02
3.157121e-01	2.740343e-05	-4.444246e-02
3.035332e-01	2.091232e-05	4.272806e-02
3.132162e-01	2.069149e-05	4.353072e-02
3.241135e-01	2.034021e-05	4.362104e-02
3.353660e-01	1.983760e-05	4.350029e-02
3.455236e-01	1.911324e-05	4.225989e-02
3.562759e-01	1.810866e-05	4.117361e-02
3.653568e-01	1.679713e-05	3.879438e-02
3.749892e-01	1.517187e-05	3.663628e-02
3.838854e-01	1.325329e-05	3.271878e-02
3.935378e-01	1.107225e-05	2.874842e-02
4.029164e-01	8.671493e-06	2.170147e-02
4.126634e-01	6.106653e-06	1.416301e-02
4.219536e-01	3.435191e-06	1.344101e-03
4.304667e-01	7.380939e-07	-1.226471e-02
4.398657e-01	-1.923520e-06	-3.486550e-02
4.422221e-01	-4.454109e-06	-5.876225e-02
4.359553e-01	-6.812644e-06	-9.965105e-02
4.192959e-01	-8.899537e-06	-1.482951e-01
3.405550e-01	-1.073795e-05	-2.399642e-01
1.280770e-01	-1.220988e-05	-2.518095e-01
5.955643e-02	-1.344550e-05	1.170927e-01
2.653807e-01	-1.408339e-05	1.869944e-01
3.629053e-01	-1.430230e-05	1.283510e-01
3.948977e-01	-1.409196e-05	9.026608e-02
4.120984e-01	-1.345718e-05	5.475943e-02
4.176960e-01	-1.242461e-05	3.310832e-02
4.147272e-01	-1.101502e-05	1.181620e-02
4.113339e-01	-9.283141e-06	-1.310273e-03
4.065535e-01	-7.275168e-06	-1.395331e-02
4.006828e-01	-5.060231e-06	-2.158116e-02
3.949511e-01	-2.700001e-06	-2.885166e-02
3.886778e-01	-2.653495e-07	-3.312724e-02
3.831497e-01	2.171914e-06	-3.743356e-02
3.768230e-01	4.535937e-06	-4.001189e-02
3.710941e-01	6.744755e-06	-4.288610e-02
3.635064e-01	8.726018e-06	-4.445931e-02
3.559592e-01	1.040890e-05	-4.617143e-02
3.454973e-01	1.172535e-05	-4.649900e-02
3.320015e-01	1.259887e-05	-4.614149e-02
3.157550e-01	1.298588e-05	-4.444851e-02
3.035462e-01	1.123359e-05	4.272988e-02
3.132276e-01	1.110934e-05	4.353230e-02
3.241243e-01	1.090010e-05	4.362249e-02
3.353775e-01	1.059578e-05	4.350178e-02
3.455364e-01	1.016448e-05	4.226146e-02
3.562904e-01	9.580527e-06	4.117528e-02
3.653730e-01	8.833564e-06	3.879610e-02
3.750071e-01	7.921756e-06	3.663803e-02
3.839050e-01	6.856568e-06	3.272045e-02
3.935591e-01	5.656347e-06	2.874997e-02
4.029393e-01	4.346550e-06	2.170270e-02
4.126881e-01	2.958875e-06	1.416385e-02
4.219800e-01	1.524158e-06	1.344185e-03
4.304952e-01	8.450259e-08	-1.226552e-02
4.398964e-01	-1.329029e-06	-3.486794e-02
4.422554e-01	-2.666805e-06	-5.876667e-02
4.359916e-01	-3.907383e-06	-9.965935e-02
4.193361e-01	-4.997849e-06	-1.483093e-01
3.405970e-01	-5.949024e-06	-2.399938e-01
1.281055e-01	-6.698514e-06	-2.518656e-01
5.953864e-02	-7.308100e-06	1.170577e-01
2.653725e-01	-7.598949e-06	1.869886e-01
3.629072e-01	-7.660796e-06	1.283517e-01
3.949061e-01	-7.492391e-06	9.026800e-02
4.121109e-01	-7.096642e-06	5.476109e-02
4.177114e-01	-6.491134e-06	3.310954e-02
4.147446e-01	-5.688203e-06	1.181670e-02
4.113529e-01	-4.718367e-06	-1.310333e-03
4.065737e-01	-3.605910e-06	-1.395400e-02
4.007040e-01	-2.387211e-06	-2.158230e-02
3.949732e-01	-1.095344e-06	-2.885328e-02
3.887007e-01	2.296979e-07	-3.312919e-02
3.831733e-01	1.546923e-06	-3.743587e-02
3.768473e-01	2.815820e-06	-4.001447e-02
3.711189e-01	3.996684e-06	-4.288897e-02
3.635317e-01	5.054674e-06	-4.446241e-02
3.559850e-01	5.953315e-06	-4.617478e-02
3.455231e-01	6.656475e-06	-4.650246e-02
3.320262e-01	7.124350e-06	-4.614493e-02
3.157774e-01	7.334200e-06	-4.445165e-02
3.035542e-01	6.758364e-06	4.273101e-02
3.132348e-01	6.680663e-06	4.353330e-02
3.241313e-01	6.544428e-06	4.362343e-02
3.353849e-01	6.344236e-06	4.350273e-02
3.455445e-01	6.063793e-06	4.226245e-02
3.562993e-01	5.690960e-06	4.117631e-02
3.653828e-01	5.221965e-06	3.879715e-02
3.750179e-01	4.657336e-06	3.663908e-02
3.839167e-01	4.004674e-06	3.272144e-02
3.935717e-01	3.274891e-06	2.875089e-02
4.029528e-01	2.483140e-06	2.170343e-02
4.127026e-01	1.648571e-06	1.416435e-02
4.219955e-01	7.900058e-07	1.344234e-03
4.305117e-01	-6.738526e-08	-1.226599e-02
4.399142e-01	-9.052759e-07	-3.486935e-02
4.422745e-01	-1.694358e-06	-5.876922e-02
4.360123e-01	-2.421802e-06	-9.966409e-02
4.193588e-01	-3.056139e-06	-1.483173e-01
3.406205e-01	-3.602898e-06	-2.400104e-01
1.281211e-01	-4.025499e-06	-2.518962e-01
5.952952e-02	-4.355983e-06	1.170398e-01
2.653692e-01	-4.497252e-06	1.869863e-01
3.629096e-01	-4.499172e-06	1.283526e-01
3.949121e-01	-4.363693e-06	9.026935e-02
4.121190e-01	-4.092646e-06	5.476217e-02
4.177210e-01	-3.698379e-06	3.311030e-02
4.147553e-01	-3.188809e-06	1.181700e-02
4.113644e-01	-2.582983e-06	-1.310370e-03
4.065859e-01	-1.895776e-06	-1.395442e-02
4.007167e-01	-1.149917e-06	-2.158299e-02
3.949864e-01	-3.662716e-07	-2.885424e-02
3.887142e-01	4.308968e-07	-3.313034e-02
3.831871e-01	1.218235e-06	-3.743722e-02
3.768614e-01	1.973508e-06	-4.001596e-02
3.711334e-01	2.674689e-06	-4.289063e-02
3.635464e-01	3.302047e-06	-4.446421e-02
3.559999e-01	3.834401e-06	-4.617671e-02
3.455380e-01	4.250643e-06	-4.650447e-02
3.320406e-01	4.528077e-06	-4.614692e-02
3.157904e-01	4.653624e-06	-4.445349e-02
3.035593e-01	4.156998e-06	4.273173e-02
3.132395e-01	4.130242e-06	4.353396e-02
3.241360e-01	4.092954e-06	4.362406e-02
3.353898e-01	4.047802e-06	4.350337e-02
3.455498e-01	3.990201e-06	4.226310e-02
3.563052e-01	3.911847e-06	4.117699e-02
3.653892e-01	3.798320e-06	3.879782e-02
3.750247e-01	3.626373e-06	3.663975e-02
3.839240e-01	3.370382e-06	3.272207e-02
3.935796e-01	3.012571e-06	2.875147e-02
4.029612e-01	2.554973e-06	2.170388e-02
4.127116e-01	2.023214e-06	1.416466e-02
4.220051e-01	1.456976e-06	1.344265e-03
4.305219e-01	8.993333e-07	-1.226628e-02
4.399251e-01	3.759546e-07	-3.487021e-02
4.422862e-01	-9.579999e-08	-5.877077e-02
4.360249e-01	-5.170159e-07	-9.966697e-02
4.193725e-01	-8.780243e-07	-1.483222e-01
3.406345e-01	-1.186586e-06	-2.400202e-01
1.281300e-01	-1.423208e-06	-2.519138e-01
5.952466e-02	-1.605163e-06	1.170302e-01
2.653682e-01	-1.678948e-06	1.869856e-01
3.629120e-01	-1.672309e-06	1.283534e-01
3.949164e-01	-1.585620e-06	9.027034e-02
4.121246e-01	-1.415118e-06	5.476291e-02
4.177274e-01	-1.159948e-06	3.311081e-02
4.147623e-01	-8.163588e-07	1.181720e-02
4.113718e-01	-3.963228e-07	-1.310393e-03
4.065936e-01	7.600065e-08	-1.395468e-02
4.007247e-01	5.584320e-07	-2.158342e-02
3.949945e-01	1.009892e-06	-2.885484e-02
3.887226e-01	1.401871e-06	-3.313105e-02
3.831957e-01	1.727847e-06	-3.743805e-02
3.768701e-01	1.999488e-06	-4.001689e-02
3.711422e-01	2.234511e-06	-4.289166e-02
3.635555e-01	2.445572e-06	-4.446531e-02
3.560091e-01	2.633377e-06	-4.617790e-02
3.455472e-01	2.788160e-06	-4.650571e-02
3.320495e-01	2.893946e-06	-4.614816e-02
3.157986e-01	2.940524e-06	-4.445464e-02
3.035587e-01	-3.331585e-04	4.273164e-02
3.132382e-01	-3.337615e-04	4.353378e-02
3.241341e-01	-3.356527e-04	4.362381e-02
3.353875e-01	-3.322484e-04	4.350307e-02
3.455473e-01	-3.217977e-04	4.226279e-02
3.563027e-01	-3.337768e-04	4.117671e-02
3.653873e-01	-2.807801e-04	3.879763e-02
3.750241e-01	-3.038751e-04	3.663969e-02
3.839252e-01	-2.175307e-04	3.272217e-02
3.935827e-01	-2.501466e-04	2.875170e-02
4.029662e-01	-1.315923e-04	2.170415e-02
4.127178e-01	-1.715045e-04	1.416487e-02
4.220120e-01	-2.823882e-05	1.344287e-03
4.305288e-01	-7.465563e-05	-1.226648e-02
4.399317e-01	8.721319e-05	-3.487074e-02
4.422927e-01	1.894771e-04	-5.877163e-02
4.360315e-01	2.369139e-04	-9.966847e-02
4.193795e-01	2.191021e-04	-1.483246e-01
3.406416e-01	2.103637e-04	-2.400252e-01
1.281347e-01	2.068453e-04	-2.519230e-01
5.952197e-02	2.067629e-04	1.170249e-01
2.653673e-01	2.101408e-04	1.869850e-01
3.629129e-01	2.187425e-04	1.283537e-01
3.949185e-01	2.364300e-04	9.027083e-02
4.121278e-01	1.888802e-04	5.476334e-02
4.177316e-01	8.651812e-05	3.311114e-02
4.147674e-01	-7.543229e-05	1.181735e-02
4.113775e-01	-2.907891e-05	-1.310411e-03
4.065991e-01	-1.723892e-04	-1.395487e-02
4.007293e-01	-1.325023e-04	-2.158367e-02
3.949977e-01	-2.510639e-04	-2.885507e-02
3.887241e-01	-2.184380e-04	-3.313119e-02
3.831958e-01	-3.047582e-04	-3.743807e-02
3.768693e-01	-2.816263e-04	-4.001681e-02
3.711412e-01	-3.345786e-04	-4.289154e-02
3.635546e-01	-3.225511e-04	-4.446520e-02
3.560086e-01	-3.329569e-04	-4.617784e-02
3.455470e-01	-3.363257e-04	-4.650569e-02
3.320494e-01	-3.344148e-04	-4.614815e-02
3.157983e-01	-3.338067e-04	-4.445460e-02
3.036611e-01	3.401641e-09	4.274606e-02
3.133891e-01	5.738627e-09	4.355475e-02
3.240516e-01	6.659010e-09	4.361271e-02
3.350206e-01	6.426495e-09	4.345548e-02
3.456230e-01	5.884741e-09	4.227205e-02
3.555141e-01	5.306244e-09	4.108557e-02
3.649794e-01	4.693197e-09	3.875431e-02
3.740597e-01	4.026547e-09	3.654547e-02
3.832145e-01	3.143223e-09	3.266160e-02
3.924110e-01	2.057265e-09	2.866611e-02
4.018858e-01	7.476052e-10	2.164596e-02
4.113287e-01	-6.608553e-10	1.411720e-02
4.205019e-01	-2.103092e-09	1.339477e-03
4.288578e-01	-3.448581e-09	-1.221887e-02
4.352125e-01	-4.601761e-09	-3.449668e-02
4.391535e-01	-5.500071e-09	-5.835450e-02
4.351215e-01	-6.139938e-09	-9.946046e-02
4.202265e-01	-6.550454e-09	-1.486242e-01
3.411361e-01	-6.796534e-09	-2.403736e-01
1.282640e-01	-6.911105e-09	-2.521773e-01
5.964907e-02	-6.918744e-09	1.172748e-01
2.658594e-01	-6.815383e-09	1.873317e-01
3.637580e-01	-6.572746e-09	1.286526e-01
3.940072e-01	-6.146988e-09	9.006252e-02
4.089877e-01	-5.451575e-09	5.434608e-02
4.130117e-01	-4.448209e-09	3.273702e-02
4.130958e-01	-3.152870e-09	1.176972e-02
4.098670e-01	-1.640709e-09	-1.305600e-03
4.052098e-01	-5.653574e-11	-1.390719e-02
3.996488e-01	1.395366e-09	-2.152547e-02
3.938260e-01	2.587012e-09	-2.876948e-02
3.880135e-01	3.349284e-09	-3.307062e-02
3.822315e-01	3.691321e-09	-3.734385e-02
3.764616e-01	3.597813e-09	-3.997352e-02
3.703528e-01	3.238981e-09	-4.280043e-02
3.636305e-01	2.725552e-09	-4.447450e-02
3.556420e-01	2.481885e-09	-4.613028e-02
3.454648e-01	3.209306e-09	-4.649461e-02
3.322006e-01	5.591518e-09	-4.616916e-02
3.159012e-01	8.919898e-09	-4.446908e-02
3.035583e-01	3.331544e-04	4.273159e-02
3.132381e-01	3.337565e-04	4.353376e-02
3.241341e-01	3.356483e-04	4.362381e-02
3.353875e-01	3.322456e-04	4.350307e-02
3.455473e-01	3.217964e-04	4.226279e-02
3.563027e-01	3.337768e-04	4.117671e-02
3.653874e-01	2.807805e-04	3.879763e-02
3.750241e-01	3.038756e-04	3.663970e-02
3.839252e-01	2.175306e-04	3.272217e-02
3.935827e-01	2.501450e-04	2.875170e-02
4.029662e-01	1.315888e-04	2.170415e-02
4.127178e-01	1.714986e-04	1.416487e-02
4.220120e-01	2.823041e-05	1.344287e-03
4.305289e-01	7.464498e-05	-1.226648e-02
4.399318e-01	-8.722564e-05	-3.487074e-02
4.422927e-01	-1.894908e-04	-5.877164e-02
4.360315e-01	-2.369284e-04	-9.966847e-02
4.193795e-01	-2.191170e-04	-1.483247e-01
3.406416e-01	-2.103787e-04	-2.400253e-01
1.281347e-01	-2.068602e-04	-2.519231e-01
5.952197e-02	-2.067777e-04	1.170249e-01
2.653673e-01	-2.101553e-04	1.869850e-01
3.629129e-01	-2.187565e-04	1.283537e-01
3.949186e-01	-2.364433e-04	9.027084e-02
4.121279e-01	-1.888923e-04	5.476334e-02
4.177317e-01	-8.652838e-05	3.311115e-02
4.147675e-01	7.542461e-05	1.181735e-02
4.113775e-01	2.907444e-05	-1.310412e-03
4.065992e-01	1.723883e-04	-1.395487e-02
4.007294e-01	1.325049e-04	-2.158367e-02
3.949978e-01	2.510696e-04	-2.885507e-02
3.887241e-01	2.184459e-04	-3.313119e-02
3.831958e-01	3.047673e-04	-3.743807e-02
3.768693e-01	2.816357e-04	-4.001681e-02
3.711412e-01	3.345876e-04	-4.289153e-02
3.635546e-01	3.225585e-04	-4.446520e-02
3.560086e-01	3.329619e-04	-4.617784e-02
3.455471e-01	3.363278e-04	-4.650570e-02
3.320497e-01	3.344138e-04	-4.614819e-02
3.157989e-01	3.338028e-04	-4.445468e-02
3.035595e-01	-4.169347e-06	4.273175e-02
3.132395e-01	-4.145865e-06	4.353396e-02
3.241359e-01	-4.107629e-06	4.362405e-02
3.353897e-01	-4.058915e-06	4.350336e-02
3.455498e-01	-3.997449e-06	4.226309e-02
3.563051e-01	-3.915883e-06	4.117698e-02
3.653892e-01	-3.800094e-06	3.879782e-02
3.750247e-01	-3.627150e-06	3.663976e-02
3.839241e-01	-3.371416e-06	3.272208e-02
3.935796e-01	-3.015062e-06	2.875147e-02
4.029613e-01	-2.559740e-06	2.170388e-02
4.127116e-01	-2.030678e-06	1.416466e-02
4.220052e-01	-1.466979e-06	1.344265e-03
4.305220e-01	-9.113022e-07	-1.226628e-02
4.399251e-01	-3.891911e-07	-3.487022e-02
4.422863e-01	8.197282e-08	-5.877078e-02
4.360250e-01	5.031343e-07	-9.966698e-02
4.193726e-01	8.644745e-07	-1.483222e-01
3.406345e-01	1.173627e-06	-2.400202e-01
1.281300e-01	1.410963e-06	-2.519138e-01
5.952468e-02	1.593801e-06	1.170303e-01
2.653682e-01	1.668365e-06	1.869856e-01
3.629120e-01	1.662546e-06	1.283534e-01
3.949165e-01	1.576769e-06	9.027036e-02
4.121247e-01	1.407456e-06	5.476292e-02
4.177275e-01	1.153962e-06	3.311081e-02
4.147624e-01	8.128437e-07	1.181721e-02
4.113719e-01	3.961961e-07	-1.310394e-03
4.065937e-01	-7.189973e-08	-1.395469e-02
4.007248e-01	-5.498053e-07	-2.158342e-02
3.949946e-01	-9.971881e-07	-2.885484e-02
3.887226e-01	-1.386137e-06	-3.313106e-02
3.831957e-01	-1.710651e-06	-3.743805e-02
3.768701e-01	-1.982460e-06	-4.001689e-02
3.711422e-01	-2.219233e-06	-4.289165e-02
3.635554e-01	-2.433314e-06	-4.446530e-02
3.560090e-01	-2.625394e-06	-4.617789e-02
3.455470e-01	-2.785807e-06	-4.650568e-02
3.320491e-01	-2.899049e-06	-4.614811e-02
3.157981e-01	-2.953379e-06	-4.445457e-02
3.035544e-01	-6.772012e-06	4.273103e-02
3.132347e-01	-6.695348e-06	4.353328e-02
3.241311e-01	-6.557258e-06	4.362341e-02
3.353847e-01	-6.353515e-06	4.350271e-02
3.455444e-01	-6.069834e-06	4.226243e-02
3.562992e-01	-5.694673e-06	4.117630e-02
3.653828e-01	-5.224551e-06	3.879714e-02
3.750179e-01	-4.660876e-06	3.663909e-02
3.839167e-01	-4.010831e-06	3.272145e-02
3.935718e-01	-3.284794e-06	2.875090e-02
4.029529e-01	-2.496980e-06	2.170343e-02
4.127027e-01	-1.665569e-06	1.416435e-02
4.219956e-01	-8.087301e-07	1.344235e-03
4.305118e-01	4.840340e-08	-1.226599e-02
4.399142e-01	8.872164e-07	-3.486935e-02
4.422745e-01	1.677984e-06	-5.876922e-02
4.360124e-01	2.407519e-06	-9.966409e-02
4.193588e-01	3.044027e-06	-1.483173e-01
3.406205e-01	3.592904e-06	-2.400104e-01