# vtk DataFile Version 2.0
OUTPUT by 3D-VPM
ASCII
DATASET UNSTRUCTURED_GRID
POINTS 820 double
9.510565e-01	0.000000e+00	-3.090170e-01
9.442611e-01	0.000000e+00	-3.078203e-01
9.267277e-01	0.000000e+00	-3.047010e-01
8.963175e-01	0.000000e+00	-2.991555e-01
8.562911e-01	0.000000e+00	-2.916579e-01
8.054250e-01	0.000000e+00	-2.817457e-01
7.470317e-01	0.000000e+00	-2.699633e-01
6.809074e-01	0.000000e+00	-2.559818e-01
6.100852e-01	0.000000e+00	-2.403847e-01
5.354138e-01	0.000000e+00	-2.229691e-01
4.593635e-01	0.000000e+00	-2.042585e-01
3.837764e-01	0.000000e+00	-1.841224e-01
3.103069e-01	0.000000e+00	-1.630077e-01
2.415927e-01	0.000000e+00	-1.409228e-01
1.782654e-01	0.000000e+00	-1.183331e-01
1.234349e-01	0.000000e+00	-9.558566e-02
7.662509e-02	0.000000e+00	-7.318920e-02
4.106998e-02	0.000000e+00	-5.193053e-02
1.528206e-02	0.000000e+00	-3.215886e-02
2.347037e-03	0.000000e+00	-1.488740e-02
0.000000e+00	0.000000e+00	0.000000e+00
1.064939e-02	0.000000e+00	1.066461e-02
3.126595e-02	0.000000e+00	1.703450e-02
6.375031e-02	0.000000e+00	1.787236e-02
1.050105e-01	0.000000e+00	1.417221e-02
1.560448e-01	0.000000e+00	4.777214e-03
2.137742e-01	0.000000e+00	-9.048270e-03
2.782849e-01	0.000000e+00	-2.799567e-02
3.468570e-01	0.000000e+00	-5.051783e-02
4.187060e-01	0.000000e+00	-7.662000e-02
4.916930e-01	0.000000e+00	-1.047585e-01
5.642168e-01	0.000000e+00	-1.343226e-01
6.348639e-01	0.000000e+00	-1.641238e-01
7.013280e-01	0.000000e+00	-1.931337e-01
7.630418e-01	0.000000e+00	-2.206893e-01
8.172084e-01	0.000000e+00	-2.454799e-01
8.641863e-01	0.000000e+00	-2.673591e-01
9.009752e-01	0.000000e+00	-2.848204e-01
9.288372e-01	0.000000e+00	-2.982085e-01
9.448555e-01	0.000000e+00	-3.059908e-01
9.510565e-01	0.000000e+00	-3.090170e-01
9.510565e-01	1.052632e+00	-3.090170e-01
9.442611e-01	1.052632e+00	-3.078203e-01
9.267277e-01	1.052632e+00	-3.047010e-01
8.963175e-01	1.052632e+00	-2.991555e-01
8.562911e-01	1.052632e+00	-2.916579e-01
8.054250e-01	1.052632e+00	-2.817457e-01
7.470317e-01	1.052632e+00	-2.699633e-01
6.809074e-01	1.052632e+00	-2.559818e-01
6.100852e-01	1.052632e+00	-2.403847e-01
5.354138e-01	1.052632e+00	-2.229691e-01
4.593635e-01	1.052632e+00	-2.042585e-01
3.837764e-01	1.052632e+00	-1.841224e-01
3.103069e-01	1.052632e+00	-1.630077e-01
2.415927e-01	1.052632e+00	-1.409228e-01
1.782654e-01	1.052632e+00	-1.183331e-01
1.234349e-01	1.052632e+00	-9.558566e-02
7.662509e-02	1.052632e+00	-7.318920e-02
4.106998e-02	1.052632e+00	-5.193053e-02
1.528206e-02	1.052632e+00	-3.215886e-02
2.347037e-03	1.052632e+00	-1.488740e-02
0.000000e+00	1.052632e+00	0.000000e+00
1.064939e-02	1.052632e+00	1.066461e-02
3.126595e-02	1.052632e+00	1.703450e-02
6.375031e-02	1.052632e+00	1.787236e-02
1.050105e-01	1.052632e+00	1.417221e-02
1.560448e-01	1.052632e+00	4.777214e-03
2.137742e-01	1.052632e+00	-9.048270e-03
2.782849e-01	1.052632e+00	-2.799567e-02
3.468570e-01	1.052632e+00	-5.051783e-02
4.187060e-01	1.052632e+00	-7.662000e-02
4.916930e-01	1.052632e+00	-1.047585e-01
5.642168e-01	1.052632e+00	-1.343226e-01
6.348639e-01	1.052632e+00	-1.641238e-01
7.013280e-01	1.052632e+00	-1.931337e-01
7.630418e-01	1.052632e+00	-2.206893e-01
8.172084e-01	1.052632e+00	-2.454799e-01
8.641863e-01	1.052632e+00	-2.673591e-01
9.009752e-01	1.052632e+00	-2.848204e-01
9.288372e-01	1.052632e+00	-2.982085e-01
9.448555e-01	1.052632e+00	-3.059908e-01
9.510565e-01	1.052632e+00	-3.090170e-01
9.510565e-01	2.105263e+00	-3.090170e-01
9.442611e-01	2.105263e+00	-3.078203e-01
9.267277e-01	2.105263e+00	-3.047010e-01
8.963175e-01	2.105263e+00	-2.991555e-01
8.562911e-01	2.105263e+00	-2.916579e-01
8.054250e-01	2.105263e+00	-2.817457e-01
7.470317e-01	2.105263e+00	-2.699633e-01
6.809074e-01	2.105263e+00	-2.559818e-01
6.100852e-01	2.105263e+00	-2.403847e-01
5.354138e-01	2.105263e+00	-2.229691e-01
4.593635e-01	2.105263e+00	-2.042585e-01
3.837764e-01	2.105263e+00	-1.841224e-01
3.103069e-01	2.105263e+00	-1.630077e-01
2.415927e-01	2.105263e+00	-1.409228e-01
1.782654e-01	2.105263e+00	-1.183331e-01
1.234349e-01	2.105263e+00	-9.558566e-02
7.662509e-02	2.105263e+00	-7.318920e-02
4.106998e-02	2.105263e+00	-5.193053e-02
1.528206e-02	2.105263e+00	-3.215886e-02
2.347037e-03	2.105263e+00	-1.488740e-02
0.000000e+00	2.105263e+00	0.000000e+00
1.064939e-02	2.105263e+00	1.066461e-02
3.126595e-02	2.105263e+00	1.703450e-02
6.375031e-02	2.105263e+00	1.787236e-02
1.050105e-01	2.105263e+00	1.417221e-02
1.560448e-01	2.105263e+00	4.777214e-03
2.137742e-01	2.105263e+00	-9.048270e-03
2.782849e-01	2.105263e+00	-2.799567e-02
3.468570e-01	2.105263e+00	-5.051783e-02
4.187060e-01	2.105263e+00	-7.662000e-02
4.916930e-01	2.105263e+00	-1.047585e-01
5.642168e-01	2.105263e+00	-1.343226e-01
6.348639e-01	2.105263e+00	-1.641238e-01
7.013280e-01	2.105263e+00	-1.931337e-01
7.630418e-01	2.105263e+00	-2.206893e-01
8.172084e-01	2.105263e+00	-2.454799e-01
8.641863e-01	2.105263e+00	-2.673591e-01
9.009752e-01	2.105263e+00	-2.848204e-01
9.288372e-01	2.105263e+00	-2.982085e-01
9.448555e-01	2.105263e+00	-3.059908e-01
9.510565e-01	2.105263e+00	-3.090170e-01
9.510565e-01	3.157895e+00	-3.090170e-01
9.442611e-01	3.157895e+00	-3.078203e-01
9.267277e-01	3.157895e+00	-3.047010e-01
8.963175e-01	3.157895e+00	-2.991555e-01
8.562911e-01	3.157895e+00	-2.916579e-01
8.054250e-01	3.157895e+00	-2.817457e-01
7.470317e-01	3.157895e+00	-2.699633e-01
6.809074e-01	3.157895e+00	-2.559818e-01
6.100852e-01	3.157895e+00	-2.403847e-01
5.354138e-01	3.157895e+00	-2.229691e-01
4.593635e-01	3.157895e+00	-2.042585e-01
3.837764e-01	3.157895e+00	-1.841224e-01
3.103069e-01	3.157895e+00	-1.630077e-01
2.415927e-01	3.157895e+00	-1.409228e-01
1.782654e-01	3.157895e+00	-1.183331e-01
1.234349e-01	3.157895e+00	-9.558566e-02
7.662509e-02	3.157895e+00	-7.318920e-02
4.106998e-02	3.157895e+00	-5.193053e-02
1.528206e-02	3.157895e+00	-3.215886e-02
2.347037e-03	3.157895e+00	-1.488740e-02
0.000000e+00	3.157895e+00	0.000000e+00
1.064939e-02	3.157895e+00	1.066461e-02
3.126595e-02	3.157895e+00	1.703450e-02
6.375031e-02	3.157895e+00	1.787236e-02
1.050105e-01	3.157895e+00	1.417221e-02
1.560448e-01	3.157895e+00	4.777214e-03
2.137742e-01	3.157895e+00	-9.048270e-03
2.782849e-01	3.157895e+00	-2.799567e-02
3.468570e-01	3.157895e+00	-5.051783e-02
4.187060e-01	3.157895e+00	-7.662000e-02
4.916930e-01	3.157895e+00	-1.047585e-01
5.642168e-01	3.157895e+00	-1.343226e-01
6.348639e-01	3.157895e+00	-1.641238e-01
7.013280e-01	3.157895e+00	-1.931337e-01
7.630418e-01	3.157895e+00	-2.206893e-01
8.172084e-01	3.157895e+00	-2.454799e-01
8.641863e-01	3.157895e+00	-2.673591e-01
9.009752e-01	3.157895e+00	-2.848204e-01
9.288372e-01	3.157895e+00	-2.982085e-01
9.448555e-01	3.157895e+00	-3.059908e-01
9.510565e-01	3.157895e+00	-3.090170e-01
9.510565e-01	4.210526e+00	-3.090170e-01
9.442611e-01	4.210526e+00	-3.078203e-01
9.267277e-01	4.210526e+00	-3.047010e-01
8.963175e-01	4.210526e+00	-2.991555e-01
8.562911e-01	4.210526e+00	-2.916579e-01
8.054250e-01	4.210526e+00	-2.817457e-01
7.470317e-01	4.210526e+00	-2.699633e-01
6.809074e-01	4.210526e+00	-2.559818e-01
6.100852e-01	4.210526e+00	-2.403847e-01
5.354138e-01	4.210526e+00	-2.229691e-01
4.593635e-01	4.210526e+00	-2.042585e-01
3.837764e-01	4.210526e+00	-1.841224e-01
3.103069e-01	4.210526e+00	-1.630077e-01
2.415927e-01	4.210526e+00	-1.409228e-01
1.782654e-01	4.210526e+00	-1.183331e-01
1.234349e-01	4.210526e+00	-9.558566e-02
7.662509e-02	4.210526e+00	-7.318920e-02
4.106998e-02	4.210526e+00	-5.193053e-02
1.528206e-02	4.210526e+00	-3.215886e-02
2.347037e-03	4.210526e+00	-1.488740e-02
0.000000e+00	4.210526e+00	0.000000e+00
1.064939e-02	4.210526e+00	1.066461e-02
3.126595e-02	4.210526e+00	1.703450e-02
6.375031e-02	4.210526e+00	1.787236e-02
1.050105e-01	4.210526e+00	1.417221e-02
1.560448e-01	4.210526e+00	4.777214e-03
2.137742e-01	4.210526e+00	-9.048270e-03
2.782849e-01	4.210526e+00	-2.799567e-02
3.468570e-01	4.210526e+00	-5.051783e-02
4.187060e-01	4.210526e+00	-7.662000e-02
4.916930e-01	4.210526e+00	-1.047585e-01
5.642168e-01	4.210526e+00	-1.343226e-01
6.348639e-01	4.210526e+00	-1.641238e-01
7.013280e-01	4.210526e+00	-1.931337e-01
7.630418e-01	4.210526e+00	-2.206893e-01
8.172084e-01	4.210526e+00	-2.454799e-01
8.641863e-01	4.210526e+00	-2.673591e-01
9.009752e-01	4.210526e+00	-2.848204e-01
9.288372e-01	4.210526e+00	-2.982085e-01
9.448555e-01	4.210526e+00	-3.059908e-01
9.510565e-01	4.210526e+00	-3.090170e-01
9.510565e-01	5.263158e+00	-3.090170e-01
9.442611e-01	5.263158e+00	-3.078203e-01
9.267277e-01	5.263158e+00	-3.047010e-01
8.963175e-01	5.263158e+00	-2.991555e-01
8.562911e-01	5.263158e+00	-2.916579e-01
8.054250e-01	5.263158e+00	-2.817457e-01
7.470317e-01	5.263158e+00	-2.699633e-01
6.809074e-01	5.263158e+00	-2.559818e-01
6.100852e-01	5.263158e+00	-2.403847e-01
5.354138e-01	5.263158e+00	-2.229691e-01
4.593635e-01	5.263158e+00	-2.042585e-01
3.837764e-01	5.263158e+00	-1.841224e-01
3.103069e-01	5.263158e+00	-1.630077e-01
2.415927e-01	5.263158e+00	-1.409228e-01
1.782654e-01	5.263158e+00	-1.183331e-01
1.234349e-01	5.263158e+00	-9.558566e-02
7.662509e-02	5.263158e+00	-7.318920e-02
4.106998e-02	5.263158e+00	-5.193053e-02
1.528206e-02	5.263158e+00	-3.215886e-02
2.347037e-03	5.263158e+00	-1.488740e-02
0.000000e+00	5.263158e+00	0.000000e+00
1.064939e-02	5.263158e+00	1.066461e-02
3.126595e-02	5.263158e+00	1.703450e-02
6.375031e-02	5.263158e+00	1.787236e-02
1.050105e-01	5.263158e+00	1.417221e-02
1.560448e-01	5.263158e+00	4.777214e-03
2.137742e-01	5.263158e+00	-9.048270e-03
2.782849e-01	5.263158e+00	-2.799567e-02
3.468570e-01	5.263158e+00	-5.051783e-02
4.187060e-01	5.263158e+00	-7.662000e-02
4.916930e-01	5.263158e+00	-1.047585e-01
5.642168e-01	5.263158e+00	-1.343226e-01
6.348639e-01	5.263158e+00	-1.641238e-01
7.013280e-01	5.263158e+00	-1.931337e-01
7.630418e-01	5.263158e+00	-2.206893e-01
8.172084e-01	5.263158e+00	-2.454799e-01
8.641863e-01	5.263158e+00	-2.673591e-01
9.009752e-01	5.263158e+00	-2.848204e-01
9.288372e-01	5.263158e+00	-2.982085e-01
9.448555e-01	5.263158e+00	-3.059908e-01
9.510565e-01	5.263158e+00	-3.090170e-01
9.510565e-01	6.315789e+00	-3.090170e-01
9.442611e-01	6.315789e+00	-3.078203e-01
[...]
CELL_DATA 760
VECTORS V double
8.414333e-01	-6.902233e-02	-1.481733e-01
8.655568e-01	-6.884876e-02	-1.539879e-01
8.835750e-01	-6.839904e-02	-1.611283e-01
8.953447e-01	-6.760473e-02	-1.677118e-01
8.978138e-01	-6.644391e-02	-1.749559e-01
8.991308e-01	-6.489898e-02	-1.814234e-01
8.920977e-01	-6.295961e-02	-1.886275e-01
8.847922e-01	-6.060175e-02	-1.948569e-01
8.704630e-01	-5.779697e-02	-2.030183e-01
8.548285e-01	-5.451273e-02	-2.103124e-01
8.295304e-01	-5.072355e-02	-2.209841e-01
7.986161e-01	-4.641527e-02	-2.295173e-01
7.512754e-01	-4.162084e-02	-2.414611e-01
6.892627e-01	-3.639139e-02	-2.458694e-01
6.026266e-01	-3.076487e-02	-2.500107e-01
4.719695e-01	-2.486401e-02	-2.258170e-01
2.702839e-01	-1.869678e-02	-1.616048e-01
-1.725379e-02	-1.242919e-02	1.322853e-02
-4.216242e-01	-5.862685e-03	5.629728e-01
-3.426192e-01	7.166726e-04	2.173254e+00
2.326720e+00	8.428478e-03	2.330045e+00
2.541455e+00	1.519214e-02	7.852322e-01
2.210389e+00	2.213728e-02	5.701194e-02
1.925411e+00	2.898365e-02	-1.726677e-01
1.720100e+00	3.597219e-02	-3.166566e-01
1.570340e+00	4.293785e-02	-3.760772e-01
1.435505e+00	4.987492e-02	-4.216210e-01
1.336701e+00	5.660490e-02	-4.390327e-01
1.250613e+00	6.300962e-02	-4.543377e-01
1.181680e+00	6.889124e-02	-4.555701e-01
1.121856e+00	7.413428e-02	-4.573210e-01
1.071604e+00	7.860167e-02	-4.520370e-01
1.027468e+00	8.223125e-02	-4.484641e-01
9.871969e-01	8.501534e-02	-4.407900e-01
9.499782e-01	8.700534e-02	-4.347783e-01
9.115284e-01	8.829916e-02	-4.245305e-01
8.743632e-01	8.902511e-02	-4.150017e-01
8.341904e-01	8.933221e-02	-4.008437e-01
7.910632e-01	8.937609e-02	-3.843290e-01
7.483128e-01	8.933039e-02	-3.651838e-01
8.268686e-01	-4.833789e-02	-1.456085e-01
8.473598e-01	-4.821361e-02	-1.507505e-01
8.618264e-01	-4.789513e-02	-1.571622e-01
8.705169e-01	-4.733141e-02	-1.630612e-01
8.702732e-01	-4.649979e-02	-1.695891e-01
8.688944e-01	-4.538144e-02	-1.753224e-01
8.589010e-01	-4.396571e-02	-1.816083e-01
8.480379e-01	-4.223760e-02	-1.867626e-01
8.293746e-01	-4.018230e-02	-1.934352e-01
8.083944e-01	-3.778467e-02	-1.988883e-01
7.766161e-01	-3.501502e-02	-2.068879e-01
7.379669e-01	-3.192366e-02	-2.120871e-01
6.816743e-01	-2.848808e-02	-2.190912e-01
6.086377e-01	-2.476333e-02	-2.171093e-01
5.088560e-01	-2.077533e-02	-2.111083e-01
3.608792e-01	-1.660712e-02	-1.726650e-01
1.375010e-01	-1.226045e-02	-8.221286e-02
-1.813409e-01	-7.848722e-03	1.390346e-01
-6.030205e-01	-3.232077e-03	8.051818e-01
-4.197711e-01	1.386614e-03	2.662634e+00
2.682170e+00	6.785850e-03	2.686003e+00
2.843833e+00	1.150110e-02	8.786577e-01
2.433081e+00	1.631443e-02	6.275579e-02
2.097216e+00	2.102296e-02	-1.880748e-01
1.860398e+00	2.578539e-02	-3.424843e-01
1.689580e+00	3.048207e-02	-4.046336e-01
1.539011e+00	3.510718e-02	-4.520218e-01
1.427767e+00	3.954258e-02	-4.689432e-01
1.330686e+00	4.371644e-02	-4.834274e-01
1.251878e+00	4.752111e-02	-4.826335e-01
1.182648e+00	5.084628e-02	-4.821026e-01
1.123322e+00	5.366316e-02	-4.738531e-01
1.070380e+00	5.592207e-02	-4.671940e-01
1.021732e+00	5.762747e-02	-4.562101e-01
9.765835e-01	5.882058e-02	-4.469548e-01
9.307563e-01	5.957225e-02	-4.334856e-01
8.867476e-01	5.997086e-02	-4.208798e-01
8.402931e-01	6.011720e-02	-4.037761e-01
7.917030e-01	6.011355e-02	-3.846399e-01
7.448139e-01	6.007024e-02	-3.634763e-01
8.205751e-01	-2.041973e-02	-1.445003e-01
8.397369e-01	-2.036890e-02	-1.493944e-01
8.527236e-01	-2.023601e-02	-1.555022e-01
8.598862e-01	-1.999901e-02	-1.610699e-01
8.580998e-01	-1.963965e-02	-1.672169e-01
8.551380e-01	-1.914120e-02	-1.725467e-01
8.435198e-01	-1.849391e-02	-1.783560e-01
8.309219e-01	-1.769243e-02	-1.829932e-01
8.103689e-01	-1.670964e-02	-1.890025e-01
7.869862e-01	-1.559513e-02	-1.936213e-01
7.529265e-01	-1.431673e-02	-2.005771e-01
7.116400e-01	-1.290721e-02	-2.045210e-01
6.518299e-01	-1.135078e-02	-2.094992e-01
5.746871e-01	-9.683617e-03	-2.049987e-01
4.699170e-01	-7.915782e-03	-1.949537e-01
3.151900e-01	-6.079719e-03	-1.508047e-01
8.322015e-02	-4.172142e-03	-4.975795e-02
-2.481359e-01	-2.240955e-03	1.902465e-01
-6.765356e-01	-2.252955e-04	9.033427e-01
-4.508098e-01	1.782930e-03	2.859514e+00
2.823261e+00	4.111976e-03	2.827296e+00
2.961550e+00	6.119910e-03	9.150287e-01
2.517700e+00	8.133361e-03	6.493832e-02
2.160510e+00	1.005720e-02	-1.937510e-01
1.910218e+00	1.194770e-02	-3.516558e-01
1.730183e+00	1.375131e-02	-4.143574e-01
1.572705e+00	1.546346e-02	-4.619179e-01
1.456060e+00	1.704357e-02	-4.782359e-01
1.354601e+00	1.847420e-02	-4.921156e-01
1.271655e+00	1.974103e-02	-4.902581e-01
1.198761e+00	2.080722e-02	-4.886712e-01
1.136453e+00	2.166750e-02	-4.793924e-01
1.080529e+00	2.230456e-02	-4.716238e-01
1.029152e+00	2.277656e-02	-4.595234e-01
9.815220e-01	2.307928e-02	-4.492150e-01
9.334803e-01	2.324475e-02	-4.347542e-01
8.875201e-01	2.330818e-02	-4.212465e-01
8.394013e-01	2.330712e-02	-4.033476e-01
7.894794e-01	2.327865e-02	-3.835596e-01
7.416810e-01	2.325154e-02	-3.619474e-01
8.183384e-01	-1.022189e-02	-1.441064e-01
8.366213e-01	-1.020083e-02	-1.488401e-01
8.488828e-01	-1.014452e-02	-1.548018e-01
8.553376e-01	-1.003867e-02	-1.602179e-01
8.527787e-01	-9.873425e-03	-1.661800e-01
8.489874e-01	-9.625490e-03	-1.713056e-01
8.365074e-01	-9.312719e-03	-1.768733e-01
8.226204e-01	-8.915152e-03	-1.811649e-01
8.010783e-01	-8.441689e-03	-1.868357e-01
7.769779e-01	-7.877589e-03	-1.911589e-01
7.414834e-01	-7.237829e-03	-1.975287e-01
6.984410e-01	-6.499766e-03	-2.007276e-01
6.368951e-01	-5.693902e-03	-2.046991e-01
5.575976e-01	-4.818099e-03	-1.989027e-01
4.502050e-01	-3.883792e-03	-1.867758e-01
2.919384e-01	-2.908100e-03	-1.396799e-01
5.549961e-02	-1.894349e-03	-3.318363e-02
-2.822944e-01	-8.606439e-04	2.164359e-01
-7.141338e-01	2.197945e-04	9.535456e-01
-4.666453e-01	1.280775e-03	2.959959e+00
2.894838e+00	2.522697e-03	2.898975e+00
3.020804e+00	3.600633e-03	9.333364e-01
2.559914e+00	4.659057e-03	6.602716e-02
2.191741e+00	5.661771e-03	-1.965517e-01
1.934537e+00	6.641067e-03	-3.561327e-01
1.749794e+00	7.560912e-03	-4.190541e-01
1.588819e+00	8.425114e-03	-4.666506e-01
1.469483e+00	9.214753e-03	-4.826445e-01
1.365833e+00	9.930762e-03	-4.961961e-01
1.281316e+00	1.054995e-02	-4.939828e-01
1.206772e+00	1.108861e-02	-4.919367e-01
1.142466e+00	1.152011e-02	-4.819288e-01
1.085229e+00	1.185835e-02	-4.736751e-01
1.032968e+00	1.209663e-02	-4.612273e-01
9.842100e-01	1.225680e-02	-4.504452e-01
9.351790e-01	1.233788e-02	-4.355454e-01
8.883569e-01	1.238188e-02	-4.216436e-01
8.395532e-01	1.239210e-02	-4.034206e-01
7.890925e-01	1.238528e-02	-3.833716e-01
7.406625e-01	1.237661e-02	-3.614504e-01
8.170420e-01	-5.648257e-03	-1.438781e-01
8.352031e-01	-5.636144e-03	-1.485878e-01
8.470242e-01	-5.607199e-03	-1.544629e-01
8.529740e-01	-5.548836e-03	-1.597751e-01
8.496441e-01	-5.453438e-03	-1.655691e-01
8.454050e-01	-5.313763e-03	-1.705828e-01
8.325332e-01	-5.142836e-03	-1.760330e-01
8.185194e-01	-4.923367e-03	-1.802618e-01
7.963638e-01	-4.658564e-03	-1.857361e-01
7.711811e-01	-4.317014e-03	-1.897328e-01
7.349200e-01	-3.932366e-03	-1.957802e-01
6.910625e-01	-3.496438e-03	-1.986071e-01
6.284751e-01	-3.025154e-03	-2.019929e-01
5.477949e-01	-2.604955e-03	-1.954059e-01
4.388386e-01	-2.061768e-03	-1.820602e-01
2.785536e-01	-1.454397e-03	-1.332758e-01
3.950191e-02	-8.450754e-04	-2.361849e-02
-3.022059e-01	-2.255768e-04	2.317021e-01
-7.357551e-01	4.221377e-04	9.824154e-01
-4.756776e-01	1.066718e-03	3.017252e+00
2.937086e+00	1.809859e-03	2.941283e+00
3.055364e+00	2.444543e-03	9.440143e-01
2.584050e+00	3.072868e-03	6.664968e-02
2.209610e+00	3.663559e-03	-1.981542e-01
1.948306e+00	4.233066e-03	-3.586676e-01
1.760728e+00	4.756288e-03	-4.216726e-01
1.597719e+00	5.241852e-03	-4.692648e-01
1.476923e+00	5.785391e-03	-4.850879e-01
1.371994e+00	6.189254e-03	-4.984343e-01
1.286266e+00	6.526960e-03	-4.958911e-01
1.210911e+00	6.807091e-03	-4.936237e-01
1.146289e+00	7.036728e-03	-4.835417e-01
1.088253e+00	7.234318e-03	-4.749954e-01
1.034925e+00	7.376404e-03	-4.621011e-01
9.854606e-01	7.473955e-03	-4.510176e-01
9.358650e-01	7.521670e-03	-4.358649e-01
8.888545e-01	7.544076e-03	-4.218798e-01
8.396034e-01	7.549342e-03	-4.034447e-01
7.887856e-01	7.543527e-03	-3.832225e-01
7.403535e-01	7.539589e-03	-3.612996e-01
8.163056e-01	-3.304834e-03	-1.437484e-01
8.342466e-01	-3.298046e-03	-1.484176e-01
8.457970e-01	-3.280093e-03	-1.542391e-01
8.514065e-01	-3.245807e-03	-1.594815e-01
8.479730e-01	-3.213256e-03	-1.652435e-01
8.436011e-01	-3.126621e-03	-1.702188e-01
8.304678e-01	-3.004209e-03	-1.755963e-01
8.157235e-01	-2.856422e-03	-1.796460e-01
7.928876e-01	-2.669352e-03	-1.849254e-01
7.674441e-01	-2.435006e-03	-1.888133e-01
7.307589e-01	-2.194127e-03	-1.946717e-01
6.863484e-01	-1.967384e-03	-1.972523e-01
6.244751e-01	-1.652563e-03	-2.007073e-01
5.433510e-01	-1.433143e-03	-1.938207e-01
4.315251e-01	-1.067527e-03	-1.790261e-01
2.694978e-01	-6.890501e-04	-1.289430e-01
2.925678e-02	-2.928424e-04	-1.749285e-02
-3.147030e-01	1.022798e-04	2.412837e-01
-7.498227e-01	5.139545e-04	1.001199e+00
-4.816507e-01	9.372103e-04	3.055139e+00
2.962345e+00	1.408825e-03	2.966579e+00
3.076313e+00	1.797069e-03	9.504870e-01
2.599131e+00	2.194367e-03	6.703867e-02
2.220460e+00	2.565342e-03	-1.991272e-01
1.956431e+00	2.916246e-03	-3.601632e-01
1.767059e+00	3.243763e-03	-4.231888e-01
1.604460e+00	3.658414e-03	-4.712447e-01
1.482569e+00	3.916654e-03	-4.869424e-01
1.375490e+00	4.161105e-03	-4.997044e-01
1.289112e+00	4.381515e-03	-4.969882e-01
1.213156e+00	4.548658e-03	-4.945389e-01
1.147921e+00	4.657169e-03	-4.842298e-01
1.089778e+00	4.755241e-03	-4.756610e-01
1.036439e+00	4.834955e-03	-4.627768e-01
9.865840e-01	4.888707e-03	-4.515317e-01
9.365237e-01	4.961952e-03	-4.361717e-01
8.890376e-01	4.964652e-03	-4.219667e-01
8.396007e-01	4.963102e-03	-4.034435e-01
7.886095e-01	4.959362e-03	-3.831369e-01
7.400595e-01	4.956116e-03	-3.611561e-01
8.159028e-01	-2.029594e-03	-1.436775e-01
8.337550e-01	-2.025546e-03	-1.483302e-01
8.451859e-01	-2.015321e-03	-1.541277e-01
8.513215e-01	-1.996653e-03	-1.594656e-01
8.471488e-01	-1.966444e-03	-1.650829e-01
8.417630e-01	-2.010281e-03	-1.698479e-01
8.283593e-01	-1.887977e-03	-1.751504e-01
8.137470e-01	-1.783010e-03	-1.792107e-01
7.906728e-01	-1.683757e-03	-1.844088e-01
7.649436e-01	-1.542366e-03	-1.881981e-01
7.288050e-01	-1.386031e-03	-1.941512e-01
6.838617e-01	-1.215387e-03	-1.965376e-01
6.210034e-01	-1.015594e-03	-1.995915e-01
5.391948e-01	-7.362550e-04	-1.923381e-01
4.267277e-01	-5.014524e-04	-1.770358e-01
2.642922e-01	-2.946552e-04	-1.264524e-01
2.258320e-02	-5.101858e-05	-1.350266e-02
-3.228453e-01	1.712216e-04	2.475264e-01
-7.587363e-01	4.307725e-04	1.013101e+00
-4.853830e-01	6.874415e-04	3.078814e+00
2.979078e+00	9.822458e-04	2.983335e+00
3.090006e+00	1.232204e-03	9.547175e-01
2.608753e+00	1.472644e-03	6.728683e-02
2.227460e+00	1.730563e-03	-1.997549e-01
1.961909e+00	1.950119e-03	-3.611717e-01
1.773557e+00	2.163225e-03	-4.247449e-01
1.607804e+00	2.360842e-03	-4.722269e-01
1.483893e+00	2.461721e-03	-4.873772e-01
1.378052e+00	2.605976e-03	-5.006352e-01
1.291155e+00	2.742096e-03	-4.977759e-01
1.214364e+00	2.854746e-03	-4.950316e-01
1.148926e+00	2.945004e-03	-4.846538e-01
1.090630e+00	3.043322e-03	-4.760328e-01
1.036859e+00	3.108622e-03	-4.629645e-01
9.874695e-01	3.229266e-03	-4.519370e-01
9.373954e-01	3.220814e-03	-4.365776e-01
8.888931e-01	3.214912e-03	-4.218981e-01
8.394551e-01	3.211990e-03	-4.033735e-01
7.884526e-01	3.208753e-03	-3.830607e-01
7.398564e-01	3.206464e-03	-3.610570e-01
8.156263e-01	-1.104126e-03	-1.436288e-01
8.334156e-01	-1.101084e-03	-1.482698e-01
8.447840e-01	-1.091548e-03	-1.540544e-01
8.501576e-01	-1.098704e-03	-1.592476e-01
8.483844e-01	-1.049952e-03	-1.653237e-01
8.420602e-01	-1.033221e-03	-1.699079e-01
8.269858e-01	-9.980940e-04	-1.748600e-01
8.128261e-01	-9.743103e-04	-1.790079e-01
7.896340e-01	-9.854233e-04	-1.841665e-01
7.635356e-01	-9.086197e-04	-1.878517e-01
7.264850e-01	-8.083902e-04	-1.935332e-01
6.814146e-01	-6.876507e-04	-1.958344e-01
6.178475e-01	-5.762056e-04	-1.985772e-01
5.356686e-01	-3.421263e-04	-1.910803e-01
4.243001e-01	-2.520872e-04	-1.760287e-01
2.612488e-01	-1.240619e-04	-1.249962e-01
1.924471e-02	1.312324e-05	-1.150656e-02
-3.269151e-01	1.550911e-04	2.506468e-01
-7.640882e-01	3.044587e-04	1.020247e+00
-4.876157e-01	4.532995e-04	3.092976e+00
2.989019e+00	6.246024e-04	2.993290e+00
3.097803e+00	7.701273e-04	9.571266e-01
2.615335e+00	9.131759e-04	6.745660e-02
2.232194e+00	1.046756e-03	-2.001795e-01
1.965121e+00	1.174325e-03	-3.617630e-01
1.774088e+00	1.294150e-03	-4.248722e-01
1.608914e+00	1.321191e-03	-4.725528e-01
1.485990e+00	1.432786e-03	-4.880660e-01
1.379145e+00	1.539822e-03	-5.010324e-01
1.292251e+00	1.596282e-03	-4.981983e-01
1.215697e+00	1.659330e-03	-4.955747e-01
1.150323e+00	1.800264e-03	-4.852432e-01
1.091973e+00	1.816396e-03	-4.766187e-01
1.039069e+00	1.852619e-03	-4.639512e-01
9.885131e-01	1.856302e-03	-4.524146e-01
9.362530e-01	1.829466e-03	-4.360456e-01
8.888278e-01	1.838723e-03	-4.218671e-01
8.394151e-01	1.863733e-03	-4.033543e-01
7.883375e-01	1.860973e-03	-3.830048e-01
7.397090e-01	1.859545e-03	-3.609850e-01
8.153924e-01	-1.372185e-03	-1.435876e-01
8.330052e-01	-1.372367e-03	-1.481968e-01
8.452124e-01	-1.373517e-03	-1.541325e-01
8.501131e-01	-1.356907e-03	-1.592392e-01
8.458925e-01	-1.317512e-03	-1.648381e-01
8.408487e-01	-1.272720e-03	-1.696634e-01
8.274618e-01	-1.140731e-03	-1.749607e-01
8.135826e-01	-1.200301e-03	-1.791745e-01
7.897650e-01	-9.783862e-04	-1.841971e-01
7.626186e-01	-1.025868e-03	-1.876261e-01
7.259176e-01	-6.678065e-04	-1.933820e-01
6.807619e-01	-7.545393e-04	-1.956468e-01
6.162529e-01	-3.176916e-04	-1.980647e-01
5.342684e-01	-3.797188e-04	-1.905808e-01
4.232144e-01	8.002566e-05	-1.755783e-01
2.594149e-01	4.170982e-04	-1.241188e-01
1.662772e-02	6.090260e-04	-9.941836e-03
-3.302924e-01	6.545346e-04	2.532361e-01
-7.669707e-01	7.005846e-04	1.024096e+00
-4.888452e-01	7.607299e-04	3.100775e+00
2.994594e+00	8.407258e-04	2.998873e+00
3.102679e+00	9.180696e-04	9.586333e-01
2.617647e+00	1.013422e-03	6.751624e-02
2.233920e+00	1.094156e-03	-2.003343e-01
1.966870e+00	1.027456e-03	-3.620851e-01
1.775973e+00	8.085215e-04	-4.253237e-01
1.609968e+00	4.599635e-04	-4.728623e-01
1.486925e+00	6.235500e-04	-4.883731e-01
1.380172e+00	3.069546e-04	-5.014053e-01
1.292664e+00	4.375125e-04	-4.983577e-01
1.216912e+00	1.440424e-04	-4.960704e-01
1.150958e+00	2.967779e-04	-4.855113e-01
1.091320e+00	4.098949e-05	-4.763337e-01
1.037454e+00	1.029171e-04	-4.632303e-01
9.871317e-01	-1.058603e-04	-4.517824e-01
9.370073e-01	-5.390945e-05	-4.363969e-01
8.896286e-01	-7.216404e-05	-4.222472e-01
8.402931e-01	-7.926711e-05	-4.037761e-01
7.882372e-01	-7.452266e-05	-3.829560e-01
7.396378e-01	-7.349629e-05	-3.609503e-01
8.156569e-01	3.830344e-05	-1.436342e-01
8.334996e-01	2.070661e-05	-1.482847e-01
8.441582e-01	1.912195e-05	-1.539403e-01
8.486964e-01	4.049042e-05	-1.589739e-01
8.466828e-01	3.813967e-05	-1.649921e-01
8.389156e-01	3.702317e-05	-1.692734e-01
8.260149e-01	3.553495e-05	-1.746547e-01
8.103953e-01	3.627264e-05	-1.784726e-01
7.873526e-01	7.915535e-05	-1.836344e-01
7.594331e-01	6.769772e-05	-1.868424e-01
7.229025e-01	5.965275e-05	-1.925788e-01
6.768839e-01	5.874373e-05	-1.945323e-01
6.124134e-01	-1.197299e-06	-1.968307e-01
5.301260e-01	1.971509e-06	-1.891032e-01
4.111877e-01	3.328835e-05	-1.705888e-01
2.512543e-01	7.994861e-07	-1.202143e-01
1.380527e-02	4.112897e-06	-8.254271e-03
-3.292629e-01	6.621572e-06	2.524468e-01
-7.669399e-01	7.795696e-06	1.024055e+00
-4.891120e-01	7.994297e-06	3.102467e+00
2.996813e+00	7.513294e-06	3.001095e+00
3.105563e+00	6.644975e-06	9.595242e-01
2.620952e+00	5.262864e-06	6.760148e-02
2.232117e+00	2.961177e-06	-2.001726e-01
1.959106e+00	3.505568e-05	-3.606557e-01
1.764209e+00	3.088980e-05	-4.225062e-01
1.606485e+00	-3.552504e-06	-4.718395e-01
1.483653e+00	4.719935e-05	-4.872987e-01
1.376835e+00	3.327946e-05	-5.001931e-01
1.290162e+00	2.385133e-05	-4.973929e-01
1.213908e+00	1.812317e-05	-4.948454e-01
1.149108e+00	-2.481459e-05	-4.847308e-01
1.089256e+00	-2.124850e-05	-4.754331e-01
1.037149e+00	-2.209905e-05	-4.630942e-01
9.857318e-01	-2.102918e-05	-4.511417e-01
9.369987e-01	-2.105616e-05	-4.363929e-01
8.882173e-01	-1.992157e-05	-4.215773e-01
8.392747e-01	-4.228630e-05	-4.032868e-01
7.886630e-01	-4.116672e-05	-3.831630e-01
7.398662e-01	-2.366738e-05	-3.610618e-01
8.183456e-01	1.462249e-03	-1.441077e-01
8.337165e-01	1.462637e-03	-1.483233e-01
8.444101e-01	1.464555e-03	-1.539862e-01
8.497163e-01	1.450068e-03	-1.591649e-01
8.459599e-01	1.413725e-03	-1.648512e-01
8.408940e-01	1.460066e-03	-1.696726e-01
8.274717e-01	1.287103e-03	-1.749628e-01
8.129444e-01	1.348524e-03	-1.790340e-01
7.893555e-01	1.080694e-03	-1.841016e-01
7.628743e-01	1.127269e-03	-1.876890e-01
7.260353e-01	7.735069e-04	-1.934134e-01
6.815579e-01	7.833178e-04	-1.958755e-01
6.170704e-01	3.487079e-04	-1.983274e-01
5.337755e-01	4.360896e-04	-1.904050e-01
4.231665e-01	-5.826488e-05	-1.755584e-01
2.600114e-01	-3.951115e-04	-1.244042e-01
1.650126e-02	-5.882744e-04	-9.866227e-03
-3.303924e-01	-6.098269e-04	2.533128e-01
-7.670141e-01	-6.862309e-04	1.024154e+00
-4.888435e-01	-7.474046e-04	3.100764e+00
2.994523e+00	-8.307659e-04	2.998803e+00
3.102576e+00	-8.831469e-04	9.586013e-01
2.617523e+00	-9.786840e-04	6.751305e-02
2.234759e+00	-1.092850e-03	-2.004095e-01
1.967368e+00	-1.031155e-03	-3.621766e-01
1.775278e+00	-7.850885e-04	-4.251571e-01
1.610277e+00	-4.451951e-04	-4.729532e-01
1.487407e+00	-6.461458e-04	-4.885315e-01
1.379868e+00	-3.431684e-04	-5.012950e-01
1.292473e+00	-4.096614e-04	-4.982840e-01
1.216306e+00	-1.325485e-04	-4.958230e-01
1.150445e+00	-2.726981e-04	-4.852948e-01
1.091358e+00	-2.717574e-05	-4.763503e-01
1.037456e+00	-1.335023e-04	-4.632311e-01
9.871495e-01	-3.234298e-05	-4.517906e-01
9.370258e-01	-5.965547e-05	-4.364055e-01
8.892128e-01	-2.994834e-05	-4.220499e-01
8.395105e-01	-2.019114e-05	-4.034001e-01
7.888551e-01	-2.433812e-05	-3.832563e-01
7.423177e-01	-2.530791e-05	-3.622581e-01
8.155919e-01	1.195838e-03	-1.436228e-01
8.333565e-01	1.210553e-03	-1.482593e-01
8.446794e-01	1.203364e-03	-1.540353e-01
8.500263e-01	1.197733e-03	-1.592230e-01
8.463283e-01	1.086447e-03	-1.649230e-01
8.413465e-01	1.062272e-03	-1.697639e-01
8.275555e-01	9.890540e-04	-1.749805e-01
8.134731e-01	9.710456e-04	-1.791504e-01
7.902534e-01	9.459642e-04	-1.843110e-01
7.634908e-01	8.671574e-04	-1.878407e-01
7.274281e-01	7.785055e-04	-1.937844e-01
6.824320e-01	7.080761e-04	-1.961268e-01
6.174741e-01	6.277045e-04	-1.984572e-01
5.357632e-01	4.787596e-04	-1.911140e-01
4.248970e-01	3.442873e-04	-1.762763e-01
2.612650e-01	2.372994e-04	-1.250040e-01
1.882161e-02	8.894762e-05	-1.125358e-02
-3.269747e-01	-6.139747e-05	2.506925e-01
-7.630563e-01	-2.172406e-04	1.018869e+00
-4.875721e-01	-3.713283e-04	3.092699e+00
2.990339e+00	-5.480322e-04	2.994612e+00
3.098666e+00	-6.978929e-04	9.573935e-01
2.614075e+00	-8.449167e-04	6.742412e-02
2.231323e+00	-9.813096e-04	-2.001014e-01
1.965623e+00	-1.145442e-03	-3.618554e-01
1.774365e+00	-1.263067e-03	-4.249386e-01
1.608195e+00	-1.371467e-03	-4.723417e-01
1.485293e+00	-1.501901e-03	-4.878371e-01
1.379824e+00	-1.586225e-03	-5.012789e-01
1.292847e+00	-1.650480e-03	-4.984281e-01
1.215648e+00	-1.703534e-03	-4.955548e-01
1.150358e+00	-1.780112e-03	-4.852580e-01
1.091258e+00	-1.801926e-03	-4.763070e-01
1.036931e+00	-1.807974e-03	-4.629966e-01
9.870475e-01	-1.829968e-03	-4.517438e-01
9.369454e-01	-1.851449e-03	-4.363680e-01
8.891749e-01	-1.769172e-03	-4.220319e-01
8.395260e-01	-1.779641e-03	-4.034075e-01
7.883762e-01	-1.779412e-03	-3.830236e-01
7.397177e-01	-1.795918e-03	-3.609893e-01
8.158759e-01	1.711067e-03	-1.436728e-01
8.336979e-01	1.700137e-03	-1.483200e-01
8.448261e-01	1.576444e-03	-1.540621e-01
8.529503e-01	1.669028e-03	-1.597707e-01
8.485200e-01	1.696189e-03	-1.653501e-01
8.426276e-01	1.704933e-03	-1.700224e-01
8.288334e-01	1.662393e-03	-1.752507e-01
8.135594e-01	1.596452e-03	-1.791694e-01
7.907693e-01	1.522908e-03	-1.844313e-01
7.650728e-01	1.407234e-03	-1.882299e-01
7.281166e-01	1.265404e-03	-1.939678e-01
6.835669e-01	1.184156e-03	-1.964529e-01
6.202289e-01	9.803874e-04	-1.993426e-01
5.380031e-01	7.843528e-04	-1.919130e-01