# vtk DataFile Version 2.0
OUTPUT by 3D-VPM
ASCII
DATASET UNSTRUCTURED_GRID
POINTS 820 double
1.000000e+00	0.000000e+00	2.661139e-03
9.931674e-01	0.000000e+00	1.699314e-03
9.755282e-01	0.000000e+00	-7.521714e-04
9.448927e-01	0.000000e+00	-4.875271e-03
9.045085e-01	0.000000e+00	-1.011350e-02
8.530688e-01	0.000000e+00	-1.640492e-02
7.938926e-01	0.000000e+00	-2.324372e-02
7.266841e-01	0.000000e+00	-3.038006e-02
6.545085e-01	0.000000e+00	-3.743159e-02
5.781101e-01	0.000000e+00	-4.394308e-02
5.000000e-01	0.000000e+00	-4.964911e-02
4.218900e-01	0.000000e+00	-5.385619e-02
3.454915e-01	0.000000e+00	-5.647826e-02
2.733159e-01	0.000000e+00	-5.670817e-02
2.061074e-01	0.000000e+00	-5.479329e-02
1.469312e-01	0.000000e+00	-5.010275e-02
9.549150e-02	0.000000e+00	-4.326747e-02
5.510729e-02	0.000000e+00	-3.403641e-02
2.447174e-02	0.000000e+00	-2.320134e-02
6.832625e-03	0.000000e+00	-1.077235e-02
0.000000e+00	0.000000e+00	2.661139e-03
6.832625e-03	0.000000e+00	1.609462e-02
2.447174e-02	0.000000e+00	2.852362e-02
5.510728e-02	0.000000e+00	3.935869e-02
9.549150e-02	0.000000e+00	4.858975e-02
1.469312e-01	0.000000e+00	5.542502e-02
2.061074e-01	0.000000e+00	6.011558e-02
2.733159e-01	0.000000e+00	6.203045e-02
3.454915e-01	0.000000e+00	6.180054e-02
4.218900e-01	0.000000e+00	5.917847e-02
5.000000e-01	0.000000e+00	5.497139e-02
5.781101e-01	0.000000e+00	4.926535e-02
6.545085e-01	0.000000e+00	4.275387e-02
7.266841e-01	0.000000e+00	3.570234e-02
7.938926e-01	0.000000e+00	2.856600e-02
8.530688e-01	0.000000e+00	2.172720e-02
9.045085e-01	0.000000e+00	1.543578e-02
9.448927e-01	0.000000e+00	1.019755e-02
9.755282e-01	0.000000e+00	6.074449e-03
9.931674e-01	0.000000e+00	3.622964e-03
1.000000e+00	0.000000e+00	2.661139e-03
1.000000e+00	1.052632e+00	2.661139e-03
9.931674e-01	1.052632e+00	1.699314e-03
9.755282e-01	1.052632e+00	-7.521714e-04
9.448927e-01	1.052632e+00	-4.875271e-03
9.045085e-01	1.052632e+00	-1.011350e-02
8.530689e-01	1.052632e+00	-1.640492e-02
7.938926e-01	1.052632e+00	-2.324372e-02
7.266841e-01	1.052632e+00	-3.038006e-02
6.545085e-01	1.052632e+00	-3.743159e-02
5.781101e-01	1.052632e+00	-4.394308e-02
5.000000e-01	1.052632e+00	-4.964911e-02
4.218900e-01	1.052632e+00	-5.385619e-02
3.454915e-01	1.052632e+00	-5.647826e-02
2.733158e-01	1.052632e+00	-5.670817e-02
2.061074e-01	1.052632e+00	-5.479329e-02
1.469311e-01	1.052632e+00	-5.010275e-02
9.549150e-02	1.052632e+00	-4.326747e-02
5.510729e-02	1.052632e+00	-3.403641e-02
2.447174e-02	1.052632e+00	-2.320134e-02
6.832625e-03	1.052632e+00	-1.077235e-02
0.000000e+00	1.052632e+00	2.661139e-03
6.832625e-03	1.052632e+00	1.609462e-02
2.447174e-02	1.052632e+00	2.852362e-02
5.510728e-02	1.052632e+00	3.935869e-02
9.549150e-02	1.052632e+00	4.858975e-02
1.469311e-01	1.052632e+00	5.542502e-02
2.061074e-01	1.052632e+00	6.011558e-02
2.733158e-01	1.052632e+00	6.203045e-02
3.454915e-01	1.052632e+00	6.180054e-02
4.218900e-01	1.052632e+00	5.917847e-02
5.000000e-01	1.052632e+00	5.497139e-02
5.781101e-01	1.052632e+00	4.926535e-02
6.545085e-01	1.052632e+00	4.275387e-02
7.266841e-01	1.052632e+00	3.570234e-02
7.938926e-01	1.052632e+00	2.856600e-02
8.530689e-01	1.052632e+00	2.172720e-02
9.045085e-01	1.052632e+00	1.543578e-02
9.448927e-01	1.052632e+00	1.019755e-02
9.755282e-01	1.052632e+00	6.074449e-03
9.931674e-01	1.052632e+00	3.622964e-03
1.000000e+00	1.052632e+00	2.661139e-03
1.000000e+00	2.105263e+00	2.661139e-03
9.931674e-01	2.105263e+00	1.699314e-03
9.755282e-01	2.105263e+00	-7.521714e-04
9.448927e-01	2.105263e+00	-4.875271e-03
9.045085e-01	2.105263e+00	-1.011350e-02
8.530689e-01	2.105263e+00	-1.640492e-02
7.938926e-01	2.105263e+00	-2.324372e-02
7.266841e-01	2.105263e+00	-3.038006e-02
6.545085e-01	2.105263e+00	-3.743159e-02
5.781101e-01	2.105263e+00	-4.394308e-02
5.000000e-01	2.105263e+00	-4.964911e-02
4.218900e-01	2.105263e+00	-5.385619e-02
3.454915e-01	2.105263e+00	-5.647826e-02
2.733158e-01	2.105263e+00	-5.670817e-02
2.061074e-01	2.105263e+00	-5.479329e-02
1.469312e-01	2.105263e+00	-5.010275e-02
9.549150e-02	2.105263e+00	-4.326747e-02
5.510729e-02	2.105263e+00	-3.403641e-02
2.447174e-02	2.105263e+00	-2.320134e-02
6.832625e-03	2.105263e+00	-1.077235e-02
0.000000e+00	2.105263e+00	2.661139e-03
6.832625e-03	2.105263e+00	1.609462e-02
2.447174e-02	2.105263e+00	2.852362e-02
5.510728e-02	2.105263e+00	3.935869e-02
9.549150e-02	2.105263e+00	4.858975e-02
1.469312e-01	2.105263e+00	5.542502e-02
2.061074e-01	2.105263e+00	6.011558e-02
2.733158e-01	2.105263e+00	6.203045e-02
3.454915e-01	2.105263e+00	6.180054e-02
4.218900e-01	2.105263e+00	5.917847e-02
5.000000e-01	2.105263e+00	5.497139e-02
5.781101e-01	2.105263e+00	4.926535e-02
6.545085e-01	2.105263e+00	4.275387e-02
7.266841e-01	2.105263e+00	3.570234e-02
7.938926e-01	2.105263e+00	2.856600e-02
8.530689e-01	2.105263e+00	2.172720e-02
9.045085e-01	2.105263e+00	1.543578e-02
9.448927e-01	2.105263e+00	1.019755e-02
9.755282e-01	2.105263e+00	6.074449e-03
9.931674e-01	2.105263e+00	3.622964e-03
1.000000e+00	2.105263e+00	2.661139e-03
1.000000e+00	3.157895e+00	2.661139e-03
9.931674e-01	3.157895e+00	1.699314e-03
9.755282e-01	3.157895e+00	-7.521714e-04
9.448927e-01	3.157895e+00	-4.875271e-03
9.045085e-01	3.157895e+00	-1.011350e-02
8.530689e-01	3.157895e+00	-1.640492e-02
7.938926e-01	3.157895e+00	-2.324372e-02
7.266842e-01	3.157895e+00	-3.038006e-02
6.545085e-01	3.157895e+00	-3.743159e-02
5.781101e-01	3.157895e+00	-4.394308e-02
5.000000e-01	3.157895e+00	-4.964911e-02
4.218900e-01	3.157895e+00	-5.385619e-02
3.454915e-01	3.157895e+00	-5.647826e-02
2.733158e-01	3.157895e+00	-5.670817e-02
2.061074e-01	3.157895e+00	-5.479329e-02
1.469312e-01	3.157895e+00	-5.010275e-02
9.549150e-02	3.157895e+00	-4.326747e-02
5.510729e-02	3.157895e+00	-3.403641e-02
2.447174e-02	3.157895e+00	-2.320134e-02
6.832625e-03	3.157895e+00	-1.077235e-02
0.000000e+00	3.157895e+00	2.661139e-03
6.832625e-03	3.157895e+00	1.609462e-02
2.447174e-02	3.157895e+00	2.852362e-02
5.510728e-02	3.157895e+00	3.935869e-02
9.549150e-02	3.157895e+00	4.858975e-02
1.469312e-01	3.157895e+00	5.542502e-02
2.061074e-01	3.157895e+00	6.011558e-02
2.733158e-01	3.157895e+00	6.203045e-02
3.454915e-01	3.157895e+00	6.180054e-02
4.218900e-01	3.157895e+00	5.917847e-02
5.000000e-01	3.157895e+00	5.497139e-02
5.781101e-01	3.157895e+00	4.926535e-02
6.545085e-01	3.157895e+00	4.275387e-02
7.266842e-01	3.157895e+00	3.570234e-02
7.938926e-01	3.157895e+00	2.856600e-02
8.530689e-01	3.157895e+00	2.172720e-02
9.045085e-01	3.157895e+00	1.543578e-02
9.448927e-01	3.157895e+00	1.019755e-02
9.755282e-01	3.157895e+00	6.074449e-03
9.931674e-01	3.157895e+00	3.622964e-03
1.000000e+00	3.157895e+00	2.661139e-03
1.000000e+00	4.210526e+00	2.661139e-03
9.931674e-01	4.210526e+00	1.699314e-03
9.755282e-01	4.210526e+00	-7.521714e-04
9.448927e-01	4.210526e+00	-4.875271e-03
9.045085e-01	4.210526e+00	-1.011350e-02
8.530689e-01	4.210526e+00	-1.640492e-02
7.938926e-01	4.210526e+00	-2.324372e-02
7.266841e-01	4.210526e+00	-3.038006e-02
6.545085e-01	4.210526e+00	-3.743159e-02
5.781101e-01	4.210526e+00	-4.394308e-02
5.000000e-01	4.210526e+00	-4.964911e-02
4.218900e-01	4.210526e+00	-5.385619e-02
3.454915e-01	4.210526e+00	-5.647826e-02
2.733158e-01	4.210526e+00	-5.670817e-02
2.061074e-01	4.210526e+00	-5.479329e-02
1.469311e-01	4.210526e+00	-5.010275e-02
9.549150e-02	4.210526e+00	-4.326747e-02
5.510729e-02	4.210526e+00	-3.403641e-02
2.447174e-02	4.210526e+00	-2.320134e-02
6.832625e-03	4.210526e+00	-1.077235e-02
0.000000e+00	4.210526e+00	2.661139e-03
6.832625e-03	4.210526e+00	1.609462e-02
2.447174e-02	4.210526e+00	2.852362e-02
5.510728e-02	4.210526e+00	3.935869e-02
9.549150e-02	4.210526e+00	4.858975e-02
1.469311e-01	4.210526e+00	5.542502e-02
2.061074e-01	4.210526e+00	6.011558e-02
2.733158e-01	4.210526e+00	6.203045e-02
3.454915e-01	4.210526e+00	6.180054e-02
4.218900e-01	4.210526e+00	5.917847e-02
5.000000e-01	4.210526e+00	5.497139e-02
5.781101e-01	4.210526e+00	4.926535e-02
6.545085e-01	4.210526e+00	4.275387e-02
7.266841e-01	4.210526e+00	3.570234e-02
7.938926e-01	4.210526e+00	2.856600e-02
8.530689e-01	4.210526e+00	2.172720e-02
9.045085e-01	4.210526e+00	1.543578e-02
9.448927e-01	4.210526e+00	1.019755e-02
9.755282e-01	4.210526e+00	6.074449e-03
9.931674e-01	4.210526e+00	3.622964e-03
1.000000e+00	4.210526e+00	2.661139e-03
1.000000e+00	5.263158e+00	2.661139e-03
9.931674e-01	5.263158e+00	1.699314e-03
9.755282e-01	5.263158e+00	-7.521714e-04
9.448927e-01	5.263158e+00	-4.875271e-03
9.045085e-01	5.263158e+00	-1.011350e-02
8.530689e-01	5.263158e+00	-1.640492e-02
7.938926e-01	5.263158e+00	-2.324372e-02
7.266842e-01	5.263158e+00	-3.038006e-02
6.545085e-01	5.263158e+00	-3.743159e-02
5.781101e-01	5.263158e+00	-4.394308e-02
5.000000e-01	5.263158e+00	-4.964911e-02
4.218900e-01	5.263158e+00	-5.385619e-02
3.454915e-01	5.263158e+00	-5.647826e-02
2.733158e-01	5.263158e+00	-5.670817e-02
2.061074e-01	5.263158e+00	-5.479329e-02
1.469311e-01	5.263158e+00	-5.010275e-02
9.549150e-02	5.263158e+00	-4.326747e-02
5.510729e-02	5.263158e+00	-3.403641e-02
2.447174e-02	5.263158e+00	-2.320134e-02
6.832625e-03	5.263158e+00	-1.077235e-02
0.000000e+00	5.263158e+00	2.661139e-03
6.832625e-03	5.263158e+00	1.609462e-02
2.447174e-02	5.263158e+00	2.852362e-02
5.510728e-02	5.263158e+00	3.935869e-02
9.549150e-02	5.263158e+00	4.858975e-02
1.469311e-01	5.263158e+00	5.542502e-02
2.061074e-01	5.263158e+00	6.011558e-02
2.733158e-01	5.263158e+00	6.203045e-02
3.454915e-01	5.263158e+00	6.180054e-02
4.218900e-01	5.263158e+00	5.917847e-02
5.000000e-01	5.263158e+00	5.497139e-02
5.781101e-01	5.263158e+00	4.926535e-02
6.545085e-01	5.263158e+00	4.275387e-02
7.266842e-01	5.263158e+00	3.570234e-02
7.938926e-01	5.263158e+00	2.856600e-02
8.530689e-01	5.263158e+00	2.172720e-02
9.045085e-01	5.263158e+00	1.543578e-02
9.448927e-01	5.263158e+00	1.019755e-02
9.755282e-01	5.263158e+00	6.074449e-03
9.931674e-01	5.263158e+00	3.622964e-03
1.000000e+00	5.263158e+00	2.661139e-03
1.000000e+00	6.315789e+00	2.661139e-03
9.931673e-01	6.315789e+00	1.699314e-03
9.755282e-01	6.315789e+00	-7.521714e-04
9.448927e-01	6.315789e+00	-4.875271e-03
9.045085e-01	6.315789e+00	-1.011350e-02
[...]
CELL_DATA 760
VECTORS V double
3.397486e-01	1.200437e-03	4.782606e-02
3.469548e-01	1.166979e-03	4.821970e-02
3.533947e-01	1.111014e-03	4.756187e-02
3.594352e-01	1.041788e-03	4.662230e-02
3.644967e-01	9.602245e-04	4.458043e-02
3.706718e-01	8.619950e-04	4.283729e-02
3.755860e-01	7.410250e-04	3.988054e-02
3.814369e-01	5.922885e-04	3.726622e-02
3.867384e-01	4.144134e-04	3.296194e-02
3.929897e-01	2.109460e-04	2.870838e-02
3.989366e-01	-8.995771e-06	2.148711e-02
4.052589e-01	-2.316370e-04	1.390888e-02
4.107909e-01	-4.419563e-04	1.308543e-03
4.152211e-01	-6.250740e-04	-1.183034e-02
4.195975e-01	-7.721086e-04	-3.325897e-02
4.157912e-01	-8.781440e-04	-5.525013e-02
4.009882e-01	-9.461026e-04	-9.165824e-02
3.723004e-01	-9.803819e-04	-1.316739e-01
2.788837e-01	-9.883536e-04	-1.965089e-01
7.273342e-02	-9.748803e-04	-1.429997e-01
1.139693e-01	-9.369958e-04	2.240727e-01
3.239703e-01	-8.853507e-04	2.282782e-01
4.057246e-01	-8.127647e-04	1.434952e-01
4.249376e-01	-7.181381e-04	9.713261e-02
4.328855e-01	-5.935046e-04	5.752161e-02
4.316815e-01	-4.378409e-04	3.421687e-02
4.231909e-01	-2.506127e-04	1.205735e-02
4.154452e-01	-4.027197e-05	-1.323369e-03
4.069135e-01	1.815746e-04	-1.396566e-02
3.979128e-01	3.980168e-04	-2.143197e-02
3.892901e-01	5.934123e-04	-2.843812e-02
3.803326e-01	7.548333e-04	-3.241597e-02
3.720123e-01	8.751621e-04	-3.634544e-02
3.626962e-01	9.534196e-04	-3.851188e-02
3.534944e-01	9.936037e-04	-4.085216e-02
3.418387e-01	1.003594e-03	-4.180920e-02
3.294411e-01	9.926297e-04	-4.273176e-02
3.137405e-01	9.706785e-04	-4.222498e-02
2.958679e-01	9.479721e-04	-4.111965e-02
2.779551e-01	9.349609e-04	-3.912745e-02
3.425715e-01	6.972447e-04	4.822343e-02
3.494377e-01	6.768610e-04	4.856477e-02
3.555313e-01	6.428670e-04	4.784942e-02
3.613418e-01	6.007692e-04	4.686960e-02
3.663391e-01	5.513075e-04	4.480576e-02
3.725983e-01	4.923460e-04	4.305993e-02
3.777042e-01	4.208368e-04	4.010546e-02
3.838068e-01	3.343502e-04	3.749776e-02
3.893706e-01	2.324050e-04	3.318629e-02
3.958440e-01	1.171303e-04	2.891689e-02
4.019263e-01	-6.494940e-06	2.164814e-02
4.082636e-01	-1.311052e-04	1.401200e-02
4.136707e-01	-2.487296e-04	1.317716e-03
4.178417e-01	-3.514573e-04	-1.190500e-02
4.218459e-01	-4.345454e-04	-3.343719e-02
4.175888e-01	-4.952099e-04	-5.548899e-02
4.022769e-01	-5.348561e-04	-9.195282e-02
3.730089e-01	-5.555611e-04	-1.319245e-01
2.788627e-01	-5.611476e-04	-1.964942e-01
7.198319e-02	-5.540320e-04	-1.415247e-01
1.154347e-01	-5.323321e-04	2.269539e-01
3.263891e-01	-5.021845e-04	2.299825e-01
4.083278e-01	-4.597212e-04	1.444159e-01
4.276417e-01	-4.047165e-04	9.775073e-02
4.357543e-01	-3.330308e-04	5.790281e-02
4.347144e-01	-2.444948e-04	3.445727e-02
4.263389e-01	-1.390209e-04	1.214704e-02
4.186044e-01	-2.132702e-05	-1.333432e-03
4.099526e-01	1.023793e-04	-1.406997e-02
4.006941e-01	2.230993e-04	-2.158177e-02
3.916962e-01	3.325437e-04	-2.861389e-02
3.822803e-01	4.238034e-04	-3.258197e-02
3.734588e-01	4.929872e-04	-3.648676e-02
3.636363e-01	5.394219e-04	-3.861169e-02
3.539498e-01	5.650638e-04	-4.090479e-02
3.418485e-01	5.738369e-04	-4.181040e-02
3.290467e-01	5.704345e-04	-4.268061e-02
3.129958e-01	5.600929e-04	-4.212476e-02
2.948703e-01	5.483441e-04	-4.098100e-02
2.768573e-01	5.412020e-04	-3.897292e-02
3.431882e-01	1.261554e-04	4.831025e-02
3.499732e-01	1.214125e-04	4.863920e-02
3.559923e-01	1.135857e-04	4.791146e-02
3.617501e-01	1.038125e-04	4.692257e-02
3.667177e-01	9.246506e-05	4.485208e-02
3.729640e-01	7.960789e-05	4.310220e-02
3.780668e-01	6.526148e-05	4.014396e-02
3.841708e-01	4.954716e-05	3.753332e-02
3.897368e-01	3.273606e-05	3.321750e-02
3.962106e-01	1.526702e-05	2.894367e-02
4.022904e-01	-2.335464e-06	2.166775e-02
4.086210e-01	-1.946516e-05	1.402427e-02
4.140165e-01	-3.556365e-05	1.318818e-03
4.181704e-01	-5.002755e-05	-1.191437e-02
4.221509e-01	-6.248362e-05	-3.346136e-02
4.178622e-01	-7.249786e-05	-5.552532e-02
4.025070e-01	-7.998150e-05	-9.200541e-02
3.731760e-01	-8.475451e-05	-1.319836e-01
2.789240e-01	-8.697487e-05	-1.965373e-01
7.189652e-02	-8.659610e-05	-1.413543e-01
1.156693e-01	-8.309933e-05	2.274150e-01
3.267984e-01	-7.751559e-05	2.302709e-01
4.087579e-01	-6.950983e-05	1.445680e-01
4.280607e-01	-5.952070e-05	9.784649e-02
4.361635e-01	-4.736398e-05	5.795719e-02
4.351125e-01	-3.349729e-05	3.448882e-02
4.267245e-01	-1.815903e-05	1.215802e-02
4.189742e-01	-1.982864e-06	-1.334610e-03
4.103033e-01	1.452034e-05	-1.408200e-02
4.010216e-01	3.067117e-05	-2.159941e-02
3.919968e-01	4.591097e-05	-2.863585e-02
3.825505e-01	5.969734e-05	-3.260500e-02
3.736958e-01	7.159657e-05	-3.650992e-02
3.638385e-01	8.134806e-05	-3.863317e-02
3.541147e-01	8.885108e-05	-4.092384e-02
3.419707e-01	9.406375e-05	-4.182535e-02
3.291192e-01	9.704953e-05	-4.269001e-02
3.130103e-01	9.810303e-05	-4.212671e-02
2.948213e-01	9.773901e-05	-4.097420e-02
2.767499e-01	9.698210e-05	-3.895780e-02
3.433718e-01	4.140369e-05	4.833609e-02
3.501344e-01	3.987941e-05	4.866160e-02
3.561326e-01	3.731960e-05	4.793035e-02
3.618754e-01	3.407701e-05	4.693881e-02
3.668337e-01	3.028593e-05	4.486627e-02
3.730749e-01	2.600173e-05	4.311501e-02
3.781751e-01	2.127423e-05	4.015546e-02
3.842780e-01	1.616387e-05	3.754379e-02
3.898434e-01	1.076687e-05	3.322659e-02
3.963168e-01	5.199332e-06	2.895143e-02
4.023956e-01	-3.947401e-07	2.167341e-02
4.087248e-01	-5.842428e-06	1.402783e-02
4.141179e-01	-1.100448e-05	1.319141e-03
4.182683e-01	-1.569912e-05	-1.191716e-02
4.222439e-01	-1.981256e-05	-3.346873e-02
4.179480e-01	-2.320041e-05	-5.553672e-02
4.025821e-01	-2.581614e-05	-9.202259e-02
3.732346e-01	-2.756769e-05	-1.320043e-01
2.789521e-01	-2.848180e-05	-1.965571e-01
7.187710e-02	-2.850906e-05	-1.413161e-01
1.157359e-01	-2.747916e-05	2.275459e-01
3.269193e-01	-2.569934e-05	2.303561e-01
4.088862e-01	-2.309418e-05	1.446134e-01
4.281855e-01	-1.983095e-05	9.787503e-02
4.362848e-01	-1.587541e-05	5.797331e-02
4.352296e-01	-1.139435e-05	3.449811e-02
4.268372e-01	-6.468378e-06	1.216124e-02
4.190819e-01	-1.289938e-06	-1.334953e-03
4.104055e-01	3.997311e-06	-1.408551e-02
4.011181e-01	9.202872e-06	-2.160461e-02
3.920875e-01	1.419152e-05	-2.864248e-02
3.826349e-01	1.882132e-05	-3.261220e-02
3.737731e-01	2.295381e-05	-3.651747e-02
3.639077e-01	2.648060e-05	-3.864051e-02
3.541744e-01	2.931691e-05	-4.093075e-02
3.420192e-01	3.142078e-05	-4.183129e-02
3.291539e-01	3.277427e-05	-4.269452e-02
3.130279e-01	3.342977e-05	-4.212908e-02
2.948193e-01	3.352148e-05	-4.097392e-02
2.767296e-01	3.337622e-05	-3.895494e-02
3.434454e-01	1.860028e-05	4.834646e-02
3.502002e-01	1.794958e-05	4.867074e-02
3.561907e-01	1.683295e-05	4.793818e-02
3.619279e-01	1.539387e-05	4.694563e-02
3.668827e-01	1.369466e-05	4.487226e-02
3.731219e-01	1.176707e-05	4.312044e-02
3.782208e-01	9.639346e-06	4.016032e-02
3.843230e-01	7.344773e-06	3.754819e-02
3.898880e-01	4.930759e-06	3.323039e-02
3.963611e-01	2.447891e-06	2.895466e-02
4.024396e-01	-4.464251e-08	2.167578e-02
4.087683e-01	-2.480083e-06	1.402932e-02
4.141607e-01	-4.797073e-06	1.319277e-03
4.183100e-01	-6.921304e-06	-1.191834e-02
4.222836e-01	-8.793329e-06	-3.347188e-02
4.179853e-01	-1.035381e-05	-5.554168e-02
4.026155e-01	-1.157980e-05	-9.203020e-02
3.732614e-01	-1.241957e-05	-1.320138e-01
2.789662e-01	-1.288043e-05	-1.965671e-01
7.187047e-02	-1.293350e-05	-1.413031e-01
1.157630e-01	-1.250443e-05	2.275993e-01
3.269698e-01	-1.172249e-05	2.303917e-01
4.089401e-01	-1.056192e-05	1.446325e-01
4.282379e-01	-9.101926e-06	9.788700e-02
4.363355e-01	-7.332247e-06	5.798004e-02
4.352784e-01	-5.330605e-06	3.450197e-02
4.268842e-01	-3.131271e-06	1.216258e-02
4.191271e-01	-8.133264e-07	-1.335097e-03
4.104488e-01	1.566459e-06	-1.408700e-02
4.011593e-01	3.926295e-06	-2.160683e-02
3.921265e-01	6.200583e-06	-2.864532e-02
3.826714e-01	8.322697e-06	-3.261531e-02
3.738069e-01	1.023621e-05	-3.652077e-02
3.639385e-01	1.189322e-05	-3.864379e-02
3.542018e-01	1.325288e-05	-4.093391e-02
3.420424e-01	1.429069e-05	-4.183411e-02
3.291717e-01	1.499300e-05	-4.269682e-02
3.130389e-01	1.537327e-05	-4.213056e-02
2.948226e-01	1.548315e-05	-4.097437e-02
2.767254e-01	1.545685e-05	-3.895435e-02
3.434816e-01	1.005254e-05	4.835155e-02
3.502329e-01	9.718293e-06	4.867529e-02
3.562201e-01	9.135092e-06	4.794213e-02
3.619548e-01	8.371792e-06	4.694911e-02
3.669079e-01	7.461520e-06	4.487533e-02
3.731460e-01	6.425161e-06	4.312322e-02
3.782444e-01	5.280280e-06	4.016281e-02
3.843462e-01	4.043427e-06	3.755045e-02
3.899110e-01	2.740892e-06	3.323234e-02
3.963839e-01	1.401489e-06	2.895633e-02
4.024622e-01	5.629198e-08	2.167700e-02
4.087907e-01	-1.260024e-06	1.403009e-02
4.141829e-01	-2.515181e-06	1.319348e-03
4.183316e-01	-3.670125e-06	-1.191896e-02
4.223046e-01	-4.698096e-06	-3.347354e-02
4.180051e-01	-5.562196e-06	-5.554431e-02
4.026334e-01	-6.247692e-06	-9.203430e-02
3.732761e-01	-6.725516e-06	-1.320190e-01
2.789746e-01	-6.998103e-06	-1.965730e-01
7.186782e-02	-7.047343e-06	-1.412979e-01
1.157764e-01	-6.834995e-06	2.276257e-01
3.269953e-01	-6.425244e-06	2.304097e-01
4.089676e-01	-5.806994e-06	1.446422e-01
4.282648e-01	-5.022613e-06	9.789316e-02
4.363617e-01	-4.066639e-06	5.798352e-02
4.353038e-01	-2.981193e-06	3.450398e-02
4.269087e-01	-1.786165e-06	1.216327e-02
4.191505e-01	-5.265808e-07	-1.335172e-03
4.104712e-01	7.664117e-07	-1.408777e-02
4.011807e-01	2.050543e-06	-2.160798e-02
3.921468e-01	3.292633e-06	-2.864681e-02
3.826906e-01	4.457824e-06	-3.261695e-02
3.738248e-01	5.515501e-06	-3.652253e-02
3.639550e-01	6.439920e-06	-3.864554e-02
3.542167e-01	7.208280e-06	-4.093563e-02
3.420552e-01	7.806619e-06	-4.183569e-02
3.291820e-01	8.224182e-06	-4.269817e-02
3.130460e-01	8.465667e-06	-4.213151e-02
2.948259e-01	8.555564e-06	-4.097484e-02
2.767252e-01	8.559875e-06	-3.895431e-02
3.435018e-01	6.104705e-06	4.835440e-02
3.502514e-01	5.913530e-06	4.867786e-02
3.562369e-01	5.574958e-06	4.794440e-02
3.619703e-01	5.126085e-06	4.695112e-02
3.669225e-01	4.585652e-06	4.487713e-02
3.731601e-01	3.966193e-06	4.312485e-02
3.782581e-01	3.281117e-06	4.016428e-02
3.843598e-01	2.541410e-06	3.755178e-02
3.899245e-01	1.760583e-06	3.323349e-02
3.963973e-01	9.559944e-07	2.895731e-02
4.024755e-01	1.468106e-07	2.167772e-02
4.088040e-01	-6.465311e-07	1.403055e-02
4.141960e-01	-1.405383e-06	1.319390e-03
4.183445e-01	-2.106628e-06	-1.191933e-02
4.223171e-01	-2.734139e-06	-3.347453e-02
4.180170e-01	-3.265306e-06	-5.554589e-02
4.026443e-01	-3.690755e-06	-9.203680e-02
3.732853e-01	-3.992062e-06	-1.320222e-01
2.789801e-01	-4.170281e-06	-1.965769e-01
7.186674e-02	-4.212608e-06	-1.412957e-01
1.157840e-01	-4.096325e-06	2.276405e-01
3.270101e-01	-3.856327e-06	2.304201e-01
4.089837e-01	-3.487868e-06	1.446479e-01
4.282806e-01	-3.016995e-06	9.789677e-02
4.363771e-01	-2.441410e-06	5.798557e-02
4.353187e-01	-1.787222e-06	3.450516e-02
4.269231e-01	-1.066762e-06	1.216368e-02
4.191644e-01	-3.069646e-07	-1.335216e-03
4.104845e-01	4.740097e-07	-1.408822e-02
4.011934e-01	1.251498e-06	-2.160867e-02
3.921589e-01	2.005820e-06	-2.864769e-02
3.827021e-01	2.716242e-06	-3.261792e-02
3.738357e-01	3.364989e-06	-3.652358e-02
3.639651e-01	3.936826e-06	-3.864661e-02
3.542258e-01	4.417757e-06	-4.093669e-02
3.420633e-01	4.798331e-06	-4.183668e-02
3.291888e-01	5.070731e-06	-4.269904e-02
3.130510e-01	5.236739e-06	-4.213218e-02
2.948288e-01	5.308704e-06	-4.097524e-02
2.767261e-01	5.322242e-06	-3.895445e-02
3.435139e-01	3.798640e-06	4.835609e-02
3.502626e-01	3.709163e-06	4.867941e-02
3.562472e-01	3.559698e-06	4.794577e-02
3.619798e-01	3.376099e-06	4.695236e-02
3.669316e-01	3.173573e-06	4.487823e-02
3.731688e-01	2.957487e-06	4.312586e-02
3.782667e-01	2.722537e-06	4.016518e-02
3.843682e-01	2.452937e-06	3.755261e-02
3.899328e-01	2.126185e-06	3.323421e-02
3.964056e-01	1.726476e-06	2.895792e-02
4.024838e-01	1.258509e-06	2.167817e-02
4.088123e-01	7.493158e-07	1.403083e-02
4.142042e-01	2.383593e-07	1.319416e-03
4.183527e-01	-2.327579e-07	-1.191956e-02
4.223251e-01	-6.397569e-07	-3.347516e-02
4.180247e-01	-9.689951e-07	-5.554691e-02
4.026514e-01	-1.223380e-06	-9.203842e-02
3.732914e-01	-1.400381e-06	-1.320244e-01
2.789839e-01	-1.505260e-06	-1.965796e-01
7.186635e-02	-1.531654e-06	-1.412950e-01
1.157885e-01	-1.466577e-06	2.276494e-01
3.270192e-01	-1.329565e-06	2.304265e-01
4.089937e-01	-1.118260e-06	1.446514e-01
4.282905e-01	-8.464774e-07	9.789903e-02
4.363868e-01	-5.083165e-07	5.798686e-02
4.353280e-01	-1.106071e-07	3.450590e-02
4.269321e-01	3.479819e-07	1.216394e-02
4.191730e-01	8.514669e-07	-1.335244e-03
4.104929e-01	1.374421e-06	-1.408851e-02
4.012014e-01	1.873941e-06	-2.160910e-02
3.921666e-01	2.309759e-06	-2.864825e-02
3.827093e-01	2.655512e-06	-3.261854e-02
3.738425e-01	2.907507e-06	-3.652426e-02
3.639716e-01	3.080805e-06	-3.864730e-02
3.542318e-01	3.197439e-06	-4.093738e-02
3.420687e-01	3.275500e-06	-4.183734e-02
3.291934e-01	3.323768e-06	-4.269963e-02
3.130546e-01	3.345367e-06	-4.213267e-02
2.948313e-01	3.343470e-06	-4.097558e-02
2.767274e-01	3.332328e-06	-3.895463e-02
3.435169e-01	-3.333491e-04	4.835652e-02
3.502647e-01	-3.339778e-04	4.867970e-02
3.562483e-01	-3.359135e-04	4.794593e-02
3.619800e-01	-3.325661e-04	4.695238e-02
3.669310e-01	-3.221763e-04	4.487817e-02
3.731680e-01	-3.342149e-04	4.312576e-02
3.782661e-01	-2.812706e-04	4.016512e-02
3.843684e-01	-3.044087e-04	3.755263e-02
3.899345e-01	-2.180939e-04	3.323435e-02
3.964090e-01	-2.507269e-04	2.895816e-02
4.024887e-01	-1.321758e-04	2.167843e-02
4.088181e-01	-1.720771e-04	1.403103e-02
4.142103e-01	-2.878570e-05	1.319435e-03
4.183584e-01	-7.516276e-05	-1.191972e-02
4.223301e-01	8.675877e-05	-3.347557e-02
4.180290e-01	1.890872e-04	-5.554748e-02
4.026550e-01	2.365989e-04	-9.203924e-02
3.732942e-01	2.188703e-04	-1.320254e-01
2.789856e-01	2.102238e-04	-1.965808e-01
7.186602e-02	2.068001e-04	-1.412943e-01
1.157908e-01	2.068291e-04	2.276540e-01
3.270238e-01	2.103019e-04	2.304298e-01
4.089987e-01	2.189956e-04	1.446532e-01
4.282956e-01	2.367660e-04	9.790020e-02
4.363921e-01	1.892906e-04	5.798757e-02
4.353338e-01	8.699177e-05	3.450636e-02
4.269383e-01	-7.490812e-05	1.216411e-02
4.191794e-01	-2.851798e-05	-1.335264e-03
4.104987e-01	-1.718059e-04	-1.408871e-02
4.012061e-01	-1.319117e-04	-2.160935e-02
3.921695e-01	-2.504798e-04	-2.864846e-02
3.827103e-01	-2.178739e-04	-3.261863e-02
3.738418e-01	-3.042258e-04	-3.652419e-02
3.639697e-01	-2.811367e-04	-3.864709e-02
3.542293e-01	-3.341400e-04	-4.093709e-02
3.420660e-01	-3.221696e-04	-4.183700e-02
3.291906e-01	-3.326333e-04	-4.269927e-02
3.130518e-01	-3.360553e-04	-4.213229e-02
2.948283e-01	-3.341853e-04	-4.097517e-02
2.767243e-01	-3.335991e-04	-3.895418e-02
3.436200e-01	-2.297227e-08	4.837102e-02
3.504161e-01	-1.824100e-08	4.870074e-02
3.561663e-01	-1.214496e-08	4.793489e-02
3.616136e-01	-6.950654e-09	4.690485e-02
3.670072e-01	-2.971385e-09	4.488748e-02
3.723797e-01	-1.984964e-11	4.303467e-02
3.778584e-01	2.113031e-09	4.012183e-02
3.834042e-01	3.575593e-09	3.745842e-02
3.892240e-01	5.071443e-09	3.317379e-02
3.952374e-01	6.765703e-09	2.887257e-02
4.014083e-01	7.717969e-09	2.162024e-02
4.074289e-01	7.898055e-09	1.398335e-02
4.127000e-01	7.694946e-09	1.314624e-03
4.166870e-01	7.297987e-09	-1.187210e-02
4.176105e-01	6.727207e-09	-3.310147e-02
4.148892e-01	5.963244e-09	-5.513027e-02
4.017441e-01	5.001620e-09	-9.183103e-02
3.741400e-01	3.883094e-09	-1.323245e-01
2.794785e-01	2.598656e-09	-1.969281e-01
7.199388e-02	1.238667e-09	-1.415457e-01
1.159194e-01	-3.857443e-10	2.279067e-01
3.275174e-01	-1.780720e-09	2.307776e-01
4.098451e-01	-3.129661e-09	1.449525e-01
4.273851e-01	-4.329044e-09	9.769208e-02
4.332526e-01	-5.377506e-09	5.757039e-02
4.306143e-01	-6.226243e-09	3.413227e-02
4.252670e-01	-6.894930e-09	1.211650e-02
4.176691e-01	-7.422293e-09	-1.330453e-03
4.091095e-01	-7.876142e-09	-1.404103e-02
4.001256e-01	-8.134571e-09	-2.155115e-02
3.909977e-01	-8.156077e-09	-2.856286e-02
3.819996e-01	-8.089434e-09	-3.255805e-02
3.728773e-01	-7.678968e-09	-3.642995e-02
3.635616e-01	-7.109268e-09	-3.860377e-02
3.534405e-01	-6.364060e-09	-4.084593e-02
3.421415e-01	-5.308174e-09	-4.184623e-02
3.288234e-01	-3.765357e-09	-4.265165e-02
3.129689e-01	-1.507097e-09	-4.212114e-02
2.949788e-01	1.350765e-09	-4.099609e-02
2.768264e-01	3.672017e-09	-3.896856e-02
3.435161e-01	3.333780e-04	4.835641e-02
3.502641e-01	3.340047e-04	4.867962e-02
3.562479e-01	3.359377e-04	4.794588e-02
3.619798e-01	3.325887e-04	4.695236e-02
3.669309e-01	3.221982e-04	4.487815e-02
3.731679e-01	3.342368e-04	4.312575e-02
3.782660e-01	2.812930e-04	4.016511e-02
3.843684e-01	3.044320e-04	3.755262e-02
3.899345e-01	2.181191e-04	3.323434e-02
3.964089e-01	2.507537e-04	2.895816e-02
4.024887e-01	1.322037e-04	2.167843e-02
4.088181e-01	1.721052e-04	1.403103e-02
4.142103e-01	2.881335e-05	1.319435e-03
4.183585e-01	7.518933e-05	-1.191973e-02
4.223302e-01	-8.673400e-05	-3.347557e-02
4.180290e-01	-1.890649e-04	-5.554749e-02
4.026550e-01	-2.365797e-04	-9.203925e-02
3.732943e-01	-2.188546e-04	-1.320254e-01
2.789857e-01	-2.102121e-04	-1.965808e-01
7.186611e-02	-2.067928e-04	-1.412945e-01
1.157907e-01	-2.068268e-04	2.276538e-01
3.270237e-01	-2.103040e-04	2.304297e-01
4.089986e-01	-2.190019e-04	1.446532e-01
4.282956e-01	-2.367761e-04	9.790019e-02
4.363921e-01	-1.893040e-04	5.798756e-02
4.353338e-01	-8.700787e-05	3.450636e-02
4.269383e-01	7.488996e-05	1.216411e-02
4.191794e-01	2.849846e-05	-1.335264e-03
4.104987e-01	1.717857e-04	-1.408871e-02
4.012061e-01	1.318912e-04	-2.160935e-02
3.921695e-01	2.504596e-04	-2.864846e-02
3.827104e-01	2.178546e-04	-3.261863e-02
3.738419e-01	3.042076e-04	-3.652419e-02
3.639697e-01	2.811202e-04	-3.864710e-02
3.542293e-01	3.341252e-04	-4.093709e-02
3.420660e-01	3.221568e-04	-4.183701e-02
3.291907e-01	3.326224e-04	-4.269929e-02
3.130519e-01	3.360461e-04	-4.213231e-02
2.948286e-01	3.341776e-04	-4.097521e-02
2.767246e-01	3.335921e-04	-3.895424e-02
3.435142e-01	-3.727658e-06	4.835614e-02
3.502628e-01	-3.646382e-06	4.867944e-02
3.562473e-01	-3.507406e-06	4.794579e-02
3.619799e-01	-3.332057e-06	4.695237e-02
3.669316e-01	-3.134716e-06	4.487824e-02
3.731688e-01	-2.921416e-06	4.312586e-02
3.782667e-01	-2.687413e-06	4.016518e-02
3.843681e-01	-2.416619e-06	3.755260e-02
3.899328e-01	-2.088391e-06	3.323420e-02
3.964056e-01	-1.688316e-06	2.895791e-02
4.024838e-01	-1.220234e-06	2.167817e-02
4.088123e-01	-7.110891e-07	1.403083e-02
4.142042e-01	-2.008551e-07	1.319416e-03
4.183527e-01	2.686283e-07	-1.191956e-02
4.223251e-01	6.730706e-07	-3.347517e-02
4.180248e-01	9.988951e-07	-5.554692e-02
4.026516e-01	1.249072e-06	-9.203845e-02
3.732916e-01	1.421270e-06	-1.320244e-01
2.789842e-01	1.520698e-06	-1.965798e-01
7.186664e-02	1.541383e-06	-1.412955e-01
1.157882e-01	1.469560e-06	2.276488e-01
3.270189e-01	1.326808e-06	2.304263e-01
4.089935e-01	1.109985e-06	1.446513e-01
4.282904e-01	8.332825e-07	9.789900e-02
4.363866e-01	4.907447e-07	5.798684e-02
4.353279e-01	8.940785e-08	3.450590e-02
4.269320e-01	-3.719662e-07	1.216394e-02
4.191730e-01	-8.772232e-07	-1.335243e-03
4.104929e-01	-1.400830e-06	-1.408851e-02
4.012014e-01	-1.900137e-06	-2.160910e-02
3.921666e-01	-2.335170e-06	-2.864825e-02
3.827094e-01	-2.679479e-06	-3.261855e-02
3.738426e-01	-2.929576e-06	-3.652426e-02
3.639716e-01	-3.100566e-06	-3.864730e-02
3.542319e-01	-3.214517e-06	-4.093739e-02
3.420688e-01	-3.290146e-06	-4.183735e-02
3.291934e-01	-3.336547e-06	-4.269964e-02
3.130547e-01	-3.357319e-06	-4.213268e-02
2.948314e-01	-3.355867e-06	-4.097560e-02
2.767276e-01	-3.345769e-06	-3.895465e-02
3.435024e-01	-6.042914e-06	4.835448e-02
3.502518e-01	-5.856742e-06	4.867792e-02
3.562372e-01	-5.524114e-06	4.794443e-02
3.619704e-01	-5.079640e-06	4.695114e-02
3.669225e-01	-4.541028e-06	4.487713e-02
3.731600e-01	-3.921384e-06	4.312485e-02
3.782581e-01	-3.233667e-06	4.016427e-02
3.843597e-01	-2.490508e-06	3.755177e-02
3.899244e-01	-1.707901e-06	3.323349e-02
3.963972e-01	-9.026143e-07	2.895730e-02
4.024755e-01	-9.325748e-08	2.167772e-02
4.088040e-01	6.994462e-07	1.403055e-02
4.141960e-01	1.456575e-06	1.319390e-03
4.183446e-01	2.154881e-06	-1.191933e-02
4.223172e-01	2.778296e-06	-3.347454e-02
4.180172e-01	3.304276e-06	-5.554592e-02
4.026446e-01	3.723478e-06	-9.203686e-02
3.732857e-01	4.017760e-06	-1.320223e-01
2.789806e-01	4.188130e-06	-1.965772e-01