# vtk DataFile Version 2.0
OUTPUT by 3D-VPM
ASCII
DATASET UNSTRUCTURED_GRID
POINTS 820 double
1.000000e+00	0.000000e+00	9.443596e-04
9.931674e-01	0.000000e+00	-1.746539e-05
9.755282e-01	0.000000e+00	-2.468950e-03
9.448927e-01	0.000000e+00	-6.592050e-03
9.045085e-01	0.000000e+00	-1.183028e-02
8.530688e-01	0.000000e+00	-1.812170e-02
7.938926e-01	0.000000e+00	-2.496050e-02
7.266841e-01	0.000000e+00	-3.209684e-02
6.545085e-01	0.000000e+00	-3.914837e-02
5.781101e-01	0.000000e+00	-4.565986e-02
5.000000e-01	0.000000e+00	-5.136589e-02
4.218900e-01	0.000000e+00	-5.557297e-02
3.454915e-01	0.000000e+00	-5.819504e-02
2.733159e-01	0.000000e+00	-5.842495e-02
2.061074e-01	0.000000e+00	-5.651007e-02
1.469312e-01	0.000000e+00	-5.181953e-02
9.549150e-02	0.000000e+00	-4.498425e-02
5.510729e-02	0.000000e+00	-3.575319e-02
2.447174e-02	0.000000e+00	-2.491812e-02
6.832625e-03	0.000000e+00	-1.248913e-02
0.000000e+00	0.000000e+00	9.443596e-04
6.832625e-03	0.000000e+00	1.437784e-02
2.447174e-02	0.000000e+00	2.680684e-02
5.510728e-02	0.000000e+00	3.764191e-02
9.549150e-02	0.000000e+00	4.687297e-02
1.469312e-01	0.000000e+00	5.370824e-02
2.061074e-01	0.000000e+00	5.839880e-02
2.733159e-01	0.000000e+00	6.031367e-02
3.454915e-01	0.000000e+00	6.008376e-02
4.218900e-01	0.000000e+00	5.746169e-02
5.000000e-01	0.000000e+00	5.325461e-02
5.781101e-01	0.000000e+00	4.754857e-02
6.545085e-01	0.000000e+00	4.103709e-02
7.266841e-01	0.000000e+00	3.398556e-02
7.938926e-01	0.000000e+00	2.684922e-02
8.530688e-01	0.000000e+00	2.001042e-02
9.045085e-01	0.000000e+00	1.371900e-02
9.448927e-01	0.000000e+00	8.480770e-03
9.755282e-01	0.000000e+00	4.357670e-03
9.931674e-01	0.000000e+00	1.906185e-03
1.000000e+00	0.000000e+00	9.443596e-04
1.000000e+00	1.052632e+00	9.443596e-04
9.931674e-01	1.052632e+00	-1.746539e-05
9.755282e-01	1.052632e+00	-2.468950e-03
9.448927e-01	1.052632e+00	-6.592050e-03
9.045085e-01	1.052632e+00	-1.183028e-02
8.530689e-01	1.052632e+00	-1.812170e-02
7.938926e-01	1.052632e+00	-2.496050e-02
7.266841e-01	1.052632e+00	-3.209684e-02
6.545085e-01	1.052632e+00	-3.914837e-02
5.781101e-01	1.052632e+00	-4.565986e-02
5.000000e-01	1.052632e+00	-5.136589e-02
4.218900e-01	1.052632e+00	-5.557297e-02
3.454915e-01	1.052632e+00	-5.819504e-02
2.733158e-01	1.052632e+00	-5.842495e-02
2.061074e-01	1.052632e+00	-5.651007e-02
1.469311e-01	1.052632e+00	-5.181953e-02
9.549150e-02	1.052632e+00	-4.498425e-02
5.510729e-02	1.052632e+00	-3.575319e-02
2.447174e-02	1.052632e+00	-2.491812e-02
6.832625e-03	1.052632e+00	-1.248913e-02
0.000000e+00	1.052632e+00	9.443596e-04
6.832625e-03	1.052632e+00	1.437784e-02
2.447174e-02	1.052632e+00	2.680684e-02
5.510728e-02	1.052632e+00	3.764191e-02
9.549150e-02	1.052632e+00	4.687297e-02
1.469311e-01	1.052632e+00	5.370824e-02
2.061074e-01	1.052632e+00	5.839880e-02
2.733158e-01	1.052632e+00	6.031367e-02
3.454915e-01	1.052632e+00	6.008376e-02
4.218900e-01	1.052632e+00	5.746169e-02
5.000000e-01	1.052632e+00	5.325461e-02
5.781101e-01	1.052632e+00	4.754857e-02
6.545085e-01	1.052632e+00	4.103709e-02
7.266841e-01	1.052632e+00	3.398556e-02
7.938926e-01	1.052632e+00	2.684922e-02
8.530689e-01	1.052632e+00	2.001042e-02
9.045085e-01	1.052632e+00	1.371900e-02
9.448927e-01	1.052632e+00	8.480770e-03
9.755282e-01	1.052632e+00	4.357670e-03
9.931674e-01	1.052632e+00	1.906185e-03
1.000000e+00	1.052632e+00	9.443596e-04
1.000000e+00	2.105263e+00	9.443596e-04
9.931674e-01	2.105263e+00	-1.746539e-05
9.755282e-01	2.105263e+00	-2.468950e-03
9.448927e-01	2.105263e+00	-6.592050e-03
9.045085e-01	2.105263e+00	-1.183028e-02
8.530689e-01	2.105263e+00	-1.812170e-02
7.938926e-01	2.105263e+00	-2.496050e-02
7.266841e-01	2.105263e+00	-3.209684e-02
6.545085e-01	2.105263e+00	-3.914837e-02
5.781101e-01	2.105263e+00	-4.565986e-02
5.000000e-01	2.105263e+00	-5.136589e-02
4.218900e-01	2.105263e+00	-5.557297e-02
3.454915e-01	2.105263e+00	-5.819504e-02
2.733158e-01	2.105263e+00	-5.842495e-02
2.061074e-01	2.105263e+00	-5.651007e-02
1.469312e-01	2.105263e+00	-5.181953e-02
9.549150e-02	2.105263e+00	-4.498425e-02
5.510729e-02	2.105263e+00	-3.575319e-02
2.447174e-02	2.105263e+00	-2.491812e-02
6.832625e-03	2.105263e+00	-1.248913e-02
0.000000e+00	2.105263e+00	9.443596e-04
6.832625e-03	2.105263e+00	1.437784e-02
2.447174e-02	2.105263e+00	2.680684e-02
5.510728e-02	2.105263e+00	3.764191e-02
9.549150e-02	2.105263e+00	4.687297e-02
1.469312e-01	2.105263e+00	5.370824e-02
2.061074e-01	2.105263e+00	5.839880e-02
2.733158e-01	2.105263e+00	6.031367e-02
3.454915e-01	2.105263e+00	6.008376e-02
4.218900e-01	2.105263e+00	5.746169e-02
5.000000e-01	2.105263e+00	5.325461e-02
5.781101e-01	2.105263e+00	4.754857e-02
6.545085e-01	2.105263e+00	4.103709e-02
7.266841e-01	2.105263e+00	3.398556e-02
7.938926e-01	2.105263e+00	2.684922e-02
8.530689e-01	2.105263e+00	2.001042e-02
9.045085e-01	2.105263e+00	1.371900e-02
9.448927e-01	2.105263e+00	8.480770e-03
9.755282e-01	2.105263e+00	4.357670e-03
9.931674e-01	2.105263e+00	1.906185e-03
1.000000e+00	2.105263e+00	9.443596e-04
1.000000e+00	3.157895e+00	9.443596e-04
9.931674e-01	3.157895e+00	-1.746539e-05
9.755282e-01	3.157895e+00	-2.468950e-03
9.448927e-01	3.157895e+00	-6.592050e-03
9.045085e-01	3.157895e+00	-1.183028e-02
8.530689e-01	3.157895e+00	-1.812170e-02
7.938926e-01	3.157895e+00	-2.496050e-02
7.266842e-01	3.157895e+00	-3.209684e-02
6.545085e-01	3.157895e+00	-3.914837e-02
5.781101e-01	3.157895e+00	-4.565986e-02
5.000000e-01	3.157895e+00	-5.136589e-02
4.218900e-01	3.157895e+00	-5.557297e-02
3.454915e-01	3.157895e+00	-5.819504e-02
2.733158e-01	3.157895e+00	-5.842495e-02
2.061074e-01	3.157895e+00	-5.651007e-02
1.469312e-01	3.157895e+00	-5.181953e-02
9.549150e-02	3.157895e+00	-4.498425e-02
5.510729e-02	3.157895e+00	-3.575319e-02
2.447174e-02	3.157895e+00	-2.491812e-02
6.832625e-03	3.157895e+00	-1.248913e-02
0.000000e+00	3.157895e+00	9.443596e-04
6.832625e-03	3.157895e+00	1.437784e-02
2.447174e-02	3.157895e+00	2.680684e-02
5.510728e-02	3.157895e+00	3.764191e-02
9.549150e-02	3.157895e+00	4.687297e-02
1.469312e-01	3.157895e+00	5.370824e-02
2.061074e-01	3.157895e+00	5.839880e-02
2.733158e-01	3.157895e+00	6.031367e-02
3.454915e-01	3.157895e+00	6.008376e-02
4.218900e-01	3.157895e+00	5.746169e-02
5.000000e-01	3.157895e+00	5.325461e-02
5.781101e-01	3.157895e+00	4.754857e-02
6.545085e-01	3.157895e+00	4.103709e-02
7.266842e-01	3.157895e+00	3.398556e-02
7.938926e-01	3.157895e+00	2.684922e-02
8.530689e-01	3.157895e+00	2.001042e-02
9.045085e-01	3.157895e+00	1.371900e-02
9.448927e-01	3.157895e+00	8.480770e-03
9.755282e-01	3.157895e+00	4.357670e-03
9.931674e-01	3.157895e+00	1.906185e-03
1.000000e+00	3.157895e+00	9.443596e-04
1.000000e+00	4.210526e+00	9.443596e-04
9.931674e-01	4.210526e+00	-1.746539e-05
9.755282e-01	4.210526e+00	-2.468950e-03
9.448927e-01	4.210526e+00	-6.592050e-03
9.045085e-01	4.210526e+00	-1.183028e-02
8.530689e-01	4.210526e+00	-1.812170e-02
7.938926e-01	4.210526e+00	-2.496050e-02
7.266841e-01	4.210526e+00	-3.209684e-02
6.545085e-01	4.210526e+00	-3.914837e-02
5.781101e-01	4.210526e+00	-4.565986e-02
5.000000e-01	4.210526e+00	-5.136589e-02
4.218900e-01	4.210526e+00	-5.557297e-02
3.454915e-01	4.210526e+00	-5.819504e-02
2.733158e-01	4.210526e+00	-5.842495e-02
2.061074e-01	4.210526e+00	-5.651007e-02
1.469311e-01	4.210526e+00	-5.181953e-02
9.549150e-02	4.210526e+00	-4.498425e-02
5.510729e-02	4.210526e+00	-3.575319e-02
2.447174e-02	4.210526e+00	-2.491812e-02
6.832625e-03	4.210526e+00	-1.248913e-02
0.000000e+00	4.210526e+00	9.443596e-04
6.832625e-03	4.210526e+00	1.437784e-02
2.447174e-02	4.210526e+00	2.680684e-02
5.510728e-02	4.210526e+00	3.764191e-02
9.549150e-02	4.210526e+00	4.687297e-02
1.469311e-01	4.210526e+00	5.370824e-02
2.061074e-01	4.210526e+00	5.839880e-02
2.733158e-01	4.210526e+00	6.031367e-02
3.454915e-01	4.210526e+00	6.008376e-02
4.218900e-01	4.210526e+00	5.746169e-02
5.000000e-01	4.210526e+00	5.325461e-02
5.781101e-01	4.210526e+00	4.754857e-02
6.545085e-01	4.210526e+00	4.103709e-02
7.266841e-01	4.210526e+00	3.398556e-02
7.938926e-01	4.210526e+00	2.684922e-02
8.530689e-01	4.210526e+00	2.001042e-02
9.045085e-01	4.210526e+00	1.371900e-02
9.448927e-01	4.210526e+00	8.480770e-03
9.755282e-01	4.210526e+00	4.357670e-03
9.931674e-01	4.210526e+00	1.906185e-03
1.000000e+00	4.210526e+00	9.443596e-04
1.000000e+00	5.263158e+00	9.443596e-04
9.931674e-01	5.263158e+00	-1.746539e-05
9.755282e-01	5.263158e+00	-2.468950e-03
9.448927e-01	5.263158e+00	-6.592050e-03
9.045085e-01	5.263158e+00	-1.183028e-02
8.530689e-01	5.263158e+00	-1.812170e-02
7.938926e-01	5.263158e+00	-2.496050e-02
7.266842e-01	5.263158e+00	-3.209684e-02
6.545085e-01	5.263158e+00	-3.914837e-02
5.781101e-01	5.263158e+00	-4.565986e-02
5.000000e-01	5.263158e+00	-5.136589e-02
4.218900e-01	5.263158e+00	-5.557297e-02
3.454915e-01	5.263158e+00	-5.819504e-02
2.733158e-01	5.263158e+00	-5.842495e-02
2.061074e-01	5.263158e+00	-5.651007e-02
1.469311e-01	5.263158e+00	-5.181953e-02
9.549150e-02	5.263158e+00	-4.498425e-02
5.510729e-02	5.263158e+00	-3.575319e-02
2.447174e-02	5.263158e+00	-2.491812e-02
6.832625e-03	5.263158e+00	-1.248913e-02
0.000000e+00	5.263158e+00	9.443596e-04
6.832625e-03	5.263158e+00	1.437784e-02
2.447174e-02	5.263158e+00	2.680684e-02
5.510728e-02	5.263158e+00	3.764191e-02
9.549150e-02	5.263158e+00	4.687297e-02
1.469311e-01	5.263158e+00	5.370824e-02
2.061074e-01	5.263158e+00	5.839880e-02
2.733158e-01	5.263158e+00	6.031367e-02
3.454915e-01	5.263158e+00	6.008376e-02
4.218900e-01	5.263158e+00	5.746169e-02
5.000000e-01	5.263158e+00	5.325461e-02
5.781101e-01	5.263158e+00	4.754857e-02
6.545085e-01	5.263158e+00	4.103709e-02
7.266842e-01	5.263158e+00	3.398556e-02
7.938926e-01	5.263158e+00	2.684922e-02
8.530689e-01	5.263158e+00	2.001042e-02
9.045085e-01	5.263158e+00	1.371900e-02
9.448927e-01	5.263158e+00	8.480770e-03
9.755282e-01	5.263158e+00	4.357670e-03
9.931674e-01	5.263158e+00	1.906185e-03
1.000000e+00	5.263158e+00	9.443596e-04
1.000000e+00	6.315789e+00	9.443596e-04
9.931673e-01	6.315789e+00	-1.746539e-05
9.755282e-01	6.315789e+00	-2.468950e-03
9.448927e-01	6.315789e+00	-6.592050e-03
[...]
CELL_DATA 760
VECTORS V double
2.449860e-01	1.159509e-03	3.448642e-02
2.730087e-01	1.206519e-03	3.794268e-02
2.980773e-01	1.269487e-03	4.011695e-02
3.180354e-01	1.329982e-03	4.125234e-02
3.331080e-01	1.378045e-03	4.074138e-02
3.467522e-01	1.403222e-03	4.007298e-02
3.576577e-01	1.394714e-03	3.797687e-02
3.684997e-01	1.342338e-03	3.600226e-02
3.783032e-01	1.239402e-03	3.224300e-02
3.887109e-01	1.084577e-03	2.839581e-02
3.988900e-01	8.834851e-04	2.148460e-02
4.095432e-01	6.485699e-04	1.405592e-02
4.200217e-01	3.960179e-04	1.337947e-03
4.299951e-01	1.444159e-04	-1.225127e-02
4.413237e-01	-9.270738e-05	-3.498107e-02
4.460543e-01	-3.041906e-04	-5.927147e-02
4.429903e-01	-4.891461e-04	-1.012591e-01
4.306127e-01	-6.459608e-04	-1.522976e-01
3.572725e-01	-7.838947e-04	-2.517438e-01
1.443425e-01	-9.007538e-04	-2.837889e-01
4.235964e-02	-1.014309e-03	8.328243e-02
2.455798e-01	-1.093085e-03	1.730421e-01
3.474101e-01	-1.150641e-03	1.228708e-01
3.829331e-01	-1.178827e-03	8.753119e-02
4.026199e-01	-1.171593e-03	5.349993e-02
4.099525e-01	-1.121925e-03	3.249453e-02
4.084136e-01	-1.025521e-03	1.163632e-02
4.062105e-01	-8.846281e-04	-1.293952e-03
4.026242e-01	-7.062718e-04	-1.381845e-02
3.979526e-01	-5.037315e-04	-2.143411e-02
3.935592e-01	-2.915945e-04	-2.874998e-02
3.887531e-01	-8.426250e-05	-3.313366e-02
3.849261e-01	1.074432e-04	-3.760712e-02
3.805861e-01	2.773940e-04	-4.041146e-02
3.773495e-01	4.240442e-04	-4.360901e-02
3.731186e-01	5.493792e-04	-4.563495e-02
3.706657e-01	6.571190e-04	-4.807900e-02
3.688959e-01	7.505058e-04	-4.964811e-02
3.708907e-01	8.309835e-04	-5.154631e-02
3.780636e-01	8.908040e-04	-5.321962e-02
2.410196e-01	6.743330e-04	3.392808e-02
2.700534e-01	7.012946e-04	3.753195e-02
2.960197e-01	7.368269e-04	3.984002e-02
3.166968e-01	7.701811e-04	4.107870e-02
3.323854e-01	7.958184e-04	4.065300e-02
3.466261e-01	8.080916e-04	4.005841e-02
3.581501e-01	8.013115e-04	3.802916e-02
3.696350e-01	7.701558e-04	3.611318e-02
3.800869e-01	7.112054e-04	3.239503e-02
3.911114e-01	6.238517e-04	2.857116e-02
4.018341e-01	5.111301e-04	2.164317e-02
4.129218e-01	3.796533e-04	1.417187e-02
4.237040e-01	2.379902e-04	1.349677e-03
4.338596e-01	9.608019e-05	-1.236138e-02
4.452827e-01	-3.879110e-05	-3.529488e-02
4.500961e-01	-1.603582e-04	-5.980855e-02
4.471791e-01	-2.679015e-04	-1.022166e-01
4.351526e-01	-3.600311e-04	-1.539032e-01
3.621491e-01	-4.416437e-04	-2.551800e-01
1.480241e-01	-5.109537e-04	-2.910272e-01
3.939160e-02	-5.781366e-04	7.744703e-02
2.430956e-01	-6.244715e-04	1.712917e-01
3.461748e-01	-6.581492e-04	1.224339e-01
3.827287e-01	-6.747436e-04	8.748448e-02
4.032346e-01	-6.712040e-04	5.358161e-02
4.112633e-01	-6.439032e-04	3.259844e-02
4.103043e-01	-5.906498e-04	1.169019e-02
4.085509e-01	-5.127005e-04	-1.301408e-03
4.052694e-01	-4.137562e-04	-1.390924e-02
4.007543e-01	-3.008350e-04	-2.158502e-02
3.963866e-01	-1.816572e-04	-2.895652e-02
3.915060e-01	-6.395503e-05	-3.336829e-02
3.875479e-01	4.632136e-05	-3.786326e-02
3.830691e-01	1.456012e-04	-4.067512e-02
3.797359e-01	2.326692e-04	-4.388480e-02
3.755032e-01	3.081844e-04	-4.592660e-02
3.732054e-01	3.737531e-04	-4.840842e-02
3.718457e-01	4.307725e-04	-5.004511e-02
3.746633e-01	4.797026e-04	-5.207062e-02
3.831108e-01	5.157418e-04	-5.393010e-02
2.404364e-01	1.236664e-04	3.384598e-02
2.696584e-01	1.280258e-04	3.747706e-02
2.957863e-01	1.330512e-04	3.980861e-02
3.165836e-01	1.367775e-04	4.106402e-02
3.323628e-01	1.385077e-04	4.065023e-02
3.466783e-01	1.377319e-04	4.006444e-02
3.582691e-01	1.341142e-04	3.804179e-02
3.698163e-01	1.273935e-04	3.613089e-02
3.803278e-01	1.175026e-04	3.241556e-02
3.914096e-01	1.045280e-04	2.859295e-02
4.021878e-01	8.875683e-05	2.166222e-02
4.133293e-01	7.067774e-05	1.418586e-02
4.241637e-01	5.087646e-05	1.351141e-03
4.343714e-01	3.015378e-05	-1.237596e-02
4.458484e-01	9.153440e-06	-3.533972e-02
4.507237e-01	-1.125921e-05	-5.989194e-02
4.478818e-01	-3.072999e-05	-1.023772e-01
4.359618e-01	-4.849162e-05	-1.541894e-01
3.630482e-01	-6.486598e-05	-2.558135e-01
1.487053e-01	-7.893609e-05	-2.923664e-01
3.885784e-02	-9.233786e-05	7.639761e-02
2.426655e-01	-1.012156e-04	1.709886e-01
3.459609e-01	-1.073892e-04	1.223582e-01
3.826730e-01	-1.104261e-04	8.747173e-02
4.032875e-01	-1.103081e-04	5.358865e-02
4.113985e-01	-1.069080e-04	3.260915e-02
4.105044e-01	-1.001945e-04	1.169589e-02
4.088042e-01	-9.035666e-05	-1.302214e-03
4.055670e-01	-7.764212e-05	-1.391945e-02
4.010890e-01	-6.253502e-05	-2.160304e-02
3.967524e-01	-4.557056e-05	-2.898325e-02
3.918983e-01	-2.741299e-05	-3.340172e-02
3.879637e-01	-8.735333e-06	-3.790389e-02
3.835079e-01	9.825481e-06	-4.072171e-02
3.802012e-01	2.770230e-05	-4.393857e-02
3.760041e-01	4.445448e-05	-4.598787e-02
3.737610e-01	5.973157e-05	-4.848049e-02
3.724924e-01	7.321628e-05	-5.013215e-02
3.754667e-01	8.454393e-05	-5.218228e-02
3.841450e-01	9.250211e-05	-5.407569e-02
2.402840e-01	4.146676e-05	3.382453e-02
2.695607e-01	4.269601e-05	3.746348e-02
2.957352e-01	4.399995e-05	3.980172e-02
3.165666e-01	4.477965e-05	4.106181e-02
3.323707e-01	4.484695e-05	4.065120e-02
3.467061e-01	4.408306e-05	4.006766e-02
3.583140e-01	4.243160e-05	3.804657e-02
3.698768e-01	3.985620e-05	3.613680e-02
3.804030e-01	3.637230e-05	3.242197e-02
3.914990e-01	3.202654e-05	2.859949e-02
4.022912e-01	2.690945e-05	2.166779e-02
4.134467e-01	2.115668e-05	1.418989e-02
4.242955e-01	1.492012e-05	1.351561e-03
4.345182e-01	8.413243e-06	-1.238014e-02
4.460117e-01	1.803933e-06	-3.535266e-02
4.509063e-01	-4.656241e-06	-5.991620e-02
4.480879e-01	-1.085732e-05	-1.024243e-01
4.362002e-01	-1.653838e-05	-1.542737e-01
3.633128e-01	-2.177331e-05	-2.560000e-01
1.489035e-01	-2.623695e-05	-2.927562e-01
3.870674e-02	-3.040510e-05	7.610054e-02
2.425499e-01	-3.306151e-05	1.709072e-01
3.459093e-01	-3.477617e-05	1.223400e-01
3.826668e-01	-3.543991e-05	8.747032e-02
4.033117e-01	-3.506558e-05	5.359186e-02
4.114450e-01	-3.365149e-05	3.261283e-02
4.105680e-01	-3.121474e-05	1.169770e-02
4.088816e-01	-2.783985e-05	-1.302461e-03
4.056560e-01	-2.361376e-05	-1.392250e-02
4.011878e-01	-1.868659e-05	-2.160836e-02
3.968599e-01	-1.321016e-05	-2.899110e-02
3.920138e-01	-7.368348e-06	-3.341156e-02
3.880868e-01	-1.345898e-06	-3.791592e-02
3.836392e-01	4.676710e-06	-4.073565e-02
3.803418e-01	1.052508e-05	-4.395482e-02
3.761568e-01	1.604815e-05	-4.600654e-02
3.739309e-01	2.110651e-05	-4.850253e-02
3.726896e-01	2.556554e-05	-5.015869e-02
3.757094e-01	2.927732e-05	-5.221601e-02
3.844537e-01	3.184302e-05	-5.411914e-02
2.402289e-01	1.878632e-05	3.381678e-02
2.695271e-01	1.925705e-05	3.745882e-02
2.957200e-01	1.971642e-05	3.979967e-02
3.165647e-01	1.991763e-05	4.106157e-02
3.323785e-01	1.978803e-05	4.065215e-02
3.467215e-01	1.928611e-05	4.006943e-02
3.583358e-01	1.839847e-05	3.804888e-02
3.699044e-01	1.711966e-05	3.613950e-02
3.804360e-01	1.546520e-05	3.242478e-02
3.915373e-01	1.346112e-05	2.860228e-02
4.023346e-01	1.114906e-05	2.167013e-02
4.134955e-01	8.586832e-06	1.419156e-02
4.243497e-01	5.836293e-06	1.351734e-03
4.345784e-01	2.984783e-06	-1.238186e-02
4.460784e-01	9.981934e-08	-3.535795e-02
4.509808e-01	-2.712577e-06	-5.992611e-02
4.481718e-01	-5.405056e-06	-1.024435e-01
4.362969e-01	-7.861738e-06	-1.543079e-01
3.634192e-01	-1.010943e-05	-2.560750e-01
1.489821e-01	-1.200281e-05	-2.929106e-01
3.864876e-02	-1.373165e-05	7.598655e-02
2.425082e-01	-1.478807e-05	1.708778e-01
3.458935e-01	-1.541034e-05	1.223344e-01
3.826689e-01	-1.556085e-05	8.747079e-02
4.033257e-01	-1.524740e-05	5.359371e-02
4.114674e-01	-1.448023e-05	3.261461e-02
4.105969e-01	-1.327354e-05	1.169852e-02
4.089156e-01	-1.167244e-05	-1.302569e-03
4.056942e-01	-9.718867e-06	-1.392381e-02
4.012296e-01	-7.480430e-06	-2.161061e-02
3.969050e-01	-5.021795e-06	-2.899440e-02
3.920618e-01	-2.419548e-06	-3.341566e-02
3.881380e-01	2.504623e-07	-3.792091e-02
3.836936e-01	2.913731e-06	-4.074143e-02
3.804001e-01	5.496104e-06	-4.396156e-02
3.762200e-01	7.931232e-06	-4.601427e-02
3.740011e-01	1.015486e-05	-4.851163e-02
3.727705e-01	1.210423e-05	-5.016958e-02
3.758081e-01	1.371154e-05	-5.222972e-02
3.845779e-01	1.480788e-05	-5.413663e-02
2.402046e-01	1.018998e-05	3.381335e-02
2.695131e-01	1.040459e-05	3.745687e-02
2.957147e-01	1.059370e-05	3.979897e-02
3.165658e-01	1.063561e-05	4.106172e-02
3.323842e-01	1.049617e-05	4.065286e-02
3.467308e-01	1.015744e-05	4.007051e-02
3.583482e-01	9.616276e-06	3.805019e-02
3.699194e-01	8.873385e-06	3.614097e-02
3.804535e-01	7.940022e-06	3.242628e-02
3.915572e-01	6.832068e-06	2.860374e-02
4.023570e-01	5.572646e-06	2.167134e-02
4.135204e-01	4.192487e-06	1.419242e-02
4.243773e-01	2.723553e-06	1.351821e-03
4.346088e-01	1.210856e-06	-1.238272e-02
4.461120e-01	-3.112094e-07	-3.536061e-02
4.510181e-01	-1.787569e-06	-5.993106e-02
4.482136e-01	-3.193374e-06	-1.024531e-01
4.363447e-01	-4.467396e-06	-1.543248e-01
3.634714e-01	-5.622030e-06	-2.561117e-01
1.490199e-01	-6.581055e-06	-2.929850e-01
3.862172e-02	-7.435529e-06	7.593338e-02
2.424901e-01	-7.933594e-06	1.708650e-01
3.458880e-01	-8.194328e-06	1.223324e-01
3.826720e-01	-8.202869e-06	8.747152e-02
4.033345e-01	-7.963625e-06	5.359488e-02
4.114802e-01	-7.486432e-06	3.261562e-02
4.106127e-01	-6.781094e-06	1.169897e-02
4.089337e-01	-5.874614e-06	-1.302627e-03
4.057142e-01	-4.790666e-06	-1.392450e-02
4.012513e-01	-3.566067e-06	-2.161178e-02
3.969281e-01	-2.234838e-06	-2.899609e-02
3.920864e-01	-8.366769e-07	-3.341776e-02
3.881640e-01	5.895411e-07	-3.792346e-02
3.837212e-01	2.005666e-06	-4.074436e-02
3.804295e-01	3.373234e-06	-4.396496e-02
3.762519e-01	4.657493e-06	-4.601817e-02
3.740362e-01	5.824080e-06	-4.851619e-02
3.728108e-01	6.839628e-06	-5.017500e-02
3.758567e-01	7.668635e-06	-5.223648e-02
3.846387e-01	8.226852e-06	-5.414518e-02
2.401927e-01	6.196958e-06	3.381168e-02
2.695068e-01	6.302117e-06	3.745600e-02
2.957132e-01	6.380892e-06	3.979876e-02
3.165677e-01	6.367398e-06	4.106196e-02
3.323886e-01	6.244094e-06	4.065339e-02
3.467371e-01	6.002672e-06	4.007124e-02
3.583561e-01	5.643330e-06	3.805103e-02
3.699287e-01	5.168267e-06	3.614188e-02
3.804641e-01	4.585539e-06	3.242718e-02
3.915692e-01	3.905470e-06	2.860461e-02
4.023703e-01	3.142197e-06	2.167205e-02
4.135350e-01	2.313949e-06	1.419292e-02
4.243933e-01	1.439315e-06	1.351872e-03
4.346263e-01	5.444461e-07	-1.238322e-02
4.461312e-01	-3.507959e-07	-3.536213e-02
4.510394e-01	-1.214202e-06	-5.993389e-02
4.482372e-01	-2.030991e-06	-1.024585e-01
4.363715e-01	-2.765030e-06	-1.543343e-01
3.635003e-01	-3.422535e-06	-2.561321e-01
1.490405e-01	-3.959250e-06	-2.930254e-01
3.860764e-02	-4.423010e-06	7.590570e-02
2.424815e-01	-4.676876e-06	1.708590e-01
3.458865e-01	-4.786657e-06	1.223319e-01
3.826752e-01	-4.746980e-06	8.747223e-02
4.033406e-01	-4.560666e-06	5.359570e-02
4.114884e-01	-4.236200e-06	3.261628e-02
4.106225e-01	-3.780579e-06	1.169925e-02
4.089448e-01	-3.211362e-06	-1.302662e-03
4.057262e-01	-2.543136e-06	-1.392491e-02
4.012641e-01	-1.798046e-06	-2.161247e-02
3.969418e-01	-9.959846e-07	-2.899708e-02
3.921008e-01	-1.599616e-07	-3.341898e-02
3.881791e-01	6.876671e-07	-3.792493e-02
3.837372e-01	1.524971e-06	-4.074605e-02
3.804465e-01	2.329624e-06	-4.396692e-02
3.762700e-01	3.081371e-06	-4.602039e-02
3.740561e-01	3.759909e-06	-4.851878e-02
3.728334e-01	4.345765e-06	-5.017805e-02
3.758838e-01	4.818599e-06	-5.224024e-02
3.846721e-01	5.132400e-06	-5.414989e-02
2.401869e-01	3.826534e-06	3.381085e-02
2.695041e-01	3.901992e-06	3.745562e-02
2.957131e-01	3.985379e-06	3.979876e-02
3.165696e-01	4.045597e-06	4.106221e-02
3.323919e-01	4.076843e-06	4.065379e-02
3.467414e-01	4.072746e-06	4.007174e-02
3.583613e-01	4.020970e-06	3.805159e-02
3.699348e-01	3.899249e-06	3.614247e-02
3.804709e-01	3.682388e-06	3.242776e-02
3.915767e-01	3.352596e-06	2.860516e-02
4.023785e-01	2.911576e-06	2.167250e-02
4.135440e-01	2.384627e-06	1.419323e-02
4.244031e-01	1.811185e-06	1.351904e-03
4.346371e-01	1.234552e-06	-1.238353e-02
4.461429e-01	6.810299e-07	-3.536306e-02
4.510523e-01	1.694402e-07	-5.993560e-02
4.482515e-01	-3.002298e-07	-1.024617e-01
4.363875e-01	-7.157141e-07	-1.543400e-01
3.635173e-01	-1.085063e-06	-2.561441e-01
1.490522e-01	-1.384484e-06	-2.930485e-01
3.860002e-02	-1.639879e-06	7.589072e-02
2.424775e-01	-1.775748e-06	1.708562e-01
3.458866e-01	-1.828626e-06	1.223319e-01
3.826779e-01	-1.794906e-06	8.747287e-02
4.033451e-01	-1.671482e-06	5.359629e-02
4.114940e-01	-1.455486e-06	3.261672e-02
4.106289e-01	-1.142752e-06	1.169944e-02
4.089519e-01	-7.442464e-07	-1.302685e-03
4.057338e-01	-2.835625e-07	-1.392518e-02
4.012722e-01	1.980442e-07	-2.161291e-02
3.969502e-01	6.603535e-07	-2.899770e-02
3.921096e-01	1.075467e-06	-3.341974e-02
3.881884e-01	1.437274e-06	-3.792584e-02
3.837469e-01	1.757348e-06	-4.074708e-02
3.804568e-01	2.053205e-06	-4.396811e-02
3.762811e-01	2.337316e-06	-4.602174e-02
3.740681e-01	2.611036e-06	-4.852034e-02
3.728469e-01	2.865461e-06	-5.017986e-02
3.758997e-01	3.085507e-06	-5.224246e-02
3.846916e-01	3.240600e-06	-5.415264e-02
2.401800e-01	-3.333517e-04	3.380989e-02
2.694986e-01	-3.339079e-04	3.745485e-02
2.957085e-01	-3.357402e-04	3.979813e-02
3.165655e-01	-3.322819e-04	4.106168e-02
3.323881e-01	-3.217849e-04	4.065333e-02
3.467381e-01	-3.337250e-04	4.007135e-02
3.583588e-01	-2.806959e-04	3.805132e-02
3.699336e-01	-3.037645e-04	3.614236e-02
3.804717e-01	-2.173995e-04	3.242783e-02
3.915796e-01	-2.500000e-04	2.860537e-02
4.023833e-01	-1.314360e-04	2.167276e-02
4.135502e-01	-1.713437e-04	1.419344e-02
4.244101e-01	-2.807914e-05	1.351926e-03
4.346442e-01	-7.450252e-05	-1.238373e-02
4.461500e-01	8.735458e-05	-3.536362e-02
4.510593e-01	1.896019e-04	-5.993654e-02
4.482589e-01	2.370181e-04	-1.024634e-01
4.363957e-01	2.191826e-04	-1.543429e-01
3.635260e-01	2.104172e-04	-2.561502e-01
1.490584e-01	2.068708e-04	-2.930607e-01
3.859584e-02	2.067555e-04	7.588250e-02
2.424750e-01	2.101055e-04	1.708544e-01
3.458863e-01	2.186803e-04	1.223318e-01
3.826792e-01	2.363438e-04	8.747316e-02
4.033477e-01	1.887728e-04	5.359663e-02
4.114978e-01	8.639259e-05	3.261702e-02
4.106338e-01	-7.557206e-05	1.169958e-02
4.089573e-01	-2.922874e-05	-1.302702e-03
4.057393e-01	-1.725443e-04	-1.392536e-02
4.012769e-01	-1.326573e-04	-2.161316e-02
3.969536e-01	-2.512131e-04	-2.899795e-02
3.921115e-01	-2.185751e-04	-3.341989e-02
3.881890e-01	-3.048768e-04	-3.792590e-02
3.837468e-01	-2.817198e-04	-4.074707e-02
3.804566e-01	-3.346404e-04	-4.396809e-02
3.762814e-01	-3.225744e-04	-4.602178e-02
3.740694e-01	-3.329344e-04	-4.852050e-02
3.728495e-01	-3.362500e-04	-5.018021e-02
3.759041e-01	-3.342797e-04	-5.224307e-02
3.846983e-01	-3.336185e-04	-5.415358e-02
2.402807e-01	-6.356000e-16	3.382407e-02
2.696481e-01	-2.261840e-16	3.747563e-02
2.956250e-01	-6.398480e-17	3.978690e-02
3.161979e-01	-8.541954e-17	4.101399e-02
3.324633e-01	-4.689633e-17	4.066253e-02
3.459492e-01	-9.468087e-19	3.998018e-02
3.579507e-01	-1.096340e-16	3.800798e-02
3.689690e-01	-4.195840e-17	3.604812e-02
3.797609e-01	-1.051623e-17	3.236725e-02
3.904078e-01	-5.490152e-18	2.851977e-02
4.013029e-01	4.981670e-17	2.161456e-02
4.121611e-01	6.887109e-17	1.414577e-02
4.229000e-01	6.161052e-18	1.347116e-03
4.329732e-01	5.302129e-17	-1.233612e-02
4.414309e-01	1.573159e-17	-3.498957e-02
4.479203e-01	4.376174e-17	-5.951943e-02
4.473491e-01	9.185012e-17	-1.022555e-01
4.372430e-01	-5.943045e-17	-1.546425e-01
3.640209e-01	-1.259256e-16	-2.564989e-01
1.491881e-01	5.631691e-17	-2.933158e-01
3.872252e-02	8.477579e-17	7.613156e-02
2.429666e-01	1.176228e-16	1.712008e-01
3.467312e-01	4.905197e-17	1.226306e-01
3.817677e-01	-4.954623e-17	8.726480e-02
4.002073e-01	-6.105752e-17	5.317935e-02
4.067778e-01	2.308579e-17	3.224289e-02
4.089621e-01	-4.841054e-17	1.165195e-02
4.074468e-01	2.236315e-17	-1.297891e-03
4.043500e-01	-2.765470e-17	-1.387768e-02
4.001964e-01	-1.667840e-17	-2.155496e-02
3.957820e-01	5.206606e-18	-2.891236e-02
3.914010e-01	3.834554e-17	-3.335934e-02
3.872249e-01	3.813616e-17	-3.783170e-02
3.833393e-01	1.998856e-17	-4.070381e-02
3.796686e-01	6.525697e-17	-4.387702e-02
3.763578e-01	4.777066e-17	-4.603113e-02
3.737034e-01	6.507047e-17	-4.847303e-02
3.727683e-01	4.998513e-17	-5.016927e-02
3.760567e-01	9.446237e-17	-5.226428e-02
3.848032e-01	6.408438e-16	-5.416834e-02
2.401800e-01	3.333517e-04	3.380989e-02
2.694986e-01	3.339079e-04	3.745485e-02
2.957085e-01	3.357402e-04	3.979813e-02
3.165655e-01	3.322819e-04	4.106168e-02
3.323881e-01	3.217849e-04	4.065333e-02
3.467381e-01	3.337250e-04	4.007135e-02
3.583588e-01	2.806959e-04	3.805132e-02
3.699336e-01	3.037645e-04	3.614236e-02
3.804717e-01	2.173995e-04	3.242783e-02
3.915796e-01	2.500000e-04	2.860537e-02
4.023833e-01	1.314360e-04	2.167276e-02
4.135502e-01	1.713437e-04	1.419344e-02
4.244101e-01	2.807914e-05	1.351926e-03
4.346442e-01	7.450252e-05	-1.238373e-02
4.461500e-01	-8.735458e-05	-3.536362e-02
4.510593e-01	-1.896019e-04	-5.993654e-02
4.482589e-01	-2.370181e-04	-1.024634e-01
4.363957e-01	-2.191826e-04	-1.543429e-01
3.635260e-01	-2.104172e-04	-2.561502e-01
1.490584e-01	-2.068708e-04	-2.930607e-01
3.859584e-02	-2.067555e-04	7.588250e-02
2.424750e-01	-2.101055e-04	1.708544e-01
3.458863e-01	-2.186803e-04	1.223318e-01
3.826792e-01	-2.363438e-04	8.747316e-02
4.033477e-01	-1.887728e-04	5.359663e-02
4.114978e-01	-8.639259e-05	3.261702e-02
4.106338e-01	7.557206e-05	1.169958e-02
4.089573e-01	2.922874e-05	-1.302702e-03
4.057393e-01	1.725443e-04	-1.392536e-02
4.012769e-01	1.326573e-04	-2.161316e-02
3.969536e-01	2.512131e-04	-2.899795e-02
3.921115e-01	2.185751e-04	-3.341989e-02
3.881890e-01	3.048768e-04	-3.792590e-02
3.837468e-01	2.817198e-04	-4.074707e-02
3.804566e-01	3.346404e-04	-4.396809e-02
3.762814e-01	3.225744e-04	-4.602178e-02
3.740694e-01	3.329344e-04	-4.852050e-02
3.728495e-01	3.362500e-04	-5.018021e-02
3.759041e-01	3.342797e-04	-5.224307e-02
3.846983e-01	3.336185e-04	-5.415358e-02
2.401869e-01	-3.826534e-06	3.381085e-02
2.695041e-01	-3.901992e-06	3.745562e-02
2.957131e-01	-3.985379e-06	3.979876e-02
3.165696e-01	-4.045597e-06	4.106221e-02
3.323919e-01	-4.076843e-06	4.065379e-02
3.467414e-01	-4.072746e-06	4.007174e-02
3.583613e-01	-4.020970e-06	3.805159e-02
3.699348e-01	-3.899249e-06	3.614247e-02
3.804709e-01	-3.682388e-06	3.242776e-02
3.915767e-01	-3.352596e-06	2.860516e-02
4.023785e-01	-2.911576e-06	2.167250e-02
4.135440e-01	-2.384627e-06	1.419323e-02
4.244031e-01	-1.811185e-06	1.351904e-03
4.346371e-01	-1.234552e-06	-1.238353e-02
4.461429e-01	-6.810299e-07	-3.536306e-02
4.510523e-01	-1.694402e-07	-5.993560e-02
4.482515e-01	3.002298e-07	-1.024617e-01
4.363875e-01	7.157141e-07	-1.543400e-01
3.635173e-01	1.085063e-06	-2.561441e-01
1.490522e-01	1.384484e-06	-2.930485e-01
3.860002e-02	1.639879e-06	7.589072e-02
2.424775e-01	1.775748e-06	1.708562e-01
3.458866e-01	1.828626e-06	1.223319e-01
3.826779e-01	1.794906e-06	8.747287e-02
4.033451e-01	1.671482e-06	5.359629e-02
4.114940e-01	1.455486e-06	3.261672e-02
4.106289e-01	1.142752e-06	1.169944e-02
4.089519e-01	7.442464e-07	-1.302685e-03
4.057338e-01	2.835625e-07	-1.392518e-02
4.012722e-01	-1.980442e-07	-2.161291e-02
3.969502e-01	-6.603535e-07	-2.899770e-02
3.921096e-01	-1.075467e-06	-3.341974e-02
3.881884e-01	-1.437274e-06	-3.792584e-02
3.837469e-01	-1.757348e-06	-4.074708e-02
3.804568e-01	-2.053205e-06	-4.396811e-02
3.762811e-01	-2.337316e-06	-4.602174e-02
3.740681e-01	-2.611036e-06	-4.852034e-02
3.728469e-01	-2.865461e-06	-5.017986e-02
3.758997e-01	-3.085507e-06	-5.224246e-02
3.846916e-01	-3.240600e-06	-5.415264e-02
2.401927e-01	-6.196958e-06	3.381168e-02
2.695068e-01	-6.302117e-06	3.745600e-02
2.957132e-01	-6.380892e-06	3.979876e-02
3.165677e-01	-6.367398e-06	4.106196e-02
3.323886e-01	-6.244094e-06	4.065339e-02
3.467371e-01	-6.002672e-06	4.007124e-02
3.583561e-01	-5.643330e-06	3.805103e-02
3.699287e-01	-5.168267e-06	3.614188e-02
3.804641e-01	-4.585539e-06	3.242718e-02
3.915692e-01	-3.905470e-06	2.860461e-02
4.023703e-01	-3.142197e-06	2.167205e-02
4.135350e-01	-2.313949e-06	1.419292e-02
4.243933e-01	-1.439315e-06	1.351872e-03
4.346263e-01	-5.444461e-07	-1.238322e-02
4.461312e-01	3.507959e-07	-3.536213e-02
4.510394e-01	1.214202e-06	-5.993389e-02
4.482372e-01	2.030991e-06	-1.024585e-01
4.363715e-01	2.765030e-06	-1.543343e-01
3.635003e-01	3.422535e-06	-2.561321e-01