# vtk DataFile Version 2.0
OUTPUT by 3D-VPM
ASCII
DATASET UNSTRUCTURED_GRID
POINTS 820 double
9.510565e-01	0.000000e+00	-3.090170e-01
9.442611e-01	0.000000e+00	-3.078203e-01
9.267277e-01	0.000000e+00	-3.047010e-01
8.963175e-01	0.000000e+00	-2.991555e-01
8.562911e-01	0.000000e+00	-2.916579e-01
8.054250e-01	0.000000e+00	-2.817457e-01
7.470317e-01	0.000000e+00	-2.699633e-01
6.809074e-01	0.000000e+00	-2.559818e-01
6.100852e-01	0.000000e+00	-2.403847e-01
5.354138e-01	0.000000e+00	-2.229691e-01
4.593635e-01	0.000000e+00	-2.042585e-01
3.837764e-01	0.000000e+00	-1.841224e-01
3.103069e-01	0.000000e+00	-1.630077e-01
2.415927e-01	0.000000e+00	-1.409228e-01
1.782654e-01	0.000000e+00	-1.183331e-01
1.234349e-01	0.000000e+00	-9.558566e-02
7.662509e-02	0.000000e+00	-7.318920e-02
4.106998e-02	0.000000e+00	-5.193053e-02
1.528206e-02	0.000000e+00	-3.215886e-02
2.347037e-03	0.000000e+00	-1.488740e-02
0.000000e+00	0.000000e+00	0.000000e+00
1.064939e-02	0.000000e+00	1.066461e-02
3.126595e-02	0.000000e+00	1.703450e-02
6.375031e-02	0.000000e+00	1.787236e-02
1.050105e-01	0.000000e+00	1.417221e-02
1.560448e-01	0.000000e+00	4.777214e-03
2.137742e-01	0.000000e+00	-9.048270e-03
2.782849e-01	0.000000e+00	-2.799567e-02
3.468570e-01	0.000000e+00	-5.051783e-02
4.187060e-01	0.000000e+00	-7.662000e-02
4.916930e-01	0.000000e+00	-1.047585e-01
5.642168e-01	0.000000e+00	-1.343226e-01
6.348639e-01	0.000000e+00	-1.641238e-01
7.013280e-01	0.000000e+00	-1.931337e-01
7.630418e-01	0.000000e+00	-2.206893e-01
8.172084e-01	0.000000e+00	-2.454799e-01
8.641863e-01	0.000000e+00	-2.673591e-01
9.009752e-01	0.000000e+00	-2.848204e-01
9.288372e-01	0.000000e+00	-2.982085e-01
9.448555e-01	0.000000e+00	-3.059908e-01
9.510565e-01	0.000000e+00	-3.090170e-01
9.510565e-01	1.052632e+00	-3.090170e-01
9.442611e-01	1.052632e+00	-3.078203e-01
9.267277e-01	1.052632e+00	-3.047010e-01
8.963175e-01	1.052632e+00	-2.991555e-01
8.562911e-01	1.052632e+00	-2.916579e-01
8.054250e-01	1.052632e+00	-2.817457e-01
7.470317e-01	1.052632e+00	-2.699633e-01
6.809074e-01	1.052632e+00	-2.559818e-01
6.100852e-01	1.052632e+00	-2.403847e-01
5.354138e-01	1.052632e+00	-2.229691e-01
4.593635e-01	1.052632e+00	-2.042585e-01
3.837764e-01	1.052632e+00	-1.841224e-01
3.103069e-01	1.052632e+00	-1.630077e-01
2.415927e-01	1.052632e+00	-1.409228e-01
1.782654e-01	1.052632e+00	-1.183331e-01
1.234349e-01	1.052632e+00	-9.558566e-02
7.662509e-02	1.052632e+00	-7.318920e-02
4.106998e-02	1.052632e+00	-5.193053e-02
1.528206e-02	1.052632e+00	-3.215886e-02
2.347037e-03	1.052632e+00	-1.488740e-02
0.000000e+00	1.052632e+00	0.000000e+00
1.064939e-02	1.052632e+00	1.066461e-02
3.126595e-02	1.052632e+00	1.703450e-02
6.375031e-02	1.052632e+00	1.787236e-02
1.050105e-01	1.052632e+00	1.417221e-02
1.560448e-01	1.052632e+00	4.777214e-03
2.137742e-01	1.052632e+00	-9.048270e-03
2.782849e-01	1.052632e+00	-2.799567e-02
3.468570e-01	1.052632e+00	-5.051783e-02
4.187060e-01	1.052632e+00	-7.662000e-02
4.916930e-01	1.052632e+00	-1.047585e-01
5.642168e-01	1.052632e+00	-1.343226e-01
6.348639e-01	1.052632e+00	-1.641238e-01
7.013280e-01	1.052632e+00	-1.931337e-01
7.630418e-01	1.052632e+00	-2.206893e-01
8.172084e-01	1.052632e+00	-2.454799e-01
8.641863e-01	1.052632e+00	-2.673591e-01
9.009752e-01	1.052632e+00	-2.848204e-01
9.288372e-01	1.052632e+00	-2.982085e-01
9.448555e-01	1.052632e+00	-3.059908e-01
9.510565e-01	1.052632e+00	-3.090170e-01
9.510565e-01	2.105263e+00	-3.090170e-01
9.442611e-01	2.105263e+00	-3.078203e-01
9.267277e-01	2.105263e+00	-3.047010e-01
8.963175e-01	2.105263e+00	-2.991555e-01
8.562911e-01	2.105263e+00	-2.916579e-01
8.054250e-01	2.105263e+00	-2.817457e-01
7.470317e-01	2.105263e+00	-2.699633e-01
6.809074e-01	2.105263e+00	-2.559818e-01
6.100852e-01	2.105263e+00	-2.403847e-01
5.354138e-01	2.105263e+00	-2.229691e-01
4.593635e-01	2.105263e+00	-2.042585e-01
3.837764e-01	2.105263e+00	-1.841224e-01
3.103069e-01	2.105263e+00	-1.630077e-01
2.415927e-01	2.105263e+00	-1.409228e-01
1.782654e-01	2.105263e+00	-1.183331e-01
1.234349e-01	2.105263e+00	-9.558566e-02
7.662509e-02	2.105263e+00	-7.318920e-02
4.106998e-02	2.105263e+00	-5.193053e-02
1.528206e-02	2.105263e+00	-3.215886e-02
2.347037e-03	2.105263e+00	-1.488740e-02
0.000000e+00	2.105263e+00	0.000000e+00
1.064939e-02	2.105263e+00	1.066461e-02
3.126595e-02	2.105263e+00	1.703450e-02
6.375031e-02	2.105263e+00	1.787236e-02
1.050105e-01	2.105263e+00	1.417221e-02
1.560448e-01	2.105263e+00	4.777214e-03
2.137742e-01	2.105263e+00	-9.048270e-03
2.782849e-01	2.105263e+00	-2.799567e-02
3.468570e-01	2.105263e+00	-5.051783e-02
4.187060e-01	2.105263e+00	-7.662000e-02
4.916930e-01	2.105263e+00	-1.047585e-01
5.642168e-01	2.105263e+00	-1.343226e-01
6.348639e-01	2.105263e+00	-1.641238e-01
7.013280e-01	2.105263e+00	-1.931337e-01
7.630418e-01	2.105263e+00	-2.206893e-01
8.172084e-01	2.105263e+00	-2.454799e-01
8.641863e-01	2.105263e+00	-2.673591e-01
9.009752e-01	2.105263e+00	-2.848204e-01
9.288372e-01	2.105263e+00	-2.982085e-01
9.448555e-01	2.105263e+00	-3.059908e-01
9.510565e-01	2.105263e+00	-3.090170e-01
9.510565e-01	3.157895e+00	-3.090170e-01
9.442611e-01	3.157895e+00	-3.078203e-01
9.267277e-01	3.157895e+00	-3.047010e-01
8.963175e-01	3.157895e+00	-2.991555e-01
8.562911e-01	3.157895e+00	-2.916579e-01
8.054250e-01	3.157895e+00	-2.817457e-01
7.470317e-01	3.157895e+00	-2.699633e-01
6.809074e-01	3.157895e+00	-2.559818e-01
6.100852e-01	3.157895e+00	-2.403847e-01
5.354138e-01	3.157895e+00	-2.229691e-01
4.593635e-01	3.157895e+00	-2.042585e-01
3.837764e-01	3.157895e+00	-1.841224e-01
3.103069e-01	3.157895e+00	-1.630077e-01
2.415927e-01	3.157895e+00	-1.409228e-01
1.782654e-01	3.157895e+00	-1.183331e-01
1.234349e-01	3.157895e+00	-9.558566e-02
7.662509e-02	3.157895e+00	-7.318920e-02
4.106998e-02	3.157895e+00	-5.193053e-02
1.528206e-02	3.157895e+00	-3.215886e-02
2.347037e-03	3.157895e+00	-1.488740e-02
0.000000e+00	3.157895e+00	0.000000e+00
1.064939e-02	3.157895e+00	1.066461e-02
3.126595e-02	3.157895e+00	1.703450e-02
6.375031e-02	3.157895e+00	1.787236e-02
1.050105e-01	3.157895e+00	1.417221e-02
1.560448e-01	3.157895e+00	4.777214e-03
2.137742e-01	3.157895e+00	-9.048270e-03
2.782849e-01	3.157895e+00	-2.799567e-02
3.468570e-01	3.157895e+00	-5.051783e-02
4.187060e-01	3.157895e+00	-7.662000e-02
4.916930e-01	3.157895e+00	-1.047585e-01
5.642168e-01	3.157895e+00	-1.343226e-01
6.348639e-01	3.157895e+00	-1.641238e-01
7.013280e-01	3.157895e+00	-1.931337e-01
7.630418e-01	3.157895e+00	-2.206893e-01
8.172084e-01	3.157895e+00	-2.454799e-01
8.641863e-01	3.157895e+00	-2.673591e-01
9.009752e-01	3.157895e+00	-2.848204e-01
9.288372e-01	3.157895e+00	-2.982085e-01
9.448555e-01	3.157895e+00	-3.059908e-01
9.510565e-01	3.157895e+00	-3.090170e-01
9.510565e-01	4.210526e+00	-3.090170e-01
9.442611e-01	4.210526e+00	-3.078203e-01
9.267277e-01	4.210526e+00	-3.047010e-01
8.963175e-01	4.210526e+00	-2.991555e-01
8.562911e-01	4.210526e+00	-2.916579e-01
8.054250e-01	4.210526e+00	-2.817457e-01
7.470317e-01	4.210526e+00	-2.699633e-01
6.809074e-01	4.210526e+00	-2.559818e-01
6.100852e-01	4.210526e+00	-2.403847e-01
5.354138e-01	4.210526e+00	-2.229691e-01
4.593635e-01	4.210526e+00	-2.042585e-01
3.837764e-01	4.210526e+00	-1.841224e-01
3.103069e-01	4.210526e+00	-1.630077e-01
2.415927e-01	4.210526e+00	-1.409228e-01
1.782654e-01	4.210526e+00	-1.183331e-01
1.234349e-01	4.210526e+00	-9.558566e-02
7.662509e-02	4.210526e+00	-7.318920e-02
4.106998e-02	4.210526e+00	-5.193053e-02
1.528206e-02	4.210526e+00	-3.215886e-02
2.347037e-03	4.210526e+00	-1.488740e-02
0.000000e+00	4.210526e+00	0.000000e+00
1.064939e-02	4.210526e+00	1.066461e-02
3.126595e-02	4.210526e+00	1.703450e-02
6.375031e-02	4.210526e+00	1.787236e-02
1.050105e-01	4.210526e+00	1.417221e-02
1.560448e-01	4.210526e+00	4.777214e-03
2.137742e-01	4.210526e+00	-9.048270e-03
2.782849e-01	4.210526e+00	-2.799567e-02
3.468570e-01	4.210526e+00	-5.051783e-02
4.187060e-01	4.210526e+00	-7.662000e-02
4.916930e-01	4.210526e+00	-1.047585e-01
5.642168e-01	4.210526e+00	-1.343226e-01
6.348639e-01	4.210526e+00	-1.641238e-01
7.013280e-01	4.210526e+00	-1.931337e-01
7.630418e-01	4.210526e+00	-2.206893e-01
8.172084e-01	4.210526e+00	-2.454799e-01
8.641863e-01	4.210526e+00	-2.673591e-01
9.009752e-01	4.210526e+00	-2.848204e-01
9.288372e-01	4.210526e+00	-2.982085e-01
9.448555e-01	4.210526e+00	-3.059908e-01
9.510565e-01	4.210526e+00	-3.090170e-01
9.510565e-01	5.263158e+00	-3.090170e-01
9.442611e-01	5.263158e+00	-3.078203e-01
9.267277e-01	5.263158e+00	-3.047010e-01
8.963175e-01	5.263158e+00	-2.991555e-01
8.562911e-01	5.263158e+00	-2.916579e-01
8.054250e-01	5.263158e+00	-2.817457e-01
7.470317e-01	5.263158e+00	-2.699633e-01
6.809074e-01	5.263158e+00	-2.559818e-01
6.100852e-01	5.263158e+00	-2.403847e-01
5.354138e-01	5.263158e+00	-2.229691e-01
4.593635e-01	5.263158e+00	-2.042585e-01
3.837764e-01	5.263158e+00	-1.841224e-01
3.103069e-01	5.263158e+00	-1.630077e-01
2.415927e-01	5.263158e+00	-1.409228e-01
1.782654e-01	5.263158e+00	-1.183331e-01
1.234349e-01	5.263158e+00	-9.558566e-02
7.662509e-02	5.263158e+00	-7.318920e-02
4.106998e-02	5.263158e+00	-5.193053e-02
1.528206e-02	5.263158e+00	-3.215886e-02
2.347037e-03	5.263158e+00	-1.488740e-02
0.000000e+00	5.263158e+00	0.000000e+00
1.064939e-02	5.263158e+00	1.066461e-02
3.126595e-02	5.263158e+00	1.703450e-02
6.375031e-02	5.263158e+00	1.787236e-02
1.050105e-01	5.263158e+00	1.417221e-02
1.560448e-01	5.263158e+00	4.777214e-03
2.137742e-01	5.263158e+00	-9.048270e-03
2.782849e-01	5.263158e+00	-2.799567e-02
3.468570e-01	5.263158e+00	-5.051783e-02
4.187060e-01	5.263158e+00	-7.662000e-02
4.916930e-01	5.263158e+00	-1.047585e-01
5.642168e-01	5.263158e+00	-1.343226e-01
6.348639e-01	5.263158e+00	-1.641238e-01
7.013280e-01	5.263158e+00	-1.931337e-01
7.630418e-01	5.263158e+00	-2.206893e-01
8.172084e-01	5.263158e+00	-2.454799e-01
8.641863e-01	5.263158e+00	-2.673591e-01
9.009752e-01	5.263158e+00	-2.848204e-01
9.288372e-01	5.263158e+00	-2.982085e-01
9.448555e-01	5.263158e+00	-3.059908e-01
9.510565e-01	5.263158e+00	-3.090170e-01
9.510565e-01	6.315789e+00	-3.090170e-01
9.442611e-01	6.315789e+00	-3.078203e-01
[...]
CELL_DATA 760
VECTORS V double
8.414400e-01	-6.901138e-02	-1.481745e-01
8.655654e-01	-6.883783e-02	-1.539894e-01
8.835861e-01	-6.838819e-02	-1.611303e-01
8.953588e-01	-6.759400e-02	-1.677144e-01
8.978312e-01	-6.643339e-02	-1.749593e-01
8.991517e-01	-6.488874e-02	-1.814276e-01
8.921222e-01	-6.294974e-02	-1.886326e-01
8.848202e-01	-6.059239e-02	-1.948631e-01
8.704954e-01	-5.778829e-02	-2.030259e-01
8.548085e-01	-5.450482e-02	-2.103075e-01
8.295771e-01	-5.072531e-02	-2.209966e-01
7.987329e-01	-4.640886e-02	-2.295509e-01
7.513399e-01	-4.161518e-02	-2.414818e-01
6.893373e-01	-3.638664e-02	-2.458960e-01
6.027138e-01	-3.076119e-02	-2.500469e-01
4.720738e-01	-2.486151e-02	-2.258669e-01
2.704102e-01	-1.869555e-02	-1.616803e-01
-1.709576e-02	-1.242924e-02	1.310737e-02
-4.214484e-01	-5.864043e-03	5.627381e-01
-3.425450e-01	7.140412e-04	2.172784e+00
2.326388e+00	8.424409e-03	2.329712e+00
2.541185e+00	1.518687e-02	7.851487e-01
2.210200e+00	2.213082e-02	5.700708e-02
1.925275e+00	2.897608e-02	-1.726555e-01
1.719997e+00	3.596359e-02	-3.166377e-01
1.570261e+00	4.292828e-02	-3.760581e-01
1.435441e+00	4.986449e-02	-4.216021e-01
1.336646e+00	5.659379e-02	-4.390149e-01
1.250569e+00	6.299815e-02	-4.543217e-01
1.181653e+00	6.887934e-02	-4.555598e-01
1.121844e+00	7.412069e-02	-4.573162e-01
1.071596e+00	7.858627e-02	-4.520338e-01
1.027461e+00	8.221455e-02	-4.484611e-01
9.871917e-01	8.499767e-02	-4.407877e-01
9.499749e-01	8.698694e-02	-4.347768e-01
9.115269e-01	8.828025e-02	-4.245298e-01
8.743633e-01	8.900587e-02	-4.150018e-01
8.341919e-01	8.931280e-02	-4.008444e-01
7.910658e-01	8.935660e-02	-3.843303e-01
7.483161e-01	8.931089e-02	-3.651854e-01
8.268772e-01	-4.833058e-02	-1.456100e-01
8.473712e-01	-4.820631e-02	-1.507526e-01
8.618410e-01	-4.788790e-02	-1.571649e-01
8.705353e-01	-4.732427e-02	-1.630646e-01
8.702955e-01	-4.649280e-02	-1.695935e-01
8.689210e-01	-4.537467e-02	-1.753277e-01
8.589324e-01	-4.395923e-02	-1.816149e-01
8.480744e-01	-4.223149e-02	-1.867706e-01
8.294168e-01	-4.017668e-02	-1.934451e-01
8.084431e-01	-3.777962e-02	-1.989003e-01
7.766733e-01	-3.501509e-02	-2.069032e-01
7.380331e-01	-3.191978e-02	-2.121062e-01
6.817503e-01	-2.848482e-02	-2.191156e-01
6.087269e-01	-2.476077e-02	-2.171412e-01
5.089614e-01	-2.077357e-02	-2.111520e-01
3.610060e-01	-1.660621e-02	-1.727257e-01
1.376545e-01	-1.226046e-02	-8.230464e-02
-1.811497e-01	-7.849651e-03	1.388880e-01
-6.028089e-01	-3.233954e-03	8.048993e-01
-4.196822e-01	1.383807e-03	2.662070e+00
2.681772e+00	6.781983e-03	2.685605e+00
2.843510e+00	1.149633e-02	8.785579e-01
2.432856e+00	1.630877e-02	6.274998e-02
2.097054e+00	2.101647e-02	-1.880603e-01
1.860275e+00	2.577810e-02	-3.424618e-01
1.689485e+00	3.047402e-02	-4.046107e-01
1.538936e+00	3.509844e-02	-4.519995e-01
1.427706e+00	3.953327e-02	-4.689230e-01
1.330637e+00	4.370674e-02	-4.834095e-01
1.251838e+00	4.751100e-02	-4.826179e-01
1.182614e+00	5.083519e-02	-4.820889e-01
1.123294e+00	5.365104e-02	-4.738416e-01
1.070358e+00	5.590922e-02	-4.671844e-01
1.021714e+00	5.761407e-02	-4.562023e-01
9.765702e-01	5.880680e-02	-4.469487e-01
9.307469e-01	5.955822e-02	-4.334812e-01
8.867418e-01	5.995669e-02	-4.208770e-01
8.402904e-01	6.010296e-02	-4.037749e-01
7.917032e-01	6.009929e-02	-3.846400e-01
7.448161e-01	6.005598e-02	-3.634773e-01
8.205852e-01	-2.040979e-02	-1.445020e-01
8.397499e-01	-2.035862e-02	-1.493967e-01
8.527401e-01	-2.022770e-02	-1.555053e-01
8.599068e-01	-1.999184e-02	-1.610737e-01
8.581247e-01	-1.963344e-02	-1.672217e-01
8.551677e-01	-1.913585e-02	-1.725526e-01
8.435546e-01	-1.848934e-02	-1.783634e-01
8.309623e-01	-1.768858e-02	-1.830021e-01
8.104156e-01	-1.670652e-02	-1.890134e-01
7.870410e-01	-1.559267e-02	-1.936347e-01
7.529893e-01	-1.431486e-02	-2.005938e-01
7.117113e-01	-1.290583e-02	-2.045414e-01
6.519125e-01	-1.134995e-02	-2.095257e-01
5.747839e-01	-9.683316e-03	-2.050333e-01
4.700310e-01	-7.915998e-03	-1.950010e-01
3.153268e-01	-6.080442e-03	-1.508702e-01
8.338561e-02	-4.173373e-03	-4.985687e-02
-2.479298e-01	-2.242690e-03	1.900885e-01
-6.763079e-01	-2.275430e-04	9.030386e-01
-4.507141e-01	1.780175e-03	2.858907e+00
2.822833e+00	4.108631e-03	2.826866e+00
2.961201e+00	6.116051e-03	9.149209e-01
2.517456e+00	8.128979e-03	6.493204e-02
2.160334e+00	1.005231e-02	-1.937352e-01
1.910084e+00	1.194229e-02	-3.516312e-01
1.730078e+00	1.374537e-02	-4.143324e-01
1.572622e+00	1.545698e-02	-4.618934e-01
1.455993e+00	1.703655e-02	-4.782137e-01
1.354546e+00	1.846663e-02	-4.920958e-01
1.271611e+00	1.973283e-02	-4.902410e-01
1.198725e+00	2.079844e-02	-4.886562e-01
1.136423e+00	2.165806e-02	-4.793796e-01
1.080505e+00	2.229447e-02	-4.716133e-01
1.029134e+00	2.276571e-02	-4.595152e-01
9.815084e-01	2.306762e-02	-4.492088e-01
9.334713e-01	2.323220e-02	-4.347500e-01
8.875152e-01	2.329466e-02	-4.212441e-01
8.393999e-01	2.329247e-02	-4.033469e-01
7.894809e-01	2.326136e-02	-3.835603e-01
7.416845e-01	2.323522e-02	-3.619491e-01
8.182893e-01	-1.022141e-02	-1.440977e-01
8.367537e-01	-1.020037e-02	-1.488636e-01
8.489955e-01	-1.014410e-02	-1.548224e-01
8.554073e-01	-1.003831e-02	-1.602309e-01
8.528372e-01	-9.873162e-03	-1.661914e-01
8.490422e-01	-9.625369e-03	-1.713167e-01
8.365618e-01	-9.312730e-03	-1.768848e-01
8.226775e-01	-8.915312e-03	-1.811775e-01
8.011392e-01	-8.442011e-03	-1.868499e-01
7.770430e-01	-7.878055e-03	-1.911750e-01
7.415548e-01	-7.238407e-03	-1.975477e-01
6.985211e-01	-6.500564e-03	-2.007507e-01
6.369861e-01	-5.694906e-03	-2.047284e-01
5.577025e-01	-4.819345e-03	-1.989401e-01
4.503272e-01	-3.885287e-03	-1.868265e-01
2.920839e-01	-2.909843e-03	-1.397495e-01
5.567472e-02	-1.896283e-03	-3.328833e-02
-2.820772e-01	-8.625762e-04	2.162694e-01
-7.138940e-01	2.037839e-04	9.532254e-01
-4.665445e-01	1.279439e-03	2.959320e+00
2.894387e+00	2.521489e-03	2.898523e+00
3.020436e+00	3.599603e-03	9.332225e-01
2.559656e+00	4.657603e-03	6.602049e-02
2.191553e+00	5.659672e-03	-1.965349e-01
1.934393e+00	6.638422e-03	-3.561063e-01
1.749680e+00	7.557876e-03	-4.190269e-01
1.588726e+00	8.421766e-03	-4.666236e-01
1.469406e+00	9.211152e-03	-4.826193e-01
1.365768e+00	9.926921e-03	-4.961726e-01
1.281261e+00	1.054587e-02	-4.939613e-01
1.206723e+00	1.108436e-02	-4.919168e-01
1.142422e+00	1.151570e-02	-4.819103e-01
1.085188e+00	1.185383e-02	-4.736573e-01
1.032928e+00	1.209203e-02	-4.612094e-01
9.841697e-01	1.225213e-02	-4.504267e-01
9.351353e-01	1.233317e-02	-4.355250e-01
8.883035e-01	1.237714e-02	-4.216183e-01
8.394447e-01	1.238734e-02	-4.033685e-01
7.889603e-01	1.238051e-02	-3.833074e-01
7.408138e-01	1.237185e-02	-3.615242e-01
8.170547e-01	-5.657184e-03	-1.438803e-01
8.352193e-01	-5.645435e-03	-1.485907e-01
8.470445e-01	-5.614575e-03	-1.544666e-01
8.529985e-01	-5.555150e-03	-1.597797e-01
8.496738e-01	-5.458921e-03	-1.655749e-01
8.454393e-01	-5.318554e-03	-1.705897e-01
8.325724e-01	-5.147018e-03	-1.760413e-01
8.185643e-01	-4.926999e-03	-1.802716e-01
7.964146e-01	-4.661746e-03	-1.857480e-01
7.712393e-01	-4.319858e-03	-1.897471e-01
7.349872e-01	-3.934965e-03	-1.957981e-01
6.911394e-01	-3.498865e-03	-1.986292e-01
6.285640e-01	-3.027387e-03	-2.020215e-01
5.478991e-01	-2.607035e-03	-1.954431e-01
4.389607e-01	-2.063751e-03	-1.821109e-01
2.786986e-01	-1.456448e-03	-1.333452e-01
3.967189e-02	-8.471067e-04	-2.372012e-02
-3.016966e-01	-2.276118e-04	2.313116e-01
-7.353814e-01	4.200883e-04	9.819164e-01
-4.757719e-01	1.064649e-03	3.017850e+00
2.936673e+00	1.807770e-03	2.940869e+00
3.054999e+00	2.442443e-03	9.439015e-01
2.583770e+00	3.070769e-03	6.664247e-02
2.209405e+00	3.661475e-03	-1.981358e-01
1.948154e+00	4.231018e-03	-3.586396e-01
1.760611e+00	4.754378e-03	-4.216447e-01
1.597627e+00	5.240062e-03	-4.692378e-01
1.476848e+00	5.783710e-03	-4.850635e-01
1.371933e+00	6.187737e-03	-4.984123e-01
1.286217e+00	6.525749e-03	-4.958720e-01
1.210869e+00	6.806218e-03	-4.936070e-01
1.146256e+00	7.036321e-03	-4.835275e-01
1.088227e+00	7.234422e-03	-4.749838e-01
1.034905e+00	7.377100e-03	-4.620918e-01
9.854453e-01	7.475388e-03	-4.510106e-01
9.358547e-01	7.523963e-03	-4.358601e-01
8.888482e-01	7.547342e-03	-4.218768e-01
8.396013e-01	7.553753e-03	-4.034438e-01
7.887871e-01	7.550590e-03	-3.832232e-01
7.403577e-01	7.545691e-03	-3.613016e-01
8.163175e-01	-3.308005e-03	-1.437505e-01
8.342619e-01	-3.301216e-03	-1.484203e-01
8.458163e-01	-3.283257e-03	-1.542426e-01
8.514300e-01	-3.248956e-03	-1.594859e-01
8.480012e-01	-3.216280e-03	-1.652490e-01
8.436336e-01	-3.129641e-03	-1.702253e-01
8.305044e-01	-3.007211e-03	-1.756040e-01
8.157665e-01	-2.859376e-03	-1.796555e-01
7.929379e-01	-2.672202e-03	-1.849371e-01
7.675016e-01	-2.437880e-03	-1.888275e-01
7.308248e-01	-2.196871e-03	-1.946893e-01
6.864237e-01	-1.969827e-03	-1.972739e-01
6.245612e-01	-1.654898e-03	-2.007350e-01
5.434521e-01	-1.435262e-03	-1.938568e-01
4.316465e-01	-1.069507e-03	-1.790765e-01
2.696443e-01	-6.909007e-04	-1.290131e-01
2.943151e-02	-2.946380e-04	-1.759732e-02
-3.144853e-01	1.003427e-04	2.411168e-01
-7.495820e-01	5.259447e-04	1.000878e+00
-4.815495e-01	9.343733e-04	3.054498e+00
2.961892e+00	1.405685e-03	2.966125e+00
3.075944e+00	1.793607e-03	9.503730e-01
2.598874e+00	2.191196e-03	6.703202e-02
2.220274e+00	2.562707e-03	-1.991105e-01
1.956291e+00	2.914065e-03	-3.601375e-01
1.766950e+00	3.241905e-03	-4.231626e-01
1.604371e+00	3.656762e-03	-4.712187e-01
1.482496e+00	3.915248e-03	-4.869185e-01
1.375431e+00	4.159890e-03	-4.996831e-01
1.289064e+00	4.380411e-03	-4.969699e-01
1.213117e+00	4.547726e-03	-4.945230e-01
1.147889e+00	4.656506e-03	-4.842165e-01
1.089752e+00	4.754658e-03	-4.756495e-01
1.036418e+00	4.834420e-03	-4.627673e-01
9.865690e-01	4.888190e-03	-4.515249e-01
9.365138e-01	4.961292e-03	-4.361670e-01
8.890319e-01	4.964034e-03	-4.219640e-01
8.395990e-01	4.962499e-03	-4.034426e-01
7.886111e-01	4.958761e-03	-3.831377e-01
7.400635e-01	4.955516e-03	-3.611580e-01
8.159153e-01	-2.043303e-03	-1.436797e-01
8.337708e-01	-2.039322e-03	-1.483330e-01
8.452054e-01	-2.029341e-03	-1.541312e-01
8.513423e-01	-2.011252e-03	-1.594695e-01
8.471761e-01	-1.982178e-03	-1.650882e-01
8.417970e-01	-2.027597e-03	-1.698548e-01
8.283974e-01	-1.936282e-03	-1.751585e-01
8.137896e-01	-1.798248e-03	-1.792201e-01
7.907225e-01	-1.695977e-03	-1.844204e-01
7.650003e-01	-1.552238e-03	-1.882121e-01
7.288666e-01	-1.394115e-03	-1.941676e-01
6.839331e-01	-1.222071e-03	-1.965582e-01
6.210878e-01	-1.021237e-03	-1.996186e-01
5.392936e-01	-7.409603e-04	-1.923734e-01
4.268454e-01	-5.054557e-04	-1.770847e-01
2.644337e-01	-2.979385e-04	-1.265201e-01
2.275454e-02	-5.375394e-05	-1.360511e-02
-3.226319e-01	1.689818e-04	2.473628e-01
-7.585001e-01	4.290173e-04	1.012786e+00
-4.852837e-01	6.861485e-04	3.078184e+00
2.978634e+00	9.814824e-04	2.982890e+00
3.089645e+00	1.231910e-03	9.546060e-01
2.608501e+00	1.472960e-03	6.728034e-02
2.227279e+00	1.731323e-03	-1.997387e-01
1.961772e+00	1.951514e-03	-3.611465e-01
1.773449e+00	2.165259e-03	-4.247192e-01
1.607719e+00	2.363709e-03	-4.722019e-01
1.483824e+00	2.465545e-03	-4.873547e-01
1.377995e+00	2.611113e-03	-5.006146e-01
1.291109e+00	2.748800e-03	-4.977581e-01
1.214329e+00	2.863542e-03	-4.950171e-01
1.148897e+00	2.956806e-03	-4.846415e-01
1.090606e+00	3.060254e-03	-4.760220e-01
1.036839e+00	3.132136e-03	-4.629556e-01
9.874524e-01	3.248328e-03	-4.519292e-01
9.373829e-01	3.236314e-03	-4.365718e-01
8.888881e-01	3.229180e-03	-4.218958e-01
8.394537e-01	3.225755e-03	-4.033728e-01
7.884543e-01	3.222350e-03	-3.830615e-01
7.398607e-01	3.220032e-03	-3.610591e-01
8.156494e-01	-1.105316e-03	-1.436329e-01
8.334497e-01	-1.102269e-03	-1.482758e-01
8.448327e-01	-1.092725e-03	-1.540633e-01
8.502254e-01	-1.099779e-03	-1.592603e-01
8.484680e-01	-1.051109e-03	-1.653399e-01
8.426873e-01	-1.034290e-03	-1.700344e-01
8.269427e-01	-9.991040e-04	-1.748509e-01
8.123701e-01	-9.751552e-04	-1.789075e-01
7.896121e-01	-9.863228e-04	-1.841614e-01
7.635388e-01	-9.093860e-04	-1.878525e-01
7.265092e-01	-8.091293e-04	-1.935396e-01
6.814573e-01	-6.884150e-04	-1.958466e-01
6.179061e-01	-5.769486e-04	-1.985960e-01
5.357451e-01	-3.429240e-04	-1.911076e-01
4.243984e-01	-2.527551e-04	-1.760695e-01
2.613717e-01	-1.247136e-04	-1.250550e-01
1.939700e-02	1.249511e-05	-1.159761e-02
-3.267227e-01	1.544875e-04	2.504992e-01
-7.638738e-01	3.038816e-04	1.019961e+00
-4.875252e-01	4.527503e-04	3.092402e+00
2.988615e+00	6.240860e-04	2.992886e+00
3.097483e+00	7.696397e-04	9.570277e-01
2.615110e+00	9.127179e-04	6.745081e-02
2.232035e+00	1.046326e-03	-2.001653e-01
1.965007e+00	1.173926e-03	-3.617420e-01
1.774004e+00	1.293784e-03	-4.248521e-01
1.608852e+00	1.320806e-03	-4.725347e-01
1.485949e+00	1.432431e-03	-4.880525e-01
1.379124e+00	1.539448e-03	-5.010248e-01
1.292250e+00	1.596044e-03	-4.981978e-01
1.215721e+00	1.659141e-03	-4.955848e-01
1.150395e+00	1.800019e-03	-4.852734e-01
1.092102e+00	1.816320e-03	-4.766751e-01
1.039086e+00	1.852520e-03	-4.639588e-01
9.883692e-01	1.856297e-03	-4.523487e-01
9.361501e-01	1.829654e-03	-4.359976e-01
8.887804e-01	1.838926e-03	-4.218446e-01
8.393910e-01	1.863867e-03	-4.033427e-01
7.883278e-01	1.861122e-03	-3.830001e-01
7.397084e-01	1.859695e-03	-3.609848e-01
8.154039e-01	-1.357815e-03	-1.435897e-01
8.330203e-01	-1.357929e-03	-1.481995e-01
8.452277e-01	-1.358830e-03	-1.541353e-01
8.501339e-01	-1.341633e-03	-1.592431e-01
8.459193e-01	-1.301099e-03	-1.648433e-01
8.408802e-01	-1.254624e-03	-1.696698e-01
8.274964e-01	-1.091749e-03	-1.749680e-01
8.136238e-01	-1.184417e-03	-1.791836e-01
7.898136e-01	-9.656418e-04	-1.842084e-01
7.626732e-01	-1.015580e-03	-1.876396e-01
7.259791e-01	-6.594482e-04	-1.933984e-01
6.808334e-01	-7.478023e-04	-1.956673e-01
6.163377e-01	-3.122506e-04	-1.980919e-01
5.343662e-01	-3.753886e-04	-1.906157e-01
4.233297e-01	8.350327e-05	-1.756261e-01
2.595557e-01	4.197280e-04	-1.241861e-01
1.679803e-02	6.108564e-04	-1.004367e-02
-3.300802e-01	6.556290e-04	2.530735e-01
-7.667361e-01	7.009489e-04	1.023783e+00
-4.887466e-01	7.603906e-04	3.100149e+00
2.994153e+00	8.395779e-04	2.998431e+00
3.102321e+00	9.162121e-04	9.585225e-01
2.617398e+00	1.010711e-03	6.750980e-02
2.233741e+00	1.090770e-03	-2.003182e-01
1.966735e+00	1.023189e-03	-3.620602e-01
1.775866e+00	8.033392e-04	-4.252981e-01
1.609883e+00	4.536113e-04	-4.728374e-01
1.486856e+00	6.159931e-04	-4.883506e-01
1.380117e+00	2.980227e-04	-5.013852e-01
1.292621e+00	4.268277e-04	-4.983409e-01
1.216877e+00	1.311129e-04	-4.960559e-01
1.150931e+00	2.807566e-04	-4.854996e-01
1.091297e+00	1.974663e-05	-4.763237e-01
1.037435e+00	7.498537e-05	-4.632218e-01
9.871191e-01	-1.294611e-04	-4.517766e-01
9.369990e-01	-7.393127e-05	-4.363930e-01
8.896227e-01	-9.093954e-05	-4.222444e-01
8.402895e-01	-9.753551e-05	-4.037744e-01
7.882397e-01	-9.262249e-05	-3.829573e-01
7.396422e-01	-9.156582e-05	-3.609524e-01
8.156685e-01	4.924187e-05	-1.436362e-01
8.335146e-01	3.173754e-05	-1.482874e-01
8.441770e-01	3.026241e-05	-1.539437e-01
8.487197e-01	5.178967e-05	-1.589782e-01
8.467086e-01	4.990753e-05	-1.649971e-01
8.389484e-01	4.963996e-05	-1.692800e-01
8.260535e-01	4.980455e-05	-1.746629e-01
8.104405e-01	5.410965e-05	-1.784826e-01
7.874059e-01	1.006727e-04	-1.836469e-01
7.594938e-01	8.442414e-05	-1.868573e-01
7.229731e-01	7.175487e-05	-1.925976e-01
6.769656e-01	6.806443e-05	-1.945557e-01
6.125055e-01	6.173860e-06	-1.968603e-01
5.302318e-01	7.851482e-06	-1.891409e-01
4.113137e-01	3.780667e-05	-1.706411e-01
2.514076e-01	4.379713e-06	-1.202877e-01
1.399053e-02	6.711255e-06	-8.365044e-03
-3.290328e-01	8.323690e-06	2.522704e-01
-7.666857e-01	8.629924e-06	1.023715e+00
-4.890052e-01	8.000395e-06	3.101790e+00
2.996334e+00	6.571462e-06	3.000616e+00
3.105173e+00	4.870869e-06	9.594036e-01
2.620679e+00	2.613791e-06	6.759444e-02
2.231919e+00	-5.878844e-07	-2.001548e-01
1.958956e+00	3.038027e-05	-3.606281e-01
1.764089e+00	2.512617e-05	-4.224776e-01
1.606388e+00	-1.044642e-05	-4.718109e-01
1.483576e+00	3.885932e-05	-4.872734e-01
1.376773e+00	2.318225e-05	-5.001706e-01
1.290110e+00	1.161985e-05	-4.973730e-01
1.213866e+00	3.530226e-06	-4.948283e-01
1.149074e+00	-7.837799e-05	-4.847165e-01
1.089227e+00	-3.782411e-05	-4.754205e-01
1.037125e+00	-3.740527e-05	-4.630833e-01
9.857150e-01	-3.535912e-05	-4.511340e-01
9.369894e-01	-3.478918e-05	-4.363885e-01
8.882120e-01	-3.334496e-05	-4.215749e-01
8.392732e-01	-5.548495e-05	-4.032861e-01
7.886648e-01	-5.432420e-05	-3.831638e-01
7.398702e-01	-3.688129e-05	-3.610637e-01
8.183416e-01	1.463995e-03	-1.441070e-01
8.337210e-01	1.464376e-03	-1.483241e-01
8.444162e-01	1.466278e-03	-1.539873e-01
8.497206e-01	1.451760e-03	-1.591657e-01
8.459595e-01	1.415378e-03	-1.648511e-01
8.408815e-01	1.461569e-03	-1.696700e-01
8.274246e-01	1.288610e-03	-1.749528e-01
8.128826e-01	1.349881e-03	-1.790204e-01
7.894212e-01	1.082252e-03	-1.841169e-01
7.630525e-01	1.128738e-03	-1.877329e-01
7.261937e-01	7.748957e-04	-1.934556e-01
6.816927e-01	7.847055e-04	-1.959143e-01
6.172033e-01	3.500020e-04	-1.983702e-01
5.339158e-01	4.372133e-04	-1.904550e-01
4.233196e-01	-5.721547e-05	-1.756219e-01
2.601875e-01	-3.941779e-04	-1.244884e-01
1.671194e-02	-5.874571e-04	-9.992192e-03
-3.301349e-01	-6.091116e-04	2.531153e-01
-7.667324e-01	-6.855326e-04	1.023778e+00
-4.887256e-01	-7.468185e-04	3.100016e+00
2.993995e+00	-8.303035e-04	2.998273e+00
3.102142e+00	-8.828817e-04	9.584672e-01
2.617216e+00	-9.785204e-04	6.750512e-02
2.234528e+00	-1.092787e-03	-2.003888e-01
1.967188e+00	-1.031137e-03	-3.621435e-01
1.775132e+00	-7.853137e-04	-4.251223e-01
1.610153e+00	-4.453966e-04	-4.729168e-01
1.487294e+00	-6.463428e-04	-4.884944e-01
1.379762e+00	-3.435271e-04	-5.012565e-01
1.292373e+00	-4.101212e-04	-4.982454e-01
1.215755e+00	-1.330763e-04	-4.955986e-01
1.150374e+00	-2.733937e-04	-4.852646e-01
1.091860e+00	-2.803473e-05	-4.765694e-01
1.037470e+00	-1.342670e-04	-4.632371e-01
9.871624e-01	-3.303387e-05	-4.517965e-01
9.370348e-01	-6.041297e-05	-4.364097e-01
8.892193e-01	-3.074585e-05	-4.220530e-01
8.395161e-01	-2.100546e-05	-4.034028e-01
7.888585e-01	-2.515795e-05	-3.832579e-01
7.423135e-01	-2.612747e-05	-3.622560e-01
8.156045e-01	1.190600e-03	-1.436250e-01
8.333728e-01	1.205218e-03	-1.482622e-01
8.446998e-01	1.197907e-03	-1.540390e-01
8.500513e-01	1.191996e-03	-1.592277e-01
8.463582e-01	1.080266e-03	-1.649288e-01
8.413816e-01	1.055151e-03	-1.697709e-01
8.275965e-01	9.802880e-04	-1.749892e-01
8.135175e-01	9.583917e-04	-1.791602e-01
7.903053e-01	9.294564e-04	-1.843231e-01
7.635537e-01	8.551523e-04	-1.878562e-01
7.274998e-01	7.707990e-04	-1.938035e-01
6.825149e-01	7.026753e-04	-1.961506e-01
6.175698e-01	6.238757e-04	-1.984879e-01
5.358728e-01	4.760732e-04	-1.911531e-01
4.250261e-01	3.424215e-04	-1.763299e-01
2.614227e-01	2.359291e-04	-1.250794e-01
1.901158e-02	8.810748e-05	-1.136716e-02
-3.267412e-01	-6.179538e-05	2.505134e-01
-7.627991e-01	-2.172419e-04	1.018526e+00
-4.874627e-01	-3.709683e-04	3.092006e+00
2.989844e+00	-5.472660e-04	2.994117e+00
3.098264e+00	-6.967644e-04	9.572691e-01
2.613796e+00	-8.433891e-04	6.741691e-02
2.231121e+00	-9.793427e-04	-2.000833e-01
1.965466e+00	-1.142821e-03	-3.618266e-01
1.774242e+00	-1.259824e-03	-4.249090e-01
1.608098e+00	-1.367424e-03	-4.723132e-01
1.485214e+00	-1.496918e-03	-4.878111e-01
1.379758e+00	-1.579799e-03	-5.012551e-01
1.292793e+00	-1.642317e-03	-4.984074e-01
1.215603e+00	-1.693360e-03	-4.955365e-01
1.150320e+00	-1.731247e-03	-4.852419e-01
1.091229e+00	-1.790379e-03	-4.762939e-01
1.036909e+00	-1.797905e-03	-4.629868e-01
9.870310e-01	-1.820969e-03	-4.517363e-01
9.369340e-01	-1.843100e-03	-4.363627e-01
8.891683e-01	-1.761251e-03	-4.220288e-01
8.395237e-01	-1.771876e-03	-4.034064e-01
7.883776e-01	-1.771699e-03	-3.830243e-01
7.397218e-01	-1.788150e-03	-3.609913e-01
8.158884e-01	1.715317e-03	-1.436750e-01
8.337140e-01	1.704409e-03	-1.483229e-01
8.448465e-01	1.580835e-03	-1.540658e-01
8.529730e-01	1.673489e-03	-1.597749e-01
8.485484e-01	1.700867e-03	-1.653556e-01
8.426604e-01	1.709934e-03	-1.700290e-01
8.288731e-01	1.668298e-03	-1.752591e-01
8.136076e-01	1.604345e-03	-1.791800e-01
7.908241e-01	1.532572e-03	-1.844441e-01
7.651355e-01	1.414549e-03	-1.882454e-01
7.281885e-01	1.270447e-03	-1.939870e-01
6.836498e-01	1.187858e-03	-1.964767e-01
6.203239e-01	9.832923e-04	-1.993731e-01
5.381140e-01	7.865594e-04	-1.919526e-01