# vtk DataFile Version 2.0
OUTPUT by 3D-VPM
ASCII
DATASET UNSTRUCTURED_GRID
POINTS 820 double
1.000000e+00	0.000000e+00	1.861232e-03
9.931674e-01	0.000000e+00	8.994069e-04
9.755282e-01	0.000000e+00	-1.552078e-03
9.448927e-01	0.000000e+00	-5.675178e-03
9.045085e-01	0.000000e+00	-1.091341e-02
8.530688e-01	0.000000e+00	-1.720483e-02
7.938926e-01	0.000000e+00	-2.404363e-02
7.266841e-01	0.000000e+00	-3.117997e-02
6.545085e-01	0.000000e+00	-3.823150e-02
5.781101e-01	0.000000e+00	-4.474298e-02
5.000000e-01	0.000000e+00	-5.044902e-02
4.218900e-01	0.000000e+00	-5.465610e-02
3.454915e-01	0.000000e+00	-5.727817e-02
2.733159e-01	0.000000e+00	-5.750808e-02
2.061074e-01	0.000000e+00	-5.559320e-02
1.469312e-01	0.000000e+00	-5.090265e-02
9.549150e-02	0.000000e+00	-4.406738e-02
5.510729e-02	0.000000e+00	-3.483632e-02
2.447174e-02	0.000000e+00	-2.400125e-02
6.832625e-03	0.000000e+00	-1.157225e-02
0.000000e+00	0.000000e+00	1.861232e-03
6.832625e-03	0.000000e+00	1.529472e-02
2.447174e-02	0.000000e+00	2.772371e-02
5.510728e-02	0.000000e+00	3.855878e-02
9.549150e-02	0.000000e+00	4.778984e-02
1.469312e-01	0.000000e+00	5.462512e-02
2.061074e-01	0.000000e+00	5.931567e-02
2.733159e-01	0.000000e+00	6.123054e-02
3.454915e-01	0.000000e+00	6.100063e-02
4.218900e-01	0.000000e+00	5.837856e-02
5.000000e-01	0.000000e+00	5.417148e-02
5.781101e-01	0.000000e+00	4.846545e-02
6.545085e-01	0.000000e+00	4.195396e-02
7.266841e-01	0.000000e+00	3.490243e-02
7.938926e-01	0.000000e+00	2.776609e-02
8.530688e-01	0.000000e+00	2.092729e-02
9.045085e-01	0.000000e+00	1.463587e-02
9.448927e-01	0.000000e+00	9.397642e-03
9.755282e-01	0.000000e+00	5.274542e-03
9.931674e-01	0.000000e+00	2.823057e-03
1.000000e+00	0.000000e+00	1.861232e-03
1.000000e+00	1.052632e+00	1.861232e-03
9.931674e-01	1.052632e+00	8.994069e-04
9.755282e-01	1.052632e+00	-1.552078e-03
9.448927e-01	1.052632e+00	-5.675178e-03
9.045085e-01	1.052632e+00	-1.091341e-02
8.530689e-01	1.052632e+00	-1.720483e-02
7.938926e-01	1.052632e+00	-2.404363e-02
7.266841e-01	1.052632e+00	-3.117997e-02
6.545085e-01	1.052632e+00	-3.823150e-02
5.781101e-01	1.052632e+00	-4.474298e-02
5.000000e-01	1.052632e+00	-5.044902e-02
4.218900e-01	1.052632e+00	-5.465610e-02
3.454915e-01	1.052632e+00	-5.727817e-02
2.733158e-01	1.052632e+00	-5.750808e-02
2.061074e-01	1.052632e+00	-5.559320e-02
1.469311e-01	1.052632e+00	-5.090265e-02
9.549150e-02	1.052632e+00	-4.406738e-02
5.510729e-02	1.052632e+00	-3.483632e-02
2.447174e-02	1.052632e+00	-2.400125e-02
6.832625e-03	1.052632e+00	-1.157225e-02
0.000000e+00	1.052632e+00	1.861232e-03
6.832625e-03	1.052632e+00	1.529472e-02
2.447174e-02	1.052632e+00	2.772371e-02
5.510728e-02	1.052632e+00	3.855878e-02
9.549150e-02	1.052632e+00	4.778984e-02
1.469311e-01	1.052632e+00	5.462512e-02
2.061074e-01	1.052632e+00	5.931567e-02
2.733158e-01	1.052632e+00	6.123054e-02
3.454915e-01	1.052632e+00	6.100063e-02
4.218900e-01	1.052632e+00	5.837856e-02
5.000000e-01	1.052632e+00	5.417148e-02
5.781101e-01	1.052632e+00	4.846545e-02
6.545085e-01	1.052632e+00	4.195396e-02
7.266841e-01	1.052632e+00	3.490243e-02
7.938926e-01	1.052632e+00	2.776609e-02
8.530689e-01	1.052632e+00	2.092729e-02
9.045085e-01	1.052632e+00	1.463587e-02
9.448927e-01	1.052632e+00	9.397642e-03
9.755282e-01	1.052632e+00	5.274542e-03
9.931674e-01	1.052632e+00	2.823057e-03
1.000000e+00	1.052632e+00	1.861232e-03
1.000000e+00	2.105263e+00	1.861232e-03
9.931674e-01	2.105263e+00	8.994069e-04
9.755282e-01	2.105263e+00	-1.552078e-03
9.448927e-01	2.105263e+00	-5.675178e-03
9.045085e-01	2.105263e+00	-1.091341e-02
8.530689e-01	2.105263e+00	-1.720483e-02
7.938926e-01	2.105263e+00	-2.404363e-02
7.266841e-01	2.105263e+00	-3.117997e-02
6.545085e-01	2.105263e+00	-3.823150e-02
5.781101e-01	2.105263e+00	-4.474298e-02
5.000000e-01	2.105263e+00	-5.044902e-02
4.218900e-01	2.105263e+00	-5.465610e-02
3.454915e-01	2.105263e+00	-5.727817e-02
2.733158e-01	2.105263e+00	-5.750808e-02
2.061074e-01	2.105263e+00	-5.559320e-02
1.469312e-01	2.105263e+00	-5.090265e-02
9.549150e-02	2.105263e+00	-4.406738e-02
5.510729e-02	2.105263e+00	-3.483632e-02
2.447174e-02	2.105263e+00	-2.400125e-02
6.832625e-03	2.105263e+00	-1.157225e-02
0.000000e+00	2.105263e+00	1.861232e-03
6.832625e-03	2.105263e+00	1.529472e-02
2.447174e-02	2.105263e+00	2.772371e-02
5.510728e-02	2.105263e+00	3.855878e-02
9.549150e-02	2.105263e+00	4.778984e-02
1.469312e-01	2.105263e+00	5.462512e-02
2.061074e-01	2.105263e+00	5.931567e-02
2.733158e-01	2.105263e+00	6.123054e-02
3.454915e-01	2.105263e+00	6.100063e-02
4.218900e-01	2.105263e+00	5.837856e-02
5.000000e-01	2.105263e+00	5.417148e-02
5.781101e-01	2.105263e+00	4.846545e-02
6.545085e-01	2.105263e+00	4.195396e-02
7.266841e-01	2.105263e+00	3.490243e-02
7.938926e-01	2.105263e+00	2.776609e-02
8.530689e-01	2.105263e+00	2.092729e-02
9.045085e-01	2.105263e+00	1.463587e-02
9.448927e-01	2.105263e+00	9.397642e-03
9.755282e-01	2.105263e+00	5.274542e-03
9.931674e-01	2.105263e+00	2.823057e-03
1.000000e+00	2.105263e+00	1.861232e-03
1.000000e+00	3.157895e+00	1.861232e-03
9.931674e-01	3.157895e+00	8.994069e-04
9.755282e-01	3.157895e+00	-1.552078e-03
9.448927e-01	3.157895e+00	-5.675178e-03
9.045085e-01	3.157895e+00	-1.091341e-02
8.530689e-01	3.157895e+00	-1.720483e-02
7.938926e-01	3.157895e+00	-2.404363e-02
7.266842e-01	3.157895e+00	-3.117997e-02
6.545085e-01	3.157895e+00	-3.823150e-02
5.781101e-01	3.157895e+00	-4.474298e-02
5.000000e-01	3.157895e+00	-5.044902e-02
4.218900e-01	3.157895e+00	-5.465610e-02
3.454915e-01	3.157895e+00	-5.727817e-02
2.733158e-01	3.157895e+00	-5.750808e-02
2.061074e-01	3.157895e+00	-5.559320e-02
1.469312e-01	3.157895e+00	-5.090265e-02
9.549150e-02	3.157895e+00	-4.406738e-02
5.510729e-02	3.157895e+00	-3.483632e-02
2.447174e-02	3.157895e+00	-2.400125e-02
6.832625e-03	3.157895e+00	-1.157225e-02
0.000000e+00	3.157895e+00	1.861232e-03
6.832625e-03	3.157895e+00	1.529472e-02
2.447174e-02	3.157895e+00	2.772371e-02
5.510728e-02	3.157895e+00	3.855878e-02
9.549150e-02	3.157895e+00	4.778984e-02
1.469312e-01	3.157895e+00	5.462512e-02
2.061074e-01	3.157895e+00	5.931567e-02
2.733158e-01	3.157895e+00	6.123054e-02
3.454915e-01	3.157895e+00	6.100063e-02
4.218900e-01	3.157895e+00	5.837856e-02
5.000000e-01	3.157895e+00	5.417148e-02
5.781101e-01	3.157895e+00	4.846545e-02
6.545085e-01	3.157895e+00	4.195396e-02
7.266842e-01	3.157895e+00	3.490243e-02
7.938926e-01	3.157895e+00	2.776609e-02
8.530689e-01	3.157895e+00	2.092729e-02
9.045085e-01	3.157895e+00	1.463587e-02
9.448927e-01	3.157895e+00	9.397642e-03
9.755282e-01	3.157895e+00	5.274542e-03
9.931674e-01	3.157895e+00	2.823057e-03
1.000000e+00	3.157895e+00	1.861232e-03
1.000000e+00	4.210526e+00	1.861232e-03
9.931674e-01	4.210526e+00	8.994069e-04
9.755282e-01	4.210526e+00	-1.552078e-03
9.448927e-01	4.210526e+00	-5.675178e-03
9.045085e-01	4.210526e+00	-1.091341e-02
8.530689e-01	4.210526e+00	-1.720483e-02
7.938926e-01	4.210526e+00	-2.404363e-02
7.266841e-01	4.210526e+00	-3.117997e-02
6.545085e-01	4.210526e+00	-3.823150e-02
5.781101e-01	4.210526e+00	-4.474298e-02
5.000000e-01	4.210526e+00	-5.044902e-02
4.218900e-01	4.210526e+00	-5.465610e-02
3.454915e-01	4.210526e+00	-5.727817e-02
2.733158e-01	4.210526e+00	-5.750808e-02
2.061074e-01	4.210526e+00	-5.559320e-02
1.469311e-01	4.210526e+00	-5.090265e-02
9.549150e-02	4.210526e+00	-4.406738e-02
5.510729e-02	4.210526e+00	-3.483632e-02
2.447174e-02	4.210526e+00	-2.400125e-02
6.832625e-03	4.210526e+00	-1.157225e-02
0.000000e+00	4.210526e+00	1.861232e-03
6.832625e-03	4.210526e+00	1.529472e-02
2.447174e-02	4.210526e+00	2.772371e-02
5.510728e-02	4.210526e+00	3.855878e-02
9.549150e-02	4.210526e+00	4.778984e-02
1.469311e-01	4.210526e+00	5.462512e-02
2.061074e-01	4.210526e+00	5.931567e-02
2.733158e-01	4.210526e+00	6.123054e-02
3.454915e-01	4.210526e+00	6.100063e-02
4.218900e-01	4.210526e+00	5.837856e-02
5.000000e-01	4.210526e+00	5.417148e-02
5.781101e-01	4.210526e+00	4.846545e-02
6.545085e-01	4.210526e+00	4.195396e-02
7.266841e-01	4.210526e+00	3.490243e-02
7.938926e-01	4.210526e+00	2.776609e-02
8.530689e-01	4.210526e+00	2.092729e-02
9.045085e-01	4.210526e+00	1.463587e-02
9.448927e-01	4.210526e+00	9.397642e-03
9.755282e-01	4.210526e+00	5.274542e-03
9.931674e-01	4.210526e+00	2.823057e-03
1.000000e+00	4.210526e+00	1.861232e-03
1.000000e+00	5.263158e+00	1.861232e-03
9.931674e-01	5.263158e+00	8.994069e-04
9.755282e-01	5.263158e+00	-1.552078e-03
9.448927e-01	5.263158e+00	-5.675178e-03
9.045085e-01	5.263158e+00	-1.091341e-02
8.530689e-01	5.263158e+00	-1.720483e-02
7.938926e-01	5.263158e+00	-2.404363e-02
7.266842e-01	5.263158e+00	-3.117997e-02
6.545085e-01	5.263158e+00	-3.823150e-02
5.781101e-01	5.263158e+00	-4.474298e-02
5.000000e-01	5.263158e+00	-5.044902e-02
4.218900e-01	5.263158e+00	-5.465610e-02
3.454915e-01	5.263158e+00	-5.727817e-02
2.733158e-01	5.263158e+00	-5.750808e-02
2.061074e-01	5.263158e+00	-5.559320e-02
1.469311e-01	5.263158e+00	-5.090265e-02
9.549150e-02	5.263158e+00	-4.406738e-02
5.510729e-02	5.263158e+00	-3.483632e-02
2.447174e-02	5.263158e+00	-2.400125e-02
6.832625e-03	5.263158e+00	-1.157225e-02
0.000000e+00	5.263158e+00	1.861232e-03
6.832625e-03	5.263158e+00	1.529472e-02
2.447174e-02	5.263158e+00	2.772371e-02
5.510728e-02	5.263158e+00	3.855878e-02
9.549150e-02	5.263158e+00	4.778984e-02
1.469311e-01	5.263158e+00	5.462512e-02
2.061074e-01	5.263158e+00	5.931567e-02
2.733158e-01	5.263158e+00	6.123054e-02
3.454915e-01	5.263158e+00	6.100063e-02
4.218900e-01	5.263158e+00	5.837856e-02
5.000000e-01	5.263158e+00	5.417148e-02
5.781101e-01	5.263158e+00	4.846545e-02
6.545085e-01	5.263158e+00	4.195396e-02
7.266842e-01	5.263158e+00	3.490243e-02
7.938926e-01	5.263158e+00	2.776609e-02
8.530689e-01	5.263158e+00	2.092729e-02
9.045085e-01	5.263158e+00	1.463587e-02
9.448927e-01	5.263158e+00	9.397642e-03
9.755282e-01	5.263158e+00	5.274542e-03
9.931674e-01	5.263158e+00	2.823057e-03
1.000000e+00	5.263158e+00	1.861232e-03
1.000000e+00	6.315789e+00	1.861232e-03
9.931673e-01	6.315789e+00	8.994069e-04
9.755282e-01	6.315789e+00	-1.552078e-03
9.448927e-01	6.315789e+00	-5.675178e-03
9.045085e-01	6.315789e+00	-1.091341e-02
[...]
CELL_DATA 760
VECTORS V double
3.466880e-01	1.077761e-03	4.880291e-02
3.541494e-01	1.038198e-03	4.921960e-02
3.602540e-01	9.707402e-04	4.848504e-02
3.654776e-01	8.880269e-04	4.740606e-02
3.695055e-01	7.919661e-04	4.519304e-02
3.746664e-01	6.792043e-04	4.329893e-02
3.786312e-01	5.447023e-04	4.020388e-02
3.836232e-01	3.846809e-04	3.747982e-02
3.881077e-01	1.989710e-04	3.307864e-02
3.935797e-01	-7.716657e-06	2.875148e-02
3.987127e-01	-2.254656e-04	2.147505e-02
4.041880e-01	-4.401609e-04	1.387212e-02
4.087391e-01	-6.369309e-04	1.302007e-03
4.120596e-01	-8.015941e-04	-1.174026e-02
4.150345e-01	-9.261183e-04	-3.289729e-02
4.094975e-01	-1.006819e-03	-5.441383e-02
3.923066e-01	-1.047280e-03	-8.967379e-02
3.602882e-01	-1.053122e-03	-1.274255e-01
2.627711e-01	-1.031142e-03	-1.851556e-01
5.802197e-02	-9.877252e-04	-1.140758e-01
1.286869e-01	-9.150390e-04	2.530087e-01
3.401026e-01	-8.333150e-04	2.396454e-01
4.177623e-01	-7.305117e-04	1.477527e-01
4.336481e-01	-6.070625e-04	9.912367e-02
4.392117e-01	-4.544134e-04	5.836224e-02
4.362815e-01	-2.727708e-04	3.458148e-02
4.263954e-01	-6.225703e-05	1.214865e-02
4.175482e-01	1.674332e-04	-1.330068e-03
4.080468e-01	4.038353e-04	-1.400456e-02
3.982145e-01	6.293107e-04	-2.144822e-02
3.887996e-01	8.280263e-04	-2.840229e-02
3.790936e-01	9.873288e-04	-3.231037e-02
3.700009e-01	1.100794e-03	-3.614893e-02
3.598914e-01	1.168482e-03	-3.821406e-02
3.498394e-01	1.195566e-03	-4.042976e-02
3.373222e-01	1.190757e-03	-4.125681e-02
3.241357e-01	1.163844e-03	-4.204360e-02
3.080191e-01	1.125355e-03	-4.145497e-02
2.905182e-01	1.087097e-03	-4.037615e-02
2.740135e-01	1.063975e-03	-3.857260e-02
3.500260e-01	6.262687e-04	4.927279e-02
3.571290e-01	6.024476e-04	4.963371e-02
3.628149e-01	5.616313e-04	4.882970e-02
3.677360e-01	5.110091e-04	4.769899e-02
3.716428e-01	4.521607e-04	4.545445e-02
3.768373e-01	3.838081e-04	4.354981e-02
3.809425e-01	3.036772e-04	4.044931e-02
3.861306e-01	2.101079e-04	3.772479e-02
3.908155e-01	1.033276e-04	3.330943e-02
3.964408e-01	-1.392710e-05	2.896048e-02
4.016342e-01	-1.362418e-04	2.163240e-02
4.070443e-01	-2.560823e-04	1.397015e-02
4.113863e-01	-3.656084e-04	1.310440e-03
4.143583e-01	-4.573263e-04	-1.180575e-02
4.168639e-01	-5.269922e-04	-3.304229e-02
4.107616e-01	-5.725426e-04	-5.458179e-02
3.929176e-01	-5.957653e-04	-8.981345e-02
3.601103e-01	-5.994616e-04	-1.273625e-01
2.616229e-01	-5.871126e-04	-1.843465e-01
5.625343e-02	-5.620561e-04	-1.105987e-01
1.311732e-01	-5.195152e-04	2.578969e-01
3.436567e-01	-4.713885e-04	2.421498e-01
4.212622e-01	-4.109186e-04	1.489905e-01
4.370411e-01	-3.388091e-04	9.989925e-02
4.426259e-01	-2.505804e-04	5.881591e-02
4.397460e-01	-1.467936e-04	3.485609e-02
4.298786e-01	-2.774601e-05	1.224789e-02
4.209539e-01	1.011197e-04	-1.340916e-03
4.112488e-01	2.330941e-04	-1.411445e-02
4.010790e-01	3.587521e-04	-2.160250e-02
3.912140e-01	4.696943e-04	-2.857866e-02
3.809800e-01	5.591594e-04	-3.247115e-02
3.713220e-01	6.237699e-04	-3.627800e-02
3.606474e-01	6.633182e-04	-3.829433e-02
3.500522e-01	6.804020e-04	-4.045436e-02
3.370207e-01	6.795377e-04	-4.121993e-02
3.233357e-01	6.659560e-04	-4.193984e-02
3.067344e-01	6.456159e-04	-4.128207e-02
2.888165e-01	6.251862e-04	-4.013965e-02
2.720627e-01	6.127973e-04	-3.829798e-02
3.507077e-01	1.178844e-04	4.936875e-02
3.577511e-01	1.124641e-04	4.972016e-02
3.633760e-01	1.030419e-04	4.890521e-02
3.682435e-01	9.075233e-05	4.776483e-02
3.721081e-01	7.640284e-05	4.551135e-02
3.772722e-01	6.052468e-05	4.360007e-02
3.813562e-01	4.347055e-05	4.049324e-02
3.865285e-01	2.556507e-05	3.776367e-02
3.911993e-01	7.223568e-06	3.334214e-02
3.968094e-01	-1.106179e-05	2.898742e-02
4.019846e-01	-2.872892e-05	2.165128e-02
4.073725e-01	-4.517669e-05	1.398142e-02
4.116870e-01	-5.988707e-05	1.311397e-03
4.146250e-01	-7.233483e-05	-1.181335e-02
4.170880e-01	-8.221898e-05	-3.306006e-02
4.109316e-01	-8.923606e-05	-5.460438e-02
3.930153e-01	-9.336458e-05	-8.983579e-02
3.601030e-01	-9.457204e-05	-1.273599e-01
2.614610e-01	-9.296075e-05	-1.842325e-01
5.596509e-02	-8.871027e-05	-1.100318e-01
1.316083e-01	-8.071994e-05	2.587523e-01
3.442854e-01	-7.130794e-05	2.425927e-01
4.218618e-01	-5.954636e-05	1.492026e-01
4.375866e-01	-4.608826e-05	1.000239e-01
4.431319e-01	-3.071122e-05	5.888315e-02
4.402175e-01	-1.400140e-05	3.489346e-02
4.303179e-01	3.746919e-06	1.226041e-02
4.213597e-01	2.178984e-05	-1.342209e-03
4.116188e-01	3.954852e-05	-1.412715e-02
4.014100e-01	5.628614e-05	-2.162033e-02
3.915026e-01	7.143641e-05	-2.859974e-02
3.812244e-01	8.449882e-05	-3.249198e-02
3.715196e-01	9.513521e-05	-3.629730e-02
3.607936e-01	1.031728e-04	-3.830985e-02
3.501432e-01	1.085659e-04	-4.046488e-02
3.370526e-01	1.114593e-04	-4.122383e-02
3.233083e-01	1.121847e-04	-4.193628e-02
3.066556e-01	1.114864e-04	-4.127145e-02
2.886994e-01	1.102269e-04	-4.012337e-02
2.719230e-01	1.092678e-04	-3.827831e-02
3.509406e-01	4.362375e-05	4.940155e-02
3.579577e-01	4.197408e-05	4.974888e-02
3.635597e-01	3.897946e-05	4.892993e-02
3.684092e-01	3.494491e-05	4.778632e-02
3.722599e-01	3.011172e-05	4.552992e-02
3.774136e-01	2.466154e-05	4.361641e-02
3.814896e-01	1.876103e-05	4.050739e-02
3.866553e-01	1.256737e-05	3.777606e-02
3.913204e-01	6.252501e-06	3.335247e-02
3.969254e-01	-1.302450e-08	2.899589e-02
4.020952e-01	-6.072536e-06	2.165724e-02
4.074770e-01	-1.175278e-05	1.398500e-02
4.117841e-01	-1.689899e-05	1.311707e-03
4.147129e-01	-2.134280e-05	-1.181586e-02
4.171643e-01	-2.498263e-05	-3.306611e-02
4.109927e-01	-2.770045e-05	-5.461250e-02
3.930554e-01	-2.947046e-05	-8.984495e-02
3.601118e-01	-3.024903e-05	-1.273631e-01
2.614226e-01	-3.006102e-05	-1.842054e-01
5.588417e-02	-2.893886e-05	-1.098727e-01
1.317358e-01	-2.655579e-05	2.590031e-01
3.444718e-01	-2.362446e-05	2.427241e-01
4.220395e-01	-1.990474e-05	1.492654e-01
4.377467e-01	-1.563488e-05	1.000605e-01
4.432787e-01	-1.076552e-05	5.890265e-02
4.403531e-01	-5.501493e-06	3.490422e-02
4.304440e-01	6.785563e-08	1.226400e-02
4.214767e-01	5.733735e-06	-1.342582e-03
4.117270e-01	1.135578e-05	-1.413087e-02
4.015097e-01	1.675224e-05	-2.162570e-02
3.915944e-01	2.180354e-05	-2.860645e-02
3.813074e-01	2.640946e-05	-3.249905e-02
3.715934e-01	3.037282e-05	-3.630452e-02
3.608594e-01	3.374295e-05	-3.831684e-02
3.501998e-01	3.645183e-05	-4.047141e-02
3.370983e-01	3.848518e-05	-4.122942e-02
3.233409e-01	3.984833e-05	-4.194052e-02
3.066725e-01	4.062152e-05	-4.127373e-02
2.886976e-01	4.094065e-05	-4.012313e-02
2.719008e-01	4.099705e-05	-3.827520e-02
3.509860e-01	1.930034e-05	4.940794e-02
3.580119e-01	1.888586e-05	4.975641e-02
3.636178e-01	1.791232e-05	4.893775e-02
3.684680e-01	1.646624e-05	4.779394e-02
3.723182e-01	1.463379e-05	4.553705e-02
3.774708e-01	1.246840e-05	4.362304e-02
3.815455e-01	1.002882e-05	4.051333e-02
3.867096e-01	7.379319e-06	3.778136e-02
3.913727e-01	4.608812e-06	3.335693e-02
3.969756e-01	1.808656e-06	2.899955e-02
4.021433e-01	-9.349124e-07	2.165982e-02
4.075228e-01	-3.539330e-06	1.398658e-02
4.118274e-01	-5.937338e-06	1.311845e-03
4.147532e-01	-8.054850e-06	-1.181701e-02
4.172009e-01	-9.846794e-06	-3.306900e-02
4.110242e-01	-1.125619e-05	-5.461670e-02
3.930800e-01	-1.226787e-05	-8.985057e-02
3.601257e-01	-1.284911e-05	-1.273680e-01
2.614189e-01	-1.300777e-05	-1.842028e-01
5.586042e-02	-1.273646e-05	-1.098260e-01
1.317807e-01	-1.191257e-05	2.590914e-01
3.445418e-01	-1.078270e-05	2.427734e-01
4.221081e-01	-9.279046e-06	1.492897e-01
4.378102e-01	-7.506374e-06	1.000750e-01
4.433380e-01	-5.431543e-06	5.891054e-02
4.404083e-01	-3.161657e-06	3.490859e-02
4.304954e-01	-7.415570e-07	1.226546e-02
4.215246e-01	1.739485e-06	-1.342734e-03
4.117716e-01	4.224687e-06	-1.413240e-02
4.015511e-01	6.638226e-06	-2.162793e-02
3.916328e-01	8.924513e-06	-2.860925e-02
3.813428e-01	1.102735e-05	-3.250207e-02
3.716260e-01	1.290192e-05	-3.630770e-02
3.608891e-01	1.451414e-05	-3.831999e-02
3.502268e-01	1.583596e-05	-4.047453e-02
3.371229e-01	1.686545e-05	-4.123242e-02
3.233636e-01	1.761456e-05	-4.194346e-02
3.066950e-01	1.812969e-05	-4.127676e-02
2.887230e-01	1.848059e-05	-4.012666e-02
2.719325e-01	1.871392e-05	-3.827965e-02
3.510106e-01	9.733131e-06	4.941139e-02
3.580383e-01	9.498925e-06	4.976008e-02
3.636436e-01	8.996053e-06	4.894123e-02
3.684925e-01	8.302922e-06	4.779712e-02
3.723418e-01	7.470353e-06	4.553994e-02
3.774943e-01	6.514864e-06	4.362574e-02
3.815693e-01	5.437340e-06	4.051586e-02
3.867338e-01	4.233806e-06	3.778373e-02
3.913973e-01	2.921790e-06	3.335902e-02
3.970001e-01	1.535067e-06	2.900134e-02
4.021675e-01	1.241864e-07	2.166113e-02
4.075464e-01	-1.255415e-06	1.398739e-02
4.118501e-01	-2.557288e-06	1.311917e-03
4.147749e-01	-3.734578e-06	-1.181762e-02
4.172211e-01	-4.758130e-06	-3.307060e-02
4.110424e-01	-5.592129e-06	-5.461912e-02
3.930953e-01	-6.224883e-06	-8.985407e-02
3.601364e-01	-6.633236e-06	-1.273718e-01
2.614216e-01	-6.821581e-06	-1.842047e-01
5.585236e-02	-6.778302e-06	-1.098102e-01
1.317998e-01	-6.449995e-06	2.591289e-01
3.445738e-01	-5.934082e-06	2.427960e-01
4.221407e-01	-5.205399e-06	1.493012e-01
4.378409e-01	-4.314105e-06	1.000821e-01
4.433671e-01	-3.254834e-06	5.891440e-02
4.404358e-01	-2.075515e-06	3.491077e-02
4.305214e-01	-7.978275e-07	1.226620e-02
4.215492e-01	5.312458e-07	-1.342813e-03
4.117950e-01	1.880945e-06	-1.413320e-02
4.015732e-01	3.208537e-06	-2.162912e-02
3.916536e-01	4.479360e-06	-2.861078e-02
3.813623e-01	5.655956e-06	-3.250373e-02
3.716440e-01	6.705969e-06	-3.630946e-02
3.609054e-01	7.605882e-06	-3.832173e-02
3.502412e-01	8.338889e-06	-4.047619e-02
3.371350e-01	8.903924e-06	-4.123391e-02
3.233733e-01	9.301741e-06	-4.194472e-02
3.067025e-01	9.549357e-06	-4.127777e-02
2.887296e-01	9.687574e-06	-4.012757e-02
2.719402e-01	9.772810e-06	-3.828074e-02
3.510255e-01	5.860134e-06	4.941350e-02
3.580542e-01	5.725084e-06	4.976230e-02
3.636590e-01	5.428080e-06	4.894330e-02
3.685066e-01	5.016801e-06	4.779895e-02
3.723547e-01	4.531588e-06	4.554152e-02
3.775065e-01	3.996874e-06	4.362715e-02
3.815812e-01	3.421527e-06	4.051713e-02
3.867460e-01	2.798047e-06	3.778492e-02
3.914099e-01	2.118031e-06	3.336010e-02
3.970133e-01	1.380190e-06	2.900231e-02
4.021810e-01	6.007942e-07	2.166186e-02
4.075601e-01	-1.907124e-07	1.398785e-02
4.118636e-01	-9.628761e-07	1.311960e-03
4.147881e-01	-1.682649e-06	-1.181800e-02
4.172338e-01	-2.328185e-06	-3.307161e-02
4.110543e-01	-2.874234e-06	-5.462069e-02
3.931059e-01	-3.311258e-06	-8.985650e-02
3.601450e-01	-3.621291e-06	-1.273748e-01
2.614261e-01	-3.806272e-06	-1.842079e-01
5.585017e-02	-3.852903e-06	-1.098059e-01
1.318087e-01	-3.736990e-06	2.591464e-01
3.445903e-01	-3.491530e-06	2.428076e-01
4.221583e-01	-3.111139e-06	1.493074e-01
4.378580e-01	-2.622663e-06	1.000860e-01
4.433836e-01	-2.024546e-06	5.891660e-02
4.404516e-01	-1.345308e-06	3.491202e-02
4.305366e-01	-5.995413e-07	1.226664e-02
4.215637e-01	1.826941e-07	-1.342859e-03
4.118088e-01	9.797400e-07	-1.413367e-02
4.015862e-01	1.762642e-06	-2.162982e-02
3.916658e-01	2.507972e-06	-2.861166e-02
3.813735e-01	3.193668e-06	-3.250469e-02
3.716543e-01	3.805152e-06	-3.631046e-02
3.609148e-01	4.338392e-06	-3.832272e-02
3.502497e-01	4.795674e-06	-4.047717e-02
3.371427e-01	5.177996e-06	-4.123486e-02
3.233802e-01	5.475758e-06	-4.194562e-02
3.067086e-01	5.683275e-06	-4.127859e-02
2.887354e-01	5.812179e-06	-4.012838e-02
2.719469e-01	5.889831e-06	-3.828168e-02
3.510334e-01	3.772079e-06	4.941460e-02
3.580632e-01	3.742635e-06	4.976354e-02
3.636680e-01	3.648344e-06	4.894452e-02
3.685152e-01	3.514575e-06	4.780006e-02
3.723626e-01	3.367804e-06	4.554248e-02
3.775137e-01	3.223148e-06	4.362799e-02
3.815880e-01	3.081445e-06	4.051785e-02
3.867527e-01	2.917406e-06	3.778557e-02
3.914168e-01	2.696675e-06	3.336069e-02
3.970205e-01	2.388419e-06	2.900284e-02
4.021887e-01	1.985222e-06	2.166227e-02
4.075681e-01	1.510258e-06	1.398813e-02
4.118720e-01	1.006900e-06	1.311987e-03
4.147965e-01	5.234945e-07	-1.181824e-02
4.172421e-01	9.038287e-08	-3.307227e-02
4.110626e-01	-2.750888e-07	-5.462179e-02
3.931138e-01	-5.748530e-07	-8.985829e-02
3.601521e-01	-8.049523e-07	-1.273773e-01
2.614314e-01	-9.717163e-07	-1.842116e-01
5.585106e-02	-1.063957e-06	-1.098076e-01
1.318121e-01	-1.075497e-06	2.591530e-01
3.445984e-01	-9.999736e-07	2.428133e-01
4.221677e-01	-8.426455e-07	1.493108e-01
4.378676e-01	-6.138381e-07	1.000882e-01
4.433932e-01	-3.099060e-07	5.891786e-02
4.404609e-01	6.102536e-08	3.491276e-02
4.305456e-01	4.969437e-07	1.226689e-02
4.215723e-01	9.786631e-07	-1.342886e-03
4.118169e-01	1.477421e-06	-1.413395e-02
4.015938e-01	1.948970e-06	-2.163023e-02
3.916729e-01	2.354564e-06	-2.861219e-02
3.813802e-01	2.672521e-06	-3.250526e-02
3.716606e-01	2.908259e-06	-3.631108e-02
3.609210e-01	3.088249e-06	-3.832338e-02
3.502559e-01	3.240131e-06	-4.047789e-02
3.371489e-01	3.381836e-06	-4.123561e-02
3.233863e-01	3.508693e-06	-4.194639e-02
3.067143e-01	3.612123e-06	-4.127936e-02
2.887411e-01	3.691980e-06	-4.012916e-02
2.719533e-01	3.751303e-06	-3.828258e-02
3.510305e-01	-3.333068e-04	4.941420e-02
3.580617e-01	-3.338545e-04	4.976333e-02
3.636669e-01	-3.356946e-04	4.894436e-02
3.685137e-01	-3.322461e-04	4.779987e-02
3.723607e-01	-3.217509e-04	4.554225e-02
3.775115e-01	-3.336832e-04	4.362773e-02
3.815860e-01	-2.806354e-04	4.051764e-02
3.867516e-01	-3.036743e-04	3.778547e-02
3.914172e-01	-2.172672e-04	3.336072e-02
3.970229e-01	-2.498193e-04	2.900301e-02
4.021928e-01	-1.312057e-04	2.166249e-02
4.075736e-01	-1.710695e-04	1.398832e-02
4.118781e-01	-2.776748e-05	1.312006e-03
4.148026e-01	-7.415925e-05	-1.181841e-02
4.172479e-01	8.772522e-05	-3.307273e-02
4.110679e-01	1.899972e-04	-5.462250e-02
3.931189e-01	2.374332e-04	-8.985948e-02
3.601574e-01	2.196120e-04	-1.273792e-01
2.614365e-01	2.108535e-04	-1.842152e-01
5.585393e-02	2.073067e-04	-1.098133e-01
1.318112e-01	2.071865e-04	2.591513e-01
3.445997e-01	2.105335e-04	2.428142e-01
4.221704e-01	2.191098e-04	1.493117e-01
4.378712e-01	2.367790e-04	1.000890e-01
4.433974e-01	1.892143e-04	5.891843e-02
4.404659e-01	8.683824e-05	3.491315e-02
4.305512e-01	-7.513061e-05	1.226705e-02
4.215781e-01	-2.880280e-05	-1.342905e-03
4.118222e-01	-1.721474e-04	-1.413413e-02
4.015981e-01	-1.323020e-04	-2.163046e-02
3.916755e-01	-2.509061e-04	-2.861238e-02
3.813812e-01	-2.183158e-04	-3.250534e-02
3.716603e-01	-3.046541e-04	-3.631105e-02
3.609200e-01	-2.815209e-04	-3.832327e-02
3.502548e-01	-3.344547e-04	-4.047777e-02
3.371482e-01	-3.224003e-04	-4.123553e-02
3.233861e-01	-3.327737e-04	-4.194637e-02
3.067149e-01	-3.361037e-04	-4.127944e-02
2.887429e-01	-3.341412e-04	-4.012942e-02
2.719569e-01	-3.334793e-04	-3.828309e-02
3.511258e-01	6.815179e-08	4.942761e-02
3.582074e-01	1.869054e-07	4.978358e-02
3.635805e-01	3.442732e-07	4.893274e-02
3.681437e-01	5.192874e-07	4.775188e-02
3.724339e-01	7.009563e-07	4.555121e-02
3.767209e-01	8.741883e-07	4.353637e-02
3.811766e-01	1.022463e-06	4.047417e-02
3.857860e-01	1.141639e-06	3.769112e-02
3.907056e-01	1.231349e-06	3.330007e-02
3.958504e-01	1.296628e-06	2.891736e-02
4.011118e-01	1.339004e-06	2.160427e-02
4.061841e-01	1.357148e-06	1.394063e-02
4.103678e-01	1.349705e-06	1.307195e-03
4.131317e-01	1.317034e-06	-1.177081e-02
4.125292e-01	1.258826e-06	-3.269870e-02
4.079297e-01	1.175302e-06	-5.420550e-02
3.922105e-01	1.064255e-06	-8.965183e-02
3.610069e-01	9.264798e-07	-1.276796e-01
2.619347e-01	7.567782e-07	-1.845663e-01
5.598712e-02	5.661379e-07	-1.100751e-01
1.319343e-01	3.299523e-07	2.593934e-01
3.450875e-01	1.264867e-07	2.431579e-01
4.230125e-01	-6.688380e-08	1.496095e-01
4.369576e-01	-2.370787e-07	9.988017e-02
4.402557e-01	-3.902377e-07	5.850095e-02
4.357447e-01	-5.258683e-07	3.453893e-02
4.288784e-01	-6.481574e-07	1.221939e-02
4.200666e-01	-7.571848e-07	-1.338090e-03
4.104320e-01	-8.519590e-07	-1.408642e-02
4.005169e-01	-9.284939e-07	-2.157222e-02
3.905034e-01	-9.801116e-07	-2.852675e-02
3.806704e-01	-9.993542e-07	-3.244476e-02
3.706962e-01	-9.825323e-07	-3.621686e-02
3.605128e-01	-9.345576e-07	-3.828004e-02
3.494673e-01	-8.633780e-07	-4.038676e-02
3.372252e-01	-7.811297e-07	-4.124494e-02
3.230209e-01	-6.883911e-07	-4.189900e-02
3.066348e-01	-5.854962e-07	-4.126866e-02
2.888975e-01	-4.766470e-07	-4.015091e-02
2.720650e-01	-3.880166e-07	-3.829831e-02
3.510105e-01	3.338428e-04	4.941138e-02
3.580469e-01	3.346499e-04	4.976127e-02
3.636557e-01	3.368169e-04	4.894285e-02
3.685048e-01	3.337166e-04	4.779871e-02
3.723535e-01	3.235702e-04	4.554137e-02
3.775059e-01	3.358269e-04	4.362709e-02
3.815819e-01	2.830688e-04	4.051720e-02
3.867486e-01	3.063316e-04	3.778517e-02
3.914151e-01	2.200899e-04	3.336054e-02
3.970214e-01	2.527513e-04	2.900290e-02
4.021920e-01	1.341936e-04	2.166245e-02
4.075735e-01	1.740602e-04	1.398831e-02
4.118786e-01	3.071222e-05	1.312008e-03
4.148040e-01	7.701113e-05	-1.181845e-02
4.172503e-01	-8.501111e-05	-3.307292e-02
4.110718e-01	-1.874654e-04	-5.462302e-02
3.931249e-01	-2.351348e-04	-8.986084e-02
3.601666e-01	-2.175991e-04	-1.273824e-01
2.614499e-01	-2.091921e-04	-1.842246e-01
5.586728e-02	-2.060422e-04	-1.098395e-01
1.317974e-01	-2.064167e-04	2.591241e-01
3.445848e-01	-2.101905e-04	2.428037e-01
4.221594e-01	-2.191703e-04	1.493078e-01
4.378634e-01	-2.371910e-04	1.000872e-01
4.433916e-01	-1.899385e-04	5.891766e-02
4.404614e-01	-8.783547e-05	3.491280e-02
4.305475e-01	7.388917e-05	1.226695e-02
4.215751e-01	2.734462e-05	-1.342895e-03
4.118198e-01	1.705022e-04	-1.413405e-02
4.015963e-01	1.305090e-04	-2.163037e-02
3.916746e-01	2.490165e-04	-2.861231e-02
3.813811e-01	2.163946e-04	-3.250534e-02
3.716612e-01	3.027765e-04	-3.631114e-02
3.609218e-01	2.797613e-04	-3.832347e-02
3.502575e-01	3.328680e-04	-4.047808e-02
3.371518e-01	3.210410e-04	-4.123596e-02
3.233910e-01	3.316739e-04	-4.194700e-02
3.067219e-01	3.352830e-04	-4.128038e-02
2.887533e-01	3.336036e-04	-4.013087e-02
2.719719e-01	3.331646e-04	-3.828519e-02
3.509896e-01	-2.792013e-06	4.940844e-02
3.580320e-01	-2.424251e-06	4.975920e-02
3.636453e-01	-1.917522e-06	4.894146e-02
3.684977e-01	-1.366008e-06	4.779780e-02
3.723489e-01	-8.219771e-07	4.554081e-02
3.775030e-01	-3.235985e-07	4.362675e-02
3.815801e-01	1.147081e-07	4.051700e-02
3.867471e-01	5.012696e-07	3.778503e-02
3.914130e-01	8.629792e-07	3.336037e-02
3.970183e-01	1.227879e-06	2.900268e-02
4.021879e-01	1.611820e-06	2.166223e-02
4.075687e-01	2.006618e-06	1.398815e-02
4.118740e-01	2.386414e-06	1.311993e-03
4.148001e-01	2.715218e-06	-1.181834e-02
4.172477e-01	2.969924e-06	-3.307271e-02
4.110709e-01	3.127713e-06	-5.462290e-02
3.931262e-01	3.177722e-06	-8.986114e-02
3.601712e-01	3.111815e-06	-1.273841e-01
2.614592e-01	2.910514e-06	-1.842312e-01
5.587893e-02	2.576040e-06	-1.098624e-01
1.317831e-01	2.039583e-06	2.590960e-01
3.445673e-01	1.484278e-06	2.427914e-01
4.221449e-01	8.764099e-07	1.493027e-01
4.378516e-01	2.656693e-07	1.000845e-01
4.433814e-01	-3.692341e-07	5.891630e-02
4.404519e-01	-1.022053e-06	3.491204e-02
4.305383e-01	-1.708874e-06	1.226669e-02
4.215664e-01	-2.419938e-06	-1.342868e-03
4.118122e-01	-3.130888e-06	-1.413379e-02
4.015905e-01	-3.785239e-06	-2.163005e-02
3.916712e-01	-4.328305e-06	-2.861206e-02
3.813803e-01	-4.725402e-06	-3.250527e-02
3.716629e-01	-4.968315e-06	-3.631131e-02
3.609255e-01	-5.067240e-06	-3.832386e-02
3.502628e-01	-5.040227e-06	-4.047870e-02
3.371588e-01	-4.907260e-06	-4.123682e-02
3.233997e-01	-4.687020e-06	-4.194814e-02
3.067331e-01	-4.404492e-06	-4.128188e-02
2.887680e-01	-4.093463e-06	-4.013291e-02
2.719909e-01	-3.847670e-06	-3.828788e-02
3.509484e-01	-4.500973e-06	4.940264e-02
3.579997e-01	-3.876712e-06	4.975471e-02
3.636200e-01	-2.985658e-06	4.893804e-02
3.684774e-01	-1.988456e-06	4.779516e-02
3.723324e-01	-9.740561e-07	4.553879e-02
3.774896e-01	-7.785716e-09	4.362520e-02
3.815690e-01	8.655986e-07	4.051583e-02
3.867378e-01	1.657693e-06	3.778412e-02
3.914051e-01	2.369150e-06	3.335969e-02
3.970113e-01	3.018216e-06	2.900216e-02
4.021815e-01	3.626089e-06	2.166188e-02
4.075627e-01	4.205039e-06	1.398794e-02
4.118683e-01	4.752403e-06	1.311975e-03
4.147948e-01	5.250024e-06	-1.181819e-02
4.172430e-01	5.678015e-06	-3.307234e-02
4.110674e-01	6.007150e-06	-5.462243e-02
3.931250e-01	6.211288e-06	-8.986086e-02
3.601741e-01	6.254217e-06	-1.273851e-01
2.614690e-01	6.098361e-06	-1.842381e-01
5.589391e-02	5.721423e-06	-1.098919e-01