# vtk DataFile Version 2.0
OUTPUT by 3D-VPM
ASCII
DATASET UNSTRUCTURED_GRID
POINTS 820 double
9.510565e-01	0.000000e+00	-3.090170e-01
9.442611e-01	0.000000e+00	-3.078203e-01
9.267277e-01	0.000000e+00	-3.047010e-01
8.963175e-01	0.000000e+00	-2.991555e-01
8.562911e-01	0.000000e+00	-2.916579e-01
8.054250e-01	0.000000e+00	-2.817457e-01
7.470317e-01	0.000000e+00	-2.699633e-01
6.809074e-01	0.000000e+00	-2.559818e-01
6.100852e-01	0.000000e+00	-2.403847e-01
5.354138e-01	0.000000e+00	-2.229691e-01
4.593635e-01	0.000000e+00	-2.042585e-01
3.837764e-01	0.000000e+00	-1.841224e-01
3.103069e-01	0.000000e+00	-1.630077e-01
2.415927e-01	0.000000e+00	-1.409228e-01
1.782654e-01	0.000000e+00	-1.183331e-01
1.234349e-01	0.000000e+00	-9.558566e-02
7.662509e-02	0.000000e+00	-7.318920e-02
4.106998e-02	0.000000e+00	-5.193053e-02
1.528206e-02	0.000000e+00	-3.215886e-02
2.347037e-03	0.000000e+00	-1.488740e-02
0.000000e+00	0.000000e+00	0.000000e+00
1.064939e-02	0.000000e+00	1.066461e-02
3.126595e-02	0.000000e+00	1.703450e-02
6.375031e-02	0.000000e+00	1.787236e-02
1.050105e-01	0.000000e+00	1.417221e-02
1.560448e-01	0.000000e+00	4.777214e-03
2.137742e-01	0.000000e+00	-9.048270e-03
2.782849e-01	0.000000e+00	-2.799567e-02
3.468570e-01	0.000000e+00	-5.051783e-02
4.187060e-01	0.000000e+00	-7.662000e-02
4.916930e-01	0.000000e+00	-1.047585e-01
5.642168e-01	0.000000e+00	-1.343226e-01
6.348639e-01	0.000000e+00	-1.641238e-01
7.013280e-01	0.000000e+00	-1.931337e-01
7.630418e-01	0.000000e+00	-2.206893e-01
8.172084e-01	0.000000e+00	-2.454799e-01
8.641863e-01	0.000000e+00	-2.673591e-01
9.009752e-01	0.000000e+00	-2.848204e-01
9.288372e-01	0.000000e+00	-2.982085e-01
9.448555e-01	0.000000e+00	-3.059908e-01
9.510565e-01	0.000000e+00	-3.090170e-01
9.510565e-01	1.052632e+00	-3.090170e-01
9.442611e-01	1.052632e+00	-3.078203e-01
9.267277e-01	1.052632e+00	-3.047010e-01
8.963175e-01	1.052632e+00	-2.991555e-01
8.562911e-01	1.052632e+00	-2.916579e-01
8.054250e-01	1.052632e+00	-2.817457e-01
7.470317e-01	1.052632e+00	-2.699633e-01
6.809074e-01	1.052632e+00	-2.559818e-01
6.100852e-01	1.052632e+00	-2.403847e-01
5.354138e-01	1.052632e+00	-2.229691e-01
4.593635e-01	1.052632e+00	-2.042585e-01
3.837764e-01	1.052632e+00	-1.841224e-01
3.103069e-01	1.052632e+00	-1.630077e-01
2.415927e-01	1.052632e+00	-1.409228e-01
1.782654e-01	1.052632e+00	-1.183331e-01
1.234349e-01	1.052632e+00	-9.558566e-02
7.662509e-02	1.052632e+00	-7.318920e-02
4.106998e-02	1.052632e+00	-5.193053e-02
1.528206e-02	1.052632e+00	-3.215886e-02
2.347037e-03	1.052632e+00	-1.488740e-02
0.000000e+00	1.052632e+00	0.000000e+00
1.064939e-02	1.052632e+00	1.066461e-02
3.126595e-02	1.052632e+00	1.703450e-02
6.375031e-02	1.052632e+00	1.787236e-02
1.050105e-01	1.052632e+00	1.417221e-02
1.560448e-01	1.052632e+00	4.777214e-03
2.137742e-01	1.052632e+00	-9.048270e-03
2.782849e-01	1.052632e+00	-2.799567e-02
3.468570e-01	1.052632e+00	-5.051783e-02
4.187060e-01	1.052632e+00	-7.662000e-02
4.916930e-01	1.052632e+00	-1.047585e-01
5.642168e-01	1.052632e+00	-1.343226e-01
6.348639e-01	1.052632e+00	-1.641238e-01
7.013280e-01	1.052632e+00	-1.931337e-01
7.630418e-01	1.052632e+00	-2.206893e-01
8.172084e-01	1.052632e+00	-2.454799e-01
8.641863e-01	1.052632e+00	-2.673591e-01
9.009752e-01	1.052632e+00	-2.848204e-01
9.288372e-01	1.052632e+00	-2.982085e-01
9.448555e-01	1.052632e+00	-3.059908e-01
9.510565e-01	1.052632e+00	-3.090170e-01
9.510565e-01	2.105263e+00	-3.090170e-01
9.442611e-01	2.105263e+00	-3.078203e-01
9.267277e-01	2.105263e+00	-3.047010e-01
8.963175e-01	2.105263e+00	-2.991555e-01
8.562911e-01	2.105263e+00	-2.916579e-01
8.054250e-01	2.105263e+00	-2.817457e-01
7.470317e-01	2.105263e+00	-2.699633e-01
6.809074e-01	2.105263e+00	-2.559818e-01
6.100852e-01	2.105263e+00	-2.403847e-01
5.354138e-01	2.105263e+00	-2.229691e-01
4.593635e-01	2.105263e+00	-2.042585e-01
3.837764e-01	2.105263e+00	-1.841224e-01
3.103069e-01	2.105263e+00	-1.630077e-01
2.415927e-01	2.105263e+00	-1.409228e-01
1.782654e-01	2.105263e+00	-1.183331e-01
1.234349e-01	2.105263e+00	-9.558566e-02
7.662509e-02	2.105263e+00	-7.318920e-02
4.106998e-02	2.105263e+00	-5.193053e-02
1.528206e-02	2.105263e+00	-3.215886e-02
2.347037e-03	2.105263e+00	-1.488740e-02
0.000000e+00	2.105263e+00	0.000000e+00
1.064939e-02	2.105263e+00	1.066461e-02
3.126595e-02	2.105263e+00	1.703450e-02
6.375031e-02	2.105263e+00	1.787236e-02
1.050105e-01	2.105263e+00	1.417221e-02
1.560448e-01	2.105263e+00	4.777214e-03
2.137742e-01	2.105263e+00	-9.048270e-03
2.782849e-01	2.105263e+00	-2.799567e-02
3.468570e-01	2.105263e+00	-5.051783e-02
4.187060e-01	2.105263e+00	-7.662000e-02
4.916930e-01	2.105263e+00	-1.047585e-01
5.642168e-01	2.105263e+00	-1.343226e-01
6.348639e-01	2.105263e+00	-1.641238e-01
7.013280e-01	2.105263e+00	-1.931337e-01
7.630418e-01	2.105263e+00	-2.206893e-01
8.172084e-01	2.105263e+00	-2.454799e-01
8.641863e-01	2.105263e+00	-2.673591e-01
9.009752e-01	2.105263e+00	-2.848204e-01
9.288372e-01	2.105263e+00	-2.982085e-01
9.448555e-01	2.105263e+00	-3.059908e-01
9.510565e-01	2.105263e+00	-3.090170e-01
9.510565e-01	3.157895e+00	-3.090170e-01
9.442611e-01	3.157895e+00	-3.078203e-01
9.267277e-01	3.157895e+00	-3.047010e-01
8.963175e-01	3.157895e+00	-2.991555e-01
8.562911e-01	3.157895e+00	-2.916579e-01
8.054250e-01	3.157895e+00	-2.817457e-01
7.470317e-01	3.157895e+00	-2.699633e-01
6.809074e-01	3.157895e+00	-2.559818e-01
6.100852e-01	3.157895e+00	-2.403847e-01
5.354138e-01	3.157895e+00	-2.229691e-01
4.593635e-01	3.157895e+00	-2.042585e-01
3.837764e-01	3.157895e+00	-1.841224e-01
3.103069e-01	3.157895e+00	-1.630077e-01
2.415927e-01	3.157895e+00	-1.409228e-01
1.782654e-01	3.157895e+00	-1.183331e-01
1.234349e-01	3.157895e+00	-9.558566e-02
7.662509e-02	3.157895e+00	-7.318920e-02
4.106998e-02	3.157895e+00	-5.193053e-02
1.528206e-02	3.157895e+00	-3.215886e-02
2.347037e-03	3.157895e+00	-1.488740e-02
0.000000e+00	3.157895e+00	0.000000e+00
1.064939e-02	3.157895e+00	1.066461e-02
3.126595e-02	3.157895e+00	1.703450e-02
6.375031e-02	3.157895e+00	1.787236e-02
1.050105e-01	3.157895e+00	1.417221e-02
1.560448e-01	3.157895e+00	4.777214e-03
2.137742e-01	3.157895e+00	-9.048270e-03
2.782849e-01	3.157895e+00	-2.799567e-02
3.468570e-01	3.157895e+00	-5.051783e-02
4.187060e-01	3.157895e+00	-7.662000e-02
4.916930e-01	3.157895e+00	-1.047585e-01
5.642168e-01	3.157895e+00	-1.343226e-01
6.348639e-01	3.157895e+00	-1.641238e-01
7.013280e-01	3.157895e+00	-1.931337e-01
7.630418e-01	3.157895e+00	-2.206893e-01
8.172084e-01	3.157895e+00	-2.454799e-01
8.641863e-01	3.157895e+00	-2.673591e-01
9.009752e-01	3.157895e+00	-2.848204e-01
9.288372e-01	3.157895e+00	-2.982085e-01
9.448555e-01	3.157895e+00	-3.059908e-01
9.510565e-01	3.157895e+00	-3.090170e-01
9.510565e-01	4.210526e+00	-3.090170e-01
9.442611e-01	4.210526e+00	-3.078203e-01
9.267277e-01	4.210526e+00	-3.047010e-01
8.963175e-01	4.210526e+00	-2.991555e-01
8.562911e-01	4.210526e+00	-2.916579e-01
8.054250e-01	4.210526e+00	-2.817457e-01
7.470317e-01	4.210526e+00	-2.699633e-01
6.809074e-01	4.210526e+00	-2.559818e-01
6.100852e-01	4.210526e+00	-2.403847e-01
5.354138e-01	4.210526e+00	-2.229691e-01
4.593635e-01	4.210526e+00	-2.042585e-01
3.837764e-01	4.210526e+00	-1.841224e-01
3.103069e-01	4.210526e+00	-1.630077e-01
2.415927e-01	4.210526e+00	-1.409228e-01
1.782654e-01	4.210526e+00	-1.183331e-01
1.234349e-01	4.210526e+00	-9.558566e-02
7.662509e-02	4.210526e+00	-7.318920e-02
4.106998e-02	4.210526e+00	-5.193053e-02
1.528206e-02	4.210526e+00	-3.215886e-02
2.347037e-03	4.210526e+00	-1.488740e-02
0.000000e+00	4.210526e+00	0.000000e+00
1.064939e-02	4.210526e+00	1.066461e-02
3.126595e-02	4.210526e+00	1.703450e-02
6.375031e-02	4.210526e+00	1.787236e-02
1.050105e-01	4.210526e+00	1.417221e-02
1.560448e-01	4.210526e+00	4.777214e-03
2.137742e-01	4.210526e+00	-9.048270e-03
2.782849e-01	4.210526e+00	-2.799567e-02
3.468570e-01	4.210526e+00	-5.051783e-02
4.187060e-01	4.210526e+00	-7.662000e-02
4.916930e-01	4.210526e+00	-1.047585e-01
5.642168e-01	4.210526e+00	-1.343226e-01
6.348639e-01	4.210526e+00	-1.641238e-01
7.013280e-01	4.210526e+00	-1.931337e-01
7.630418e-01	4.210526e+00	-2.206893e-01
8.172084e-01	4.210526e+00	-2.454799e-01
8.641863e-01	4.210526e+00	-2.673591e-01
9.009752e-01	4.210526e+00	-2.848204e-01
9.288372e-01	4.210526e+00	-2.982085e-01
9.448555e-01	4.210526e+00	-3.059908e-01
9.510565e-01	4.210526e+00	-3.090170e-01
9.510565e-01	5.263158e+00	-3.090170e-01
9.442611e-01	5.263158e+00	-3.078203e-01
9.267277e-01	5.263158e+00	-3.047010e-01
8.963175e-01	5.263158e+00	-2.991555e-01
8.562911e-01	5.263158e+00	-2.916579e-01
8.054250e-01	5.263158e+00	-2.817457e-01
7.470317e-01	5.263158e+00	-2.699633e-01
6.809074e-01	5.263158e+00	-2.559818e-01
6.100852e-01	5.263158e+00	-2.403847e-01
5.354138e-01	5.263158e+00	-2.229691e-01
4.593635e-01	5.263158e+00	-2.042585e-01
3.837764e-01	5.263158e+00	-1.841224e-01
3.103069e-01	5.263158e+00	-1.630077e-01
2.415927e-01	5.263158e+00	-1.409228e-01
1.782654e-01	5.263158e+00	-1.183331e-01
1.234349e-01	5.263158e+00	-9.558566e-02
7.662509e-02	5.263158e+00	-7.318920e-02
4.106998e-02	5.263158e+00	-5.193053e-02
1.528206e-02	5.263158e+00	-3.215886e-02
2.347037e-03	5.263158e+00	-1.488740e-02
0.000000e+00	5.263158e+00	0.000000e+00
1.064939e-02	5.263158e+00	1.066461e-02
3.126595e-02	5.263158e+00	1.703450e-02
6.375031e-02	5.263158e+00	1.787236e-02
1.050105e-01	5.263158e+00	1.417221e-02
1.560448e-01	5.263158e+00	4.777214e-03
2.137742e-01	5.263158e+00	-9.048270e-03
2.782849e-01	5.263158e+00	-2.799567e-02
3.468570e-01	5.263158e+00	-5.051783e-02
4.187060e-01	5.263158e+00	-7.662000e-02
4.916930e-01	5.263158e+00	-1.047585e-01
5.642168e-01	5.263158e+00	-1.343226e-01
6.348639e-01	5.263158e+00	-1.641238e-01
7.013280e-01	5.263158e+00	-1.931337e-01
7.630418e-01	5.263158e+00	-2.206893e-01
8.172084e-01	5.263158e+00	-2.454799e-01
8.641863e-01	5.263158e+00	-2.673591e-01
9.009752e-01	5.263158e+00	-2.848204e-01
9.288372e-01	5.263158e+00	-2.982085e-01
9.448555e-01	5.263158e+00	-3.059908e-01
9.510565e-01	5.263158e+00	-3.090170e-01
9.510565e-01	6.315789e+00	-3.090170e-01
9.442611e-01	6.315789e+00	-3.078203e-01
[...]
CELL_DATA 760
VECTORS V double
8.414237e-01	-6.903443e-02	-1.481716e-01
8.655447e-01	-6.886085e-02	-1.539858e-01
8.835596e-01	-6.841108e-02	-1.611255e-01
8.953254e-01	-6.761668e-02	-1.677082e-01
8.977902e-01	-6.645575e-02	-1.749513e-01
8.991026e-01	-6.491065e-02	-1.814177e-01
8.920647e-01	-6.297108e-02	-1.886205e-01
8.847541e-01	-6.061294e-02	-1.948486e-01
8.704199e-01	-5.780773e-02	-2.030082e-01
8.547797e-01	-5.452297e-02	-2.103004e-01
8.294747e-01	-5.073307e-02	-2.209693e-01
7.985528e-01	-4.642386e-02	-2.294992e-01
7.512034e-01	-4.162830e-02	-2.414380e-01
6.891788e-01	-3.639757e-02	-2.458395e-01
6.025277e-01	-3.076961e-02	-2.499697e-01
4.718505e-01	-2.486724e-02	-2.257600e-01
2.701392e-01	-1.869841e-02	-1.615182e-01
-1.743682e-02	-1.242925e-02	1.336886e-02
-4.218284e-01	-5.861260e-03	5.632454e-01
-3.427048e-01	7.196107e-04	2.173797e+00
2.327103e+00	8.433103e-03	2.330429e+00
2.541763e+00	1.519817e-02	7.853274e-01
2.210602e+00	2.214478e-02	5.701745e-02
1.925565e+00	2.899246e-02	-1.726815e-01
1.720214e+00	3.598224e-02	-3.166776e-01
1.570427e+00	4.294914e-02	-3.760979e-01
1.435572e+00	4.988745e-02	-4.216406e-01
1.336752e+00	5.661869e-02	-4.390496e-01
1.250652e+00	6.302466e-02	-4.543519e-01
1.181709e+00	6.890754e-02	-4.555814e-01
1.121878e+00	7.415187e-02	-4.573300e-01
1.071620e+00	7.862043e-02	-4.520436e-01
1.027479e+00	8.225102e-02	-4.484689e-01
9.872041e-01	8.503602e-02	-4.407932e-01
9.499823e-01	8.702674e-02	-4.347802e-01
9.115298e-01	8.832110e-02	-4.245311e-01
8.743624e-01	8.904740e-02	-4.150014e-01
8.341877e-01	8.935471e-02	-4.008424e-01
7.910591e-01	8.939867e-02	-3.843271e-01
7.483077e-01	8.935300e-02	-3.651813e-01
8.268580e-01	-4.834448e-02	-1.456067e-01
8.473460e-01	-4.822018e-02	-1.507481e-01
8.618087e-01	-4.790165e-02	-1.571590e-01
8.704950e-01	-4.733783e-02	-1.630571e-01
8.702468e-01	-4.650608e-02	-1.695839e-01
8.688630e-01	-4.538758e-02	-1.753160e-01
8.588643e-01	-4.397167e-02	-1.816005e-01
8.479948e-01	-4.224332e-02	-1.867531e-01
8.293251e-01	-4.018773e-02	-1.934237e-01
8.083374e-01	-3.778972e-02	-1.988743e-01
7.765496e-01	-3.501955e-02	-2.068702e-01
7.378899e-01	-3.192761e-02	-2.120650e-01
6.815856e-01	-2.849134e-02	-2.190627e-01
6.085336e-01	-2.476580e-02	-2.170722e-01
5.087332e-01	-2.077692e-02	-2.110573e-01
3.607315e-01	-1.660778e-02	-1.725944e-01
1.373223e-01	-1.226016e-02	-8.210603e-02
-1.815632e-01	-7.847458e-03	1.392050e-01
-6.032660e-01	-3.229870e-03	8.055096e-01
-4.198741e-01	1.389776e-03	2.663287e+00
2.682629e+00	6.790083e-03	2.686462e+00
2.844205e+00	1.150623e-02	8.787725e-01
2.433340e+00	1.632049e-02	6.276245e-02
2.097401e+00	2.102988e-02	-1.880914e-01
1.860537e+00	2.579310e-02	-3.425099e-01
1.689688e+00	3.049055e-02	-4.046594e-01
1.539097e+00	3.511641e-02	-4.520469e-01
1.427836e+00	3.955255e-02	-4.689658e-01
1.330741e+00	4.372708e-02	-4.834475e-01
1.251923e+00	4.753245e-02	-4.826510e-01
1.182685e+00	5.085827e-02	-4.821178e-01
1.123351e+00	5.367577e-02	-4.738657e-01
1.070404e+00	5.593523e-02	-4.672044e-01
1.021751e+00	5.764107e-02	-4.562186e-01
9.765977e-01	5.883454e-02	-4.469613e-01
9.307661e-01	5.958646e-02	-4.334901e-01
8.867534e-01	5.998523e-02	-4.208826e-01
8.402952e-01	6.013165e-02	-4.037772e-01
7.917020e-01	6.012802e-02	-3.846394e-01
7.448106e-01	6.008472e-02	-3.634747e-01
8.205618e-01	-2.041186e-02	-1.444979e-01
8.397202e-01	-2.036002e-02	-1.493914e-01
8.527030e-01	-2.022965e-02	-1.554985e-01
8.598615e-01	-1.999359e-02	-1.610653e-01
8.580705e-01	-1.963495e-02	-1.672112e-01
8.551038e-01	-1.913704e-02	-1.725398e-01
8.434803e-01	-1.849011e-02	-1.783477e-01
8.308764e-01	-1.768886e-02	-1.829831e-01
8.103167e-01	-1.670614e-02	-1.889904e-01
7.869254e-01	-1.558581e-02	-1.936063e-01
7.528564e-01	-1.431364e-02	-2.005584e-01
7.115600e-01	-1.290443e-02	-2.044980e-01
6.517373e-01	-1.134820e-02	-2.094694e-01
5.745785e-01	-9.681117e-03	-2.049600e-01
4.697887e-01	-7.913253e-03	-1.949005e-01
3.150363e-01	-6.077138e-03	-1.507312e-01
8.303428e-02	-4.169461e-03	-4.964681e-02
-2.483681e-01	-2.238142e-03	1.904245e-01
-6.767921e-01	-2.223251e-04	9.036851e-01
-4.509174e-01	1.786067e-03	2.860196e+00
2.823741e+00	4.115307e-03	2.827776e+00
2.961939e+00	6.123401e-03	9.151488e-01
2.517971e+00	8.136995e-03	6.494532e-02
2.160705e+00	1.006094e-02	-1.937684e-01
1.910363e+00	1.195150e-02	-3.516825e-01
1.730296e+00	1.375506e-02	-4.143845e-01
1.572794e+00	1.546713e-02	-4.619441e-01
1.456131e+00	1.704701e-02	-4.782592e-01
1.354658e+00	1.847722e-02	-4.921363e-01
1.271701e+00	1.974332e-02	-4.902759e-01
1.198799e+00	2.080861e-02	-4.886866e-01
1.136484e+00	2.166897e-02	-4.794053e-01
1.080553e+00	2.230606e-02	-4.716344e-01
1.029171e+00	2.277771e-02	-4.595318e-01
9.815357e-01	2.307980e-02	-4.492213e-01
9.334895e-01	2.324447e-02	-4.347585e-01
8.875250e-01	2.330694e-02	-4.212488e-01
8.394022e-01	2.330470e-02	-4.033481e-01
7.894769e-01	2.327424e-02	-3.835584e-01
7.416760e-01	2.324744e-02	-3.619450e-01
8.181577e-01	-1.022092e-02	-1.440746e-01
8.367429e-01	-1.019987e-02	-1.488617e-01
8.489702e-01	-1.014358e-02	-1.548178e-01
8.553561e-01	-1.003776e-02	-1.602213e-01
8.527770e-01	-9.872557e-03	-1.661796e-01
8.489713e-01	-9.624645e-03	-1.713024e-01
8.364796e-01	-9.311941e-03	-1.768674e-01
8.225815e-01	-8.914450e-03	-1.811564e-01
8.009498e-01	-8.441089e-03	-1.868057e-01
7.769271e-01	-7.877171e-03	-1.911464e-01
7.415030e-01	-7.237733e-03	-1.975339e-01
6.983708e-01	-6.500165e-03	-2.007075e-01
6.368103e-01	-5.694597e-03	-2.046719e-01
5.574945e-01	-4.818359e-03	-1.988659e-01
4.500809e-01	-3.883500e-03	-1.867243e-01
2.917879e-01	-2.907453e-03	-1.396079e-01
5.531603e-02	-1.893456e-03	-3.307387e-02
-2.825240e-01	-8.597669e-04	2.166120e-01
-7.143881e-01	2.204388e-04	9.538852e-01
-4.667521e-01	1.280647e-03	2.960637e+00
2.895314e+00	2.539362e-03	2.899452e+00
3.021189e+00	3.603109e-03	9.334554e-01
2.560180e+00	4.662270e-03	6.603402e-02
2.191930e+00	5.665307e-03	-1.965687e-01
1.934676e+00	6.644954e-03	-3.561583e-01
1.749900e+00	7.565105e-03	-4.190794e-01
1.588899e+00	8.429570e-03	-4.666744e-01
1.469543e+00	9.226675e-03	-4.826641e-01
1.365873e+00	9.935493e-03	-4.962107e-01
1.281341e+00	1.055467e-02	-4.939923e-01
1.206799e+00	1.109323e-02	-4.919478e-01
1.142497e+00	1.152465e-02	-4.819420e-01
1.085248e+00	1.186280e-02	-4.736836e-01
1.032973e+00	1.210101e-02	-4.612295e-01
9.842016e-01	1.226114e-02	-4.504414e-01
9.351565e-01	1.234215e-02	-4.355349e-01
8.883147e-01	1.238613e-02	-4.216236e-01
8.394637e-01	1.239634e-02	-4.033776e-01
7.889782e-01	1.238951e-02	-3.833161e-01
7.407065e-01	1.238084e-02	-3.614718e-01
8.170302e-01	-5.654889e-03	-1.438760e-01
8.351881e-01	-5.643765e-03	-1.485851e-01
8.470054e-01	-5.612250e-03	-1.544595e-01
8.529511e-01	-5.552857e-03	-1.597708e-01
8.496161e-01	-5.456641e-03	-1.655637e-01
8.453724e-01	-5.316309e-03	-1.705762e-01
8.324959e-01	-5.144896e-03	-1.760251e-01
8.184765e-01	-4.925109e-03	-1.802523e-01
7.963155e-01	-4.660088e-03	-1.857248e-01
7.711269e-01	-4.324176e-03	-1.897194e-01
7.348606e-01	-3.933118e-03	-1.957644e-01
6.909930e-01	-3.496625e-03	-1.985871e-01
6.283809e-01	-3.024890e-03	-2.019626e-01
5.476717e-01	-2.604331e-03	-1.953620e-01
4.386953e-01	-2.060788e-03	-1.820008e-01
2.783886e-01	-1.452921e-03	-1.331969e-01
3.931047e-02	-8.432193e-04	-2.350402e-02
-3.024326e-01	-2.233338e-04	2.318760e-01
-7.359869e-01	4.247769e-04	9.827249e-01
-4.759268e-01	1.069746e-03	3.018833e+00
2.937424e+00	1.813330e-03	2.941622e+00
3.055295e+00	2.448388e-03	9.439931e-01
2.584353e+00	3.077080e-03	6.665750e-02
2.209821e+00	3.668119e-03	-1.981731e-01
1.948465e+00	4.237992e-03	-3.586968e-01
1.760850e+00	4.761531e-03	-4.217019e-01
1.597931e+00	5.247491e-03	-4.693269e-01
1.476991e+00	5.791489e-03	-4.851103e-01
1.371959e+00	6.195936e-03	-4.984216e-01
1.286311e+00	6.534458e-03	-4.959085e-01
1.210946e+00	6.815457e-03	-4.936382e-01
1.146318e+00	7.044968e-03	-4.835537e-01
1.088276e+00	7.242507e-03	-4.750051e-01
1.034943e+00	7.384946e-03	-4.621088e-01
9.854727e-01	7.483092e-03	-4.510231e-01
9.358725e-01	7.531571e-03	-4.358684e-01
8.888585e-01	7.554906e-03	-4.218817e-01
8.396038e-01	7.561325e-03	-4.034449e-01
7.887830e-01	7.557475e-03	-3.832212e-01
7.403488e-01	7.553213e-03	-3.612973e-01
8.162908e-01	-3.267675e-03	-1.437458e-01
8.342282e-01	-3.274636e-03	-1.484143e-01
8.457746e-01	-3.255349e-03	-1.542350e-01
8.513798e-01	-3.218829e-03	-1.594765e-01
8.479420e-01	-3.157078e-03	-1.652374e-01
8.435655e-01	-3.104391e-03	-1.702116e-01
8.304277e-01	-2.987149e-03	-1.755878e-01
8.156771e-01	-2.843120e-03	-1.796358e-01
7.928336e-01	-2.658734e-03	-1.849128e-01
7.673823e-01	-2.426169e-03	-1.887981e-01
7.306868e-01	-2.186522e-03	-1.946525e-01
6.862646e-01	-1.960453e-03	-1.972282e-01
6.243790e-01	-1.645991e-03	-2.006764e-01
5.432372e-01	-1.427418e-03	-1.937801e-01
4.313872e-01	-1.062485e-03	-1.789689e-01
2.693310e-01	-6.843631e-04	-1.288632e-01
2.905684e-02	-2.882173e-04	-1.737330e-02
-3.149527e-01	1.071910e-04	2.414751e-01
-7.500988e-01	5.194302e-04	1.001568e+00
-4.817665e-01	9.438103e-04	3.055874e+00
2.962861e+00	1.399031e-03	2.967095e+00
3.076731e+00	1.801768e-03	9.506160e-01
2.599420e+00	2.198563e-03	6.704613e-02
2.220667e+00	2.569345e-03	-1.991458e-01
1.956584e+00	2.919930e-03	-3.601914e-01
1.767177e+00	3.246934e-03	-4.232170e-01
1.604554e+00	3.660926e-03	-4.712723e-01
1.482643e+00	3.910960e-03	-4.869668e-01
1.375548e+00	4.161583e-03	-4.997256e-01
1.289158e+00	4.380564e-03	-4.970059e-01
1.213192e+00	4.545772e-03	-4.945538e-01
1.147950e+00	4.651575e-03	-4.842420e-01
1.089802e+00	4.746216e-03	-4.756712e-01
1.036457e+00	4.821204e-03	-4.627850e-01
9.865971e-01	4.867249e-03	-4.515377e-01
9.365323e-01	4.928765e-03	-4.361757e-01
8.890422e-01	4.937851e-03	-4.219689e-01
8.396013e-01	4.939680e-03	-4.034437e-01
7.886065e-01	4.936328e-03	-3.831355e-01
7.400538e-01	4.947211e-03	-3.611533e-01
8.181984e-01	-2.033299e-03	-1.440817e-01
8.341217e-01	-2.029262e-03	-1.483954e-01
8.450429e-01	-2.019071e-03	-1.541016e-01
8.504337e-01	-2.000457e-03	-1.592993e-01
8.473335e-01	-1.970316e-03	-1.651189e-01
8.423716e-01	-2.014245e-03	-1.699707e-01
8.284582e-01	-1.892000e-03	-1.751714e-01
8.137950e-01	-1.787162e-03	-1.792213e-01
7.906844e-01	-1.688133e-03	-1.844115e-01
7.649289e-01	-1.547024e-03	-1.881945e-01
7.287706e-01	-1.391177e-03	-1.941420e-01
6.838061e-01	-1.221558e-03	-1.965217e-01
6.209257e-01	-1.023405e-03	-1.995665e-01
5.390945e-01	-7.451648e-04	-1.923023e-01
4.266017e-01	-5.092551e-04	-1.769836e-01
2.641354e-01	-3.012221e-04	-1.263773e-01
2.238783e-02	-5.706604e-05	-1.338585e-02
-3.230927e-01	1.659286e-04	2.477161e-01
-7.590115e-01	4.276276e-04	1.013468e+00
-4.854987e-01	6.869476e-04	3.079548e+00
2.979591e+00	9.843814e-04	2.983849e+00
3.090417e+00	1.235732e-03	9.548448e-01
2.609035e+00	1.508117e-03	6.729411e-02
2.227658e+00	1.737642e-03	-1.997727e-01
1.962050e+00	1.958189e-03	-3.611977e-01
1.773659e+00	2.172038e-03	-4.247694e-01
1.607876e+00	2.398565e-03	-4.722479e-01
1.483939e+00	2.471071e-03	-4.873924e-01
1.378077e+00	2.615021e-03	-5.006442e-01
1.291157e+00	2.750771e-03	-4.977768e-01
1.214342e+00	2.863105e-03	-4.950224e-01
1.148876e+00	2.953127e-03	-4.846328e-01
1.090544e+00	3.051329e-03	-4.759953e-01
1.036700e+00	3.116523e-03	-4.628934e-01
9.871752e-01	3.237061e-03	-4.518023e-01
9.372726e-01	3.228522e-03	-4.365204e-01
8.891284e-01	3.222555e-03	-4.220098e-01
8.395875e-01	3.219596e-03	-4.034371e-01
7.889170e-01	3.216346e-03	-3.832863e-01
7.420155e-01	3.214055e-03	-3.621106e-01
8.156134e-01	-1.152040e-03	-1.436265e-01
8.333999e-01	-1.135161e-03	-1.482670e-01
8.447646e-01	-1.126728e-03	-1.540509e-01
8.501340e-01	-1.135769e-03	-1.592432e-01
8.483565e-01	-1.115610e-03	-1.653182e-01
8.420272e-01	-1.064141e-03	-1.699012e-01
8.269487e-01	-1.022784e-03	-1.748522e-01
8.127848e-01	-9.940248e-04	-1.789988e-01
7.895868e-01	-1.000759e-03	-1.841555e-01
7.634839e-01	-9.202697e-04	-1.878390e-01
7.264326e-01	-8.168265e-04	-1.935192e-01
6.813663e-01	-6.613750e-04	-1.958205e-01
6.177897e-01	-5.809566e-04	-1.985586e-01
5.355563e-01	-3.459617e-04	-1.910402e-01
4.241242e-01	-2.553705e-04	-1.759557e-01
2.610485e-01	-1.266554e-04	-1.249004e-01
1.901812e-02	1.117499e-05	-1.137108e-02
-3.272336e-01	1.537667e-04	2.508909e-01
-7.644939e-01	3.037877e-04	1.020789e+00
-4.877894e-01	4.532827e-04	3.094078e+00
2.989724e+00	6.253495e-04	2.993997e+00
3.099962e+00	7.715396e-04	9.577938e-01
2.615425e+00	9.152606e-04	6.745894e-02
2.231806e+00	1.049440e-03	-2.001447e-01
1.965308e+00	1.177480e-03	-3.617975e-01
1.774746e+00	1.297718e-03	-4.250297e-01
1.608974e+00	1.324800e-03	-4.725704e-01
1.485679e+00	1.435675e-03	-4.879638e-01
1.379195e+00	1.542760e-03	-5.010504e-01
1.292288e+00	1.603229e-03	-4.982127e-01
1.215726e+00	1.671447e-03	-4.955868e-01
1.150347e+00	1.817043e-03	-4.852535e-01
1.091993e+00	1.837750e-03	-4.766276e-01
1.039084e+00	1.879591e-03	-4.639580e-01
9.885231e-01	1.891483e-03	-4.524192e-01
9.362587e-01	1.876703e-03	-4.360482e-01
8.888299e-01	1.879713e-03	-4.218681e-01
8.394140e-01	1.901432e-03	-4.033538e-01
7.883337e-01	1.898250e-03	-3.830029e-01
7.397030e-01	1.882656e-03	-3.609821e-01
8.153657e-01	-1.387198e-03	-1.435829e-01
8.329716e-01	-1.387252e-03	-1.481908e-01
8.451736e-01	-1.387895e-03	-1.541254e-01
8.500657e-01	-1.369950e-03	-1.592303e-01
8.458361e-01	-1.328150e-03	-1.648271e-01
8.407840e-01	-1.250226e-03	-1.696504e-01
8.273894e-01	-1.152972e-03	-1.749454e-01
8.134981e-01	-1.215236e-03	-1.791559e-01
7.896681e-01	-9.946881e-04	-1.841745e-01
7.625134e-01	-1.042638e-03	-1.876002e-01
7.253898e-01	-6.844208e-04	-1.932414e-01
6.806396e-01	-7.706608e-04	-1.956116e-01
6.166082e-01	-3.335198e-04	-1.981789e-01
5.341459e-01	-3.954862e-04	-1.905371e-01
4.230684e-01	6.555296e-05	-1.755177e-01
2.592334e-01	4.069446e-04	-1.240320e-01
1.640517e-02	6.042369e-04	-9.808771e-03
-3.305724e-01	6.539060e-04	2.534508e-01
-7.672820e-01	7.022356e-04	1.024512e+00
-4.889762e-01	7.637993e-04	3.101606e+00
2.995177e+00	8.457372e-04	2.999458e+00
3.103150e+00	9.256484e-04	9.587787e-01
2.617970e+00	9.931340e-04	6.752458e-02
2.234145e+00	1.106285e-03	-2.003544e-01
1.967030e+00	1.042483e-03	-3.621144e-01
1.776083e+00	8.612982e-04	-4.253500e-01
1.610028e+00	4.825989e-04	-4.728801e-01
1.486962e+00	6.456326e-04	-4.883854e-01
1.380250e+00	3.302601e-04	-5.014338e-01
1.292783e+00	4.616377e-04	-4.984033e-01
1.217013e+00	1.683445e-04	-4.961114e-01
1.151027e+00	3.202862e-04	-4.855400e-01
1.091369e+00	6.217401e-05	-4.763553e-01
1.037492e+00	1.186516e-04	-4.632470e-01
9.871572e-01	-9.866481e-05	-4.517941e-01
9.370237e-01	-4.072777e-05	-4.364045e-01
8.896379e-01	-5.518368e-05	-4.222516e-01
8.402958e-01	-6.123813e-05	-4.037774e-01
7.882313e-01	-5.621032e-05	-3.829532e-01
7.396273e-01	-5.514338e-05	-3.609452e-01
8.156224e-01	-2.116788e-04	-1.436281e-01
8.334453e-01	-2.397682e-04	-1.482751e-01
8.440724e-01	-1.852585e-04	-1.539246e-01
8.485767e-01	-1.323397e-04	-1.589514e-01
8.458838e-01	-1.095569e-04	-1.648364e-01
8.389874e-01	-8.913169e-05	-1.692879e-01
8.265295e-01	-7.194497e-05	-1.747635e-01
8.104110e-01	-5.500091e-05	-1.784761e-01
7.873298e-01	1.379940e-06	-1.836291e-01
7.593855e-01	1.504263e-06	-1.868307e-01
7.228417e-01	3.387992e-06	-1.925626e-01
6.768250e-01	-2.093568e-05	-1.945153e-01
6.123505e-01	-4.007774e-05	-1.968105e-01
5.299944e-01	-2.928687e-05	-1.890562e-01
4.109235e-01	9.020665e-06	-1.704792e-01
2.508770e-01	-1.742295e-05	-1.200338e-01
1.337207e-02	-8.428144e-06	-7.995261e-03
-3.297544e-01	-6.691477e-07	2.528236e-01
-7.674525e-01	5.672805e-06	1.024739e+00
-4.893215e-01	1.087964e-05	3.103796e+00
2.997747e+00	1.623970e-05	3.002031e+00
3.106335e+00	2.060707e-05	9.597628e-01
2.621503e+00	2.484643e-05	6.761569e-02
2.232520e+00	2.848202e-05	-2.002087e-01
1.960173e+00	6.740472e-05	-3.608521e-01
1.764922e+00	7.084578e-05	-4.226770e-01
1.606102e+00	4.543212e-05	-4.717269e-01
1.483352e+00	1.072610e-04	-4.871997e-01
1.376911e+00	1.053637e-04	-5.002207e-01
1.290212e+00	1.058192e-04	-4.974122e-01
1.213929e+00	1.112284e-04	-4.948544e-01
1.149093e+00	8.284311e-05	-4.847245e-01
1.089174e+00	1.039680e-04	-4.753973e-01
1.036966e+00	1.233061e-04	-4.630123e-01
9.856856e-01	1.474666e-04	-4.511206e-01
9.371898e-01	1.732299e-04	-4.364819e-01
8.883379e-01	2.032178e-04	-4.216346e-01
8.393186e-01	2.144768e-04	-4.033079e-01
7.886780e-01	2.929881e-04	-3.831702e-01
7.398664e-01	2.824333e-04	-3.610618e-01
8.200798e-01	1.450612e-03	-1.444130e-01
8.302465e-01	1.451006e-03	-1.477060e-01
8.416156e-01	1.452712e-03	-1.534766e-01
8.482831e-01	1.437375e-03	-1.588964e-01
8.449722e-01	1.399183e-03	-1.646587e-01
8.401397e-01	1.412836e-03	-1.695204e-01
8.268647e-01	1.274452e-03	-1.748344e-01
8.124393e-01	1.336582e-03	-1.789227e-01
7.889211e-01	1.068392e-03	-1.840003e-01
7.624869e-01	1.122239e-03	-1.875937e-01
7.256811e-01	7.752133e-04	-1.933190e-01
6.812208e-01	7.899995e-04	-1.957787e-01
6.167376e-01	3.603720e-04	-1.982205e-01
5.334351e-01	4.520011e-04	-1.902836e-01
4.228070e-01	-4.203800e-05	-1.754092e-01
2.596130e-01	-3.820165e-04	-1.242136e-01
1.604396e-02	-5.787972e-04	-9.592800e-03
-3.309402e-01	-6.035584e-04	2.537328e-01
-7.676072e-01	-6.542901e-04	1.024946e+00
-4.890916e-01	-7.475877e-04	3.102338e+00
2.995652e+00	-8.338629e-04	2.999933e+00
3.103527e+00	-8.887579e-04	9.588953e-01
2.618222e+00	-9.856470e-04	6.753106e-02
2.235302e+00	-1.100541e-03	-2.004582e-01
1.967819e+00	-1.039437e-03	-3.622596e-01
1.775674e+00	-8.284243e-04	-4.252521e-01
1.610644e+00	-4.838949e-04	-4.730610e-01
1.487766e+00	-6.522527e-04	-4.886492e-01
1.380232e+00	-3.461283e-04	-5.014272e-01
1.292857e+00	-4.085256e-04	-4.984320e-01
1.216728e+00	-1.265064e-04	-4.959950e-01
1.150922e+00	-2.243532e-04	-4.854959e-01
1.091909e+00	-1.122840e-05	-4.765910e-01
1.038113e+00	-1.112341e-04	-4.635242e-01
9.879533e-01	-8.565047e-07	-4.521584e-01
9.380510e-01	-3.347533e-05	-4.368830e-01
8.906327e-01	-7.034631e-06	-4.227238e-01
8.426379e-01	1.971726e-06	-4.049029e-01
7.927547e-01	-2.404753e-06	-3.851508e-01
7.380109e-01	-3.411190e-06	-3.601563e-01
8.155562e-01	1.508579e-03	-1.436165e-01
8.333162e-01	1.533895e-03	-1.482521e-01
8.446329e-01	1.470910e-03	-1.540268e-01
8.499767e-01	1.434333e-03	-1.592137e-01
8.462806e-01	1.298685e-03	-1.649137e-01
8.413092e-01	1.253870e-03	-1.697563e-01
8.275527e-01	1.195577e-03	-1.749799e-01
8.134844e-01	1.121423e-03	-1.791529e-01
7.901355e-01	1.076342e-03	-1.842835e-01
7.632593e-01	9.795659e-04	-1.877838e-01
7.272140e-01	8.749146e-04	-1.937274e-01
6.822403e-01	7.902133e-04	-1.960717e-01
6.172826e-01	6.967471e-04	-1.983956e-01
5.355609e-01	5.358365e-04	-1.910419e-01
4.246751e-01	3.902890e-04	-1.761843e-01
2.610115e-01	2.730276e-04	-1.248827e-01
1.853536e-02	1.147385e-04	-1.108243e-02
-3.279237e-01	-4.511214e-05	2.514201e-01
-7.637173e-01	-2.105275e-04	1.019752e+00
-4.873418e-01	-3.739968e-04	3.091239e+00
2.991007e+00	-5.616317e-04	2.995282e+00
3.099279e+00	-7.211629e-04	9.575828e-01
2.614562e+00	-8.783243e-04	6.743667e-02
2.231693e+00	-1.025059e-03	-2.001346e-01
1.965911e+00	-1.200368e-03	-3.619085e-01
1.774600e+00	-1.329798e-03	-4.249949e-01
1.608396e+00	-1.451077e-03	-4.724008e-01
1.485475e+00	-1.595478e-03	-4.878968e-01
1.379995e+00	-1.695392e-03	-5.013409e-01
1.293010e+00	-1.776880e-03	-4.984912e-01
1.216258e+00	-1.849276e-03	-4.958036e-01
1.150488e+00	-1.947959e-03	-4.853126e-01
1.090813e+00	-1.996033e-03	-4.761125e-01
1.036969e+00	-2.031625e-03	-4.630135e-01
9.870792e-01	-2.072645e-03	-4.517584e-01
9.369739e-01	-2.116196e-03	-4.363813e-01
8.891967e-01	-2.061260e-03	-4.220422e-01
8.395370e-01	-2.104702e-03	-4.034128e-01
7.883758e-01	-2.181581e-03	-3.830234e-01
7.397122e-01	-2.169985e-03	-3.609866e-01
8.158311e-01	2.157766e-03	-1.436649e-01
8.336404e-01	2.153351e-03	-1.483098e-01
8.447554e-01	2.146615e-03	-1.540492e-01
8.528681e-01	2.047187e-03	-1.597553e-01
8.484297e-01	2.014576e-03	-1.653325e-01
8.419313e-01	1.977379e-03	-1.698819e-01
8.289133e-01	1.897365e-03	-1.752676e-01
8.141195e-01	1.801655e-03	-1.792928e-01
7.908460e-01	1.702583e-03	-1.844492e-01
7.651311e-01	1.556749e-03	-1.882443e-01
7.281583e-01	1.387775e-03	-1.939789e-01
6.835952e-01	1.283356e-03	-1.964610e-01
6.202451e-01	1.059992e-03	-1.993478e-01
5.380062e-01	8.490261e-04	-1.919142e-01