# vtk DataFile Version 2.0
OUTPUT by 3D-VPM
ASCII
DATASET UNSTRUCTURED_GRID
POINTS 820 double
9.510565e-01	0.000000e+00	-3.090170e-01
9.442611e-01	0.000000e+00	-3.078203e-01
9.267277e-01	0.000000e+00	-3.047010e-01
8.963175e-01	0.000000e+00	-2.991555e-01
8.562911e-01	0.000000e+00	-2.916579e-01
8.054250e-01	0.000000e+00	-2.817457e-01
7.470317e-01	0.000000e+00	-2.699633e-01
6.809074e-01	0.000000e+00	-2.559818e-01
6.100852e-01	0.000000e+00	-2.403847e-01
5.354138e-01	0.000000e+00	-2.229691e-01
4.593635e-01	0.000000e+00	-2.042585e-01
3.837764e-01	0.000000e+00	-1.841224e-01
3.103069e-01	0.000000e+00	-1.630077e-01
2.415927e-01	0.000000e+00	-1.409228e-01
1.782654e-01	0.000000e+00	-1.183331e-01
1.234349e-01	0.000000e+00	-9.558566e-02
7.662509e-02	0.000000e+00	-7.318920e-02
4.106998e-02	0.000000e+00	-5.193053e-02
1.528206e-02	0.000000e+00	-3.215886e-02
2.347037e-03	0.000000e+00	-1.488740e-02
0.000000e+00	0.000000e+00	0.000000e+00
1.064939e-02	0.000000e+00	1.066461e-02
3.126595e-02	0.000000e+00	1.703450e-02
6.375031e-02	0.000000e+00	1.787236e-02
1.050105e-01	0.000000e+00	1.417221e-02
1.560448e-01	0.000000e+00	4.777214e-03
2.137742e-01	0.000000e+00	-9.048270e-03
2.782849e-01	0.000000e+00	-2.799567e-02
3.468570e-01	0.000000e+00	-5.051783e-02
4.187060e-01	0.000000e+00	-7.662000e-02
4.916930e-01	0.000000e+00	-1.047585e-01
5.642168e-01	0.000000e+00	-1.343226e-01
6.348639e-01	0.000000e+00	-1.641238e-01
7.013280e-01	0.000000e+00	-1.931337e-01
7.630418e-01	0.000000e+00	-2.206893e-01
8.172084e-01	0.000000e+00	-2.454799e-01
8.641863e-01	0.000000e+00	-2.673591e-01
9.009752e-01	0.000000e+00	-2.848204e-01
9.288372e-01	0.000000e+00	-2.982085e-01
9.448555e-01	0.000000e+00	-3.059908e-01
9.510565e-01	0.000000e+00	-3.090170e-01
9.510565e-01	1.052632e+00	-3.090170e-01
9.442611e-01	1.052632e+00	-3.078203e-01
9.267277e-01	1.052632e+00	-3.047010e-01
8.963175e-01	1.052632e+00	-2.991555e-01
8.562911e-01	1.052632e+00	-2.916579e-01
8.054250e-01	1.052632e+00	-2.817457e-01
7.470317e-01	1.052632e+00	-2.699633e-01
6.809074e-01	1.052632e+00	-2.559818e-01
6.100852e-01	1.052632e+00	-2.403847e-01
5.354138e-01	1.052632e+00	-2.229691e-01
4.593635e-01	1.052632e+00	-2.042585e-01
3.837764e-01	1.052632e+00	-1.841224e-01
3.103069e-01	1.052632e+00	-1.630077e-01
2.415927e-01	1.052632e+00	-1.409228e-01
1.782654e-01	1.052632e+00	-1.183331e-01
1.234349e-01	1.052632e+00	-9.558566e-02
7.662509e-02	1.052632e+00	-7.318920e-02
4.106998e-02	1.052632e+00	-5.193053e-02
1.528206e-02	1.052632e+00	-3.215886e-02
2.347037e-03	1.052632e+00	-1.488740e-02
0.000000e+00	1.052632e+00	0.000000e+00
1.064939e-02	1.052632e+00	1.066461e-02
3.126595e-02	1.052632e+00	1.703450e-02
6.375031e-02	1.052632e+00	1.787236e-02
1.050105e-01	1.052632e+00	1.417221e-02
1.560448e-01	1.052632e+00	4.777214e-03
2.137742e-01	1.052632e+00	-9.048270e-03
2.782849e-01	1.052632e+00	-2.799567e-02
3.468570e-01	1.052632e+00	-5.051783e-02
4.187060e-01	1.052632e+00	-7.662000e-02
4.916930e-01	1.052632e+00	-1.047585e-01
5.642168e-01	1.052632e+00	-1.343226e-01
6.348639e-01	1.052632e+00	-1.641238e-01
7.013280e-01	1.052632e+00	-1.931337e-01
7.630418e-01	1.052632e+00	-2.206893e-01
8.172084e-01	1.052632e+00	-2.454799e-01
8.641863e-01	1.052632e+00	-2.673591e-01
9.009752e-01	1.052632e+00	-2.848204e-01
9.288372e-01	1.052632e+00	-2.982085e-01
9.448555e-01	1.052632e+00	-3.059908e-01
9.510565e-01	1.052632e+00	-3.090170e-01
9.510565e-01	2.105263e+00	-3.090170e-01
9.442611e-01	2.105263e+00	-3.078203e-01
9.267277e-01	2.105263e+00	-3.047010e-01
8.963175e-01	2.105263e+00	-2.991555e-01
8.562911e-01	2.105263e+00	-2.916579e-01
8.054250e-01	2.105263e+00	-2.817457e-01
7.470317e-01	2.105263e+00	-2.699633e-01
6.809074e-01	2.105263e+00	-2.559818e-01
6.100852e-01	2.105263e+00	-2.403847e-01
5.354138e-01	2.105263e+00	-2.229691e-01
4.593635e-01	2.105263e+00	-2.042585e-01
3.837764e-01	2.105263e+00	-1.841224e-01
3.103069e-01	2.105263e+00	-1.630077e-01
2.415927e-01	2.105263e+00	-1.409228e-01
1.782654e-01	2.105263e+00	-1.183331e-01
1.234349e-01	2.105263e+00	-9.558566e-02
7.662509e-02	2.105263e+00	-7.318920e-02
4.106998e-02	2.105263e+00	-5.193053e-02
1.528206e-02	2.105263e+00	-3.215886e-02
2.347037e-03	2.105263e+00	-1.488740e-02
0.000000e+00	2.105263e+00	0.000000e+00
1.064939e-02	2.105263e+00	1.066461e-02
3.126595e-02	2.105263e+00	1.703450e-02
6.375031e-02	2.105263e+00	1.787236e-02
1.050105e-01	2.105263e+00	1.417221e-02
1.560448e-01	2.105263e+00	4.777214e-03
2.137742e-01	2.105263e+00	-9.048270e-03
2.782849e-01	2.105263e+00	-2.799567e-02
3.468570e-01	2.105263e+00	-5.051783e-02
4.187060e-01	2.105263e+00	-7.662000e-02
4.916930e-01	2.105263e+00	-1.047585e-01
5.642168e-01	2.105263e+00	-1.343226e-01
6.348639e-01	2.105263e+00	-1.641238e-01
7.013280e-01	2.105263e+00	-1.931337e-01
7.630418e-01	2.105263e+00	-2.206893e-01
8.172084e-01	2.105263e+00	-2.454799e-01
8.641863e-01	2.105263e+00	-2.673591e-01
9.009752e-01	2.105263e+00	-2.848204e-01
9.288372e-01	2.105263e+00	-2.982085e-01
9.448555e-01	2.105263e+00	-3.059908e-01
9.510565e-01	2.105263e+00	-3.090170e-01
9.510565e-01	3.157895e+00	-3.090170e-01
9.442611e-01	3.157895e+00	-3.078203e-01
9.267277e-01	3.157895e+00	-3.047010e-01
8.963175e-01	3.157895e+00	-2.991555e-01
8.562911e-01	3.157895e+00	-2.916579e-01
8.054250e-01	3.157895e+00	-2.817457e-01
7.470317e-01	3.157895e+00	-2.699633e-01
6.809074e-01	3.157895e+00	-2.559818e-01
6.100852e-01	3.157895e+00	-2.403847e-01
5.354138e-01	3.157895e+00	-2.229691e-01
4.593635e-01	3.157895e+00	-2.042585e-01
3.837764e-01	3.157895e+00	-1.841224e-01
3.103069e-01	3.157895e+00	-1.630077e-01
2.415927e-01	3.157895e+00	-1.409228e-01
1.782654e-01	3.157895e+00	-1.183331e-01
1.234349e-01	3.157895e+00	-9.558566e-02
7.662509e-02	3.157895e+00	-7.318920e-02
4.106998e-02	3.157895e+00	-5.193053e-02
1.528206e-02	3.157895e+00	-3.215886e-02
2.347037e-03	3.157895e+00	-1.488740e-02
0.000000e+00	3.157895e+00	0.000000e+00
1.064939e-02	3.157895e+00	1.066461e-02
3.126595e-02	3.157895e+00	1.703450e-02
6.375031e-02	3.157895e+00	1.787236e-02
1.050105e-01	3.157895e+00	1.417221e-02
1.560448e-01	3.157895e+00	4.777214e-03
2.137742e-01	3.157895e+00	-9.048270e-03
2.782849e-01	3.157895e+00	-2.799567e-02
3.468570e-01	3.157895e+00	-5.051783e-02
4.187060e-01	3.157895e+00	-7.662000e-02
4.916930e-01	3.157895e+00	-1.047585e-01
5.642168e-01	3.157895e+00	-1.343226e-01
6.348639e-01	3.157895e+00	-1.641238e-01
7.013280e-01	3.157895e+00	-1.931337e-01
7.630418e-01	3.157895e+00	-2.206893e-01
8.172084e-01	3.157895e+00	-2.454799e-01
8.641863e-01	3.157895e+00	-2.673591e-01
9.009752e-01	3.157895e+00	-2.848204e-01
9.288372e-01	3.157895e+00	-2.982085e-01
9.448555e-01	3.157895e+00	-3.059908e-01
9.510565e-01	3.157895e+00	-3.090170e-01
9.510565e-01	4.210526e+00	-3.090170e-01
9.442611e-01	4.210526e+00	-3.078203e-01
9.267277e-01	4.210526e+00	-3.047010e-01
8.963175e-01	4.210526e+00	-2.991555e-01
8.562911e-01	4.210526e+00	-2.916579e-01
8.054250e-01	4.210526e+00	-2.817457e-01
7.470317e-01	4.210526e+00	-2.699633e-01
6.809074e-01	4.210526e+00	-2.559818e-01
6.100852e-01	4.210526e+00	-2.403847e-01
5.354138e-01	4.210526e+00	-2.229691e-01
4.593635e-01	4.210526e+00	-2.042585e-01
3.837764e-01	4.210526e+00	-1.841224e-01
3.103069e-01	4.210526e+00	-1.630077e-01
2.415927e-01	4.210526e+00	-1.409228e-01
1.782654e-01	4.210526e+00	-1.183331e-01
1.234349e-01	4.210526e+00	-9.558566e-02
7.662509e-02	4.210526e+00	-7.318920e-02
4.106998e-02	4.210526e+00	-5.193053e-02
1.528206e-02	4.210526e+00	-3.215886e-02
2.347037e-03	4.210526e+00	-1.488740e-02
0.000000e+00	4.210526e+00	0.000000e+00
1.064939e-02	4.210526e+00	1.066461e-02
3.126595e-02	4.210526e+00	1.703450e-02
6.375031e-02	4.210526e+00	1.787236e-02
1.050105e-01	4.210526e+00	1.417221e-02
1.560448e-01	4.210526e+00	4.777214e-03
2.137742e-01	4.210526e+00	-9.048270e-03
2.782849e-01	4.210526e+00	-2.799567e-02
3.468570e-01	4.210526e+00	-5.051783e-02
4.187060e-01	4.210526e+00	-7.662000e-02
4.916930e-01	4.210526e+00	-1.047585e-01
5.642168e-01	4.210526e+00	-1.343226e-01
6.348639e-01	4.210526e+00	-1.641238e-01
7.013280e-01	4.210526e+00	-1.931337e-01
7.630418e-01	4.210526e+00	-2.206893e-01
8.172084e-01	4.210526e+00	-2.454799e-01
8.641863e-01	4.210526e+00	-2.673591e-01
9.009752e-01	4.210526e+00	-2.848204e-01
9.288372e-01	4.210526e+00	-2.982085e-01
9.448555e-01	4.210526e+00	-3.059908e-01
9.510565e-01	4.210526e+00	-3.090170e-01
9.510565e-01	5.263158e+00	-3.090170e-01
9.442611e-01	5.263158e+00	-3.078203e-01
9.267277e-01	5.263158e+00	-3.047010e-01
8.963175e-01	5.263158e+00	-2.991555e-01
8.562911e-01	5.263158e+00	-2.916579e-01
8.054250e-01	5.263158e+00	-2.817457e-01
7.470317e-01	5.263158e+00	-2.699633e-01
6.809074e-01	5.263158e+00	-2.559818e-01
6.100852e-01	5.263158e+00	-2.403847e-01
5.354138e-01	5.263158e+00	-2.229691e-01
4.593635e-01	5.263158e+00	-2.042585e-01
3.837764e-01	5.263158e+00	-1.841224e-01
3.103069e-01	5.263158e+00	-1.630077e-01
2.415927e-01	5.263158e+00	-1.409228e-01
1.782654e-01	5.263158e+00	-1.183331e-01
1.234349e-01	5.263158e+00	-9.558566e-02
7.662509e-02	5.263158e+00	-7.318920e-02
4.106998e-02	5.263158e+00	-5.193053e-02
1.528206e-02	5.263158e+00	-3.215886e-02
2.347037e-03	5.263158e+00	-1.488740e-02
0.000000e+00	5.263158e+00	0.000000e+00
1.064939e-02	5.263158e+00	1.066461e-02
3.126595e-02	5.263158e+00	1.703450e-02
6.375031e-02	5.263158e+00	1.787236e-02
1.050105e-01	5.263158e+00	1.417221e-02
1.560448e-01	5.263158e+00	4.777214e-03
2.137742e-01	5.263158e+00	-9.048270e-03
2.782849e-01	5.263158e+00	-2.799567e-02
3.468570e-01	5.263158e+00	-5.051783e-02
4.187060e-01	5.263158e+00	-7.662000e-02
4.916930e-01	5.263158e+00	-1.047585e-01
5.642168e-01	5.263158e+00	-1.343226e-01
6.348639e-01	5.263158e+00	-1.641238e-01
7.013280e-01	5.263158e+00	-1.931337e-01
7.630418e-01	5.263158e+00	-2.206893e-01
8.172084e-01	5.263158e+00	-2.454799e-01
8.641863e-01	5.263158e+00	-2.673591e-01
9.009752e-01	5.263158e+00	-2.848204e-01
9.288372e-01	5.263158e+00	-2.982085e-01
9.448555e-01	5.263158e+00	-3.059908e-01
9.510565e-01	5.263158e+00	-3.090170e-01
9.510565e-01	6.315789e+00	-3.090170e-01
9.442611e-01	6.315789e+00	-3.078203e-01
[...]
CELL_DATA 760
VECTORS V double
8.414261e-01	-6.903126e-02	-1.481721e-01
8.655477e-01	-6.885768e-02	-1.539863e-01
8.835633e-01	-6.840794e-02	-1.611262e-01
8.953300e-01	-6.761357e-02	-1.677090e-01
8.977957e-01	-6.645268e-02	-1.749524e-01
8.991091e-01	-6.490762e-02	-1.814190e-01
8.920721e-01	-6.296809e-02	-1.886220e-01
8.847625e-01	-6.061002e-02	-1.948504e-01
8.704291e-01	-5.780493e-02	-2.030104e-01
8.547899e-01	-5.452026e-02	-2.103029e-01
8.294862e-01	-5.073052e-02	-2.209723e-01
7.985655e-01	-4.642149e-02	-2.295028e-01
7.512176e-01	-4.162618e-02	-2.414426e-01
6.891952e-01	-3.639571e-02	-2.458453e-01
6.025468e-01	-3.076805e-02	-2.499776e-01
4.718731e-01	-2.486600e-02	-2.257708e-01
2.701664e-01	-1.869753e-02	-1.615345e-01
-1.740107e-02	-1.242870e-02	1.334145e-02
-4.217881e-01	-5.860934e-03	5.631916e-01
-3.426883e-01	7.196365e-04	2.173693e+00
2.327029e+00	8.432809e-03	2.330354e+00
2.541705e+00	1.519763e-02	7.853092e-01
2.210561e+00	2.214389e-02	5.701638e-02
1.925533e+00	2.899133e-02	-1.726786e-01
1.720190e+00	3.598093e-02	-3.166732e-01
1.570409e+00	4.294760e-02	-3.760936e-01
1.435558e+00	4.988568e-02	-4.216364e-01
1.336741e+00	5.661666e-02	-4.390460e-01
1.250644e+00	6.302238e-02	-4.543488e-01
1.181702e+00	6.890499e-02	-4.555789e-01
1.121873e+00	7.414900e-02	-4.573279e-01
1.071616e+00	7.861731e-02	-4.520420e-01
1.027476e+00	8.224771e-02	-4.484677e-01
9.872022e-01	8.503249e-02	-4.407923e-01
9.499811e-01	8.702303e-02	-4.347796e-01
9.115293e-01	8.831725e-02	-4.245309e-01
8.743624e-01	8.904346e-02	-4.150014e-01
8.341882e-01	8.935072e-02	-4.008426e-01
7.910600e-01	8.939466e-02	-3.843275e-01
7.483089e-01	8.934898e-02	-3.651819e-01
8.268608e-01	-4.834284e-02	-1.456072e-01
8.473496e-01	-4.821854e-02	-1.507487e-01
8.618133e-01	-4.790003e-02	-1.571598e-01
8.705006e-01	-4.733625e-02	-1.630581e-01
8.702531e-01	-4.650455e-02	-1.695852e-01
8.688702e-01	-4.538611e-02	-1.753175e-01
8.588725e-01	-4.397025e-02	-1.816022e-01
8.480045e-01	-4.224197e-02	-1.867552e-01
8.293357e-01	-4.018646e-02	-1.934262e-01
8.083492e-01	-3.778853e-02	-1.988772e-01
7.765633e-01	-3.501845e-02	-2.068739e-01
7.379055e-01	-3.192664e-02	-2.120695e-01
6.816033e-01	-2.849048e-02	-2.190684e-01
6.085541e-01	-2.476507e-02	-2.170796e-01
5.087572e-01	-2.077633e-02	-2.110673e-01
3.607603e-01	-1.660733e-02	-1.726081e-01
1.373570e-01	-1.225985e-02	-8.212676e-02
-1.815202e-01	-7.847291e-03	1.391721e-01
-6.032186e-01	-3.229797e-03	8.054463e-01
-4.198542e-01	1.389720e-03	2.663161e+00
2.682540e+00	6.789894e-03	2.686373e+00
2.844132e+00	1.150593e-02	8.787502e-01
2.433289e+00	1.632004e-02	6.276114e-02
2.097364e+00	2.102931e-02	-1.880882e-01
1.860509e+00	2.579245e-02	-3.425048e-01
1.689666e+00	3.048980e-02	-4.046542e-01
1.539079e+00	3.511555e-02	-4.520417e-01
1.427822e+00	3.955157e-02	-4.689610e-01
1.330729e+00	4.372603e-02	-4.834432e-01
1.251913e+00	4.753125e-02	-4.826470e-01
1.182677e+00	5.085693e-02	-4.821143e-01
1.123345e+00	5.367429e-02	-4.738629e-01
1.070398e+00	5.593362e-02	-4.672020e-01
1.021746e+00	5.763935e-02	-4.562164e-01
9.765940e-01	5.883271e-02	-4.469596e-01
9.307634e-01	5.958456e-02	-4.334889e-01
8.867517e-01	5.998329e-02	-4.208817e-01
8.402945e-01	6.012969e-02	-4.037768e-01
7.917022e-01	6.012606e-02	-3.846395e-01
7.448114e-01	6.008276e-02	-3.634751e-01
8.205658e-01	-2.041370e-02	-1.444986e-01
8.397251e-01	-2.036187e-02	-1.493923e-01
8.527088e-01	-2.023153e-02	-1.554996e-01
8.598682e-01	-1.999552e-02	-1.610665e-01
8.580782e-01	-1.963692e-02	-1.672127e-01
8.551123e-01	-1.913906e-02	-1.725415e-01
8.434897e-01	-1.849217e-02	-1.783496e-01
8.308867e-01	-1.769092e-02	-1.829854e-01
8.103281e-01	-1.670818e-02	-1.889930e-01
7.869380e-01	-1.558782e-02	-1.936094e-01
7.528707e-01	-1.431556e-02	-2.005622e-01
7.115759e-01	-1.290623e-02	-2.045025e-01
6.517549e-01	-1.134984e-02	-2.094751e-01
5.745988e-01	-9.682586e-03	-2.049672e-01
4.698125e-01	-7.914558e-03	-1.949103e-01
3.150640e-01	-6.078219e-03	-1.507445e-01
8.306744e-02	-4.170306e-03	-4.966664e-02
-2.483261e-01	-2.238746e-03	1.903923e-01
-6.767458e-01	-2.226772e-04	9.036234e-01
-4.508980e-01	1.785964e-03	2.860074e+00
2.823654e+00	4.115490e-03	2.827689e+00
2.961868e+00	6.123825e-03	9.151270e-01
2.517920e+00	8.137658e-03	6.494402e-02
2.160668e+00	1.006183e-02	-1.937652e-01
1.910336e+00	1.195260e-02	-3.516775e-01
1.730274e+00	1.375641e-02	-4.143793e-01
1.572777e+00	1.546864e-02	-4.619390e-01
1.456118e+00	1.704868e-02	-4.782547e-01
1.354646e+00	1.847902e-02	-4.921321e-01
1.271691e+00	1.974521e-02	-4.902720e-01
1.198791e+00	2.081061e-02	-4.886831e-01
1.136476e+00	2.167102e-02	-4.794022e-01
1.080547e+00	2.230813e-02	-4.716317e-01
1.029166e+00	2.277978e-02	-4.595296e-01
9.815319e-01	2.308189e-02	-4.492195e-01
9.334868e-01	2.324656e-02	-4.347573e-01
8.875235e-01	2.330906e-02	-4.212481e-01
8.394019e-01	2.330684e-02	-4.033479e-01
7.894776e-01	2.327639e-02	-3.835587e-01
7.416775e-01	2.324961e-02	-3.619457e-01
8.181631e-01	-1.023303e-02	-1.440755e-01
8.367491e-01	-1.021195e-02	-1.488628e-01
8.489773e-01	-1.015555e-02	-1.548191e-01
8.553640e-01	-1.004955e-02	-1.602228e-01
8.527854e-01	-9.884062e-03	-1.661813e-01
8.489800e-01	-9.635765e-03	-1.713041e-01
8.364884e-01	-9.322558e-03	-1.768693e-01
8.225908e-01	-8.924472e-03	-1.811584e-01
8.009596e-01	-8.450431e-03	-1.868080e-01
7.769374e-01	-7.885758e-03	-1.911490e-01
7.415140e-01	-7.245514e-03	-1.975368e-01
6.983827e-01	-6.507058e-03	-2.007109e-01
6.368235e-01	-5.700619e-03	-2.046761e-01
5.575100e-01	-4.823495e-03	-1.988714e-01
4.500987e-01	-3.887737e-03	-1.867317e-01
2.918083e-01	-2.910794e-03	-1.396176e-01
5.534053e-02	-1.895991e-03	-3.308851e-02
-2.824937e-01	-8.614292e-04	2.165887e-01
-7.143546e-01	2.196555e-04	9.538404e-01
-4.667380e-01	1.280714e-03	2.960548e+00
2.895251e+00	2.540389e-03	2.899389e+00
3.021138e+00	3.604952e-03	9.334395e-01
2.560145e+00	4.664926e-03	6.603309e-02
2.191904e+00	5.668833e-03	-1.965664e-01
1.934657e+00	6.649245e-03	-3.561549e-01
1.749885e+00	7.570118e-03	-4.190758e-01
1.588887e+00	8.435268e-03	-4.666706e-01
1.469532e+00	9.232995e-03	-4.826606e-01
1.365864e+00	9.942321e-03	-4.962074e-01
1.281333e+00	1.056192e-02	-4.939893e-01
1.206793e+00	1.110084e-02	-4.919451e-01
1.142491e+00	1.153250e-02	-4.819396e-01
1.085243e+00	1.187080e-02	-4.736814e-01
1.032969e+00	1.210907e-02	-4.612275e-01
9.841983e-01	1.226920e-02	-4.504399e-01
9.351544e-01	1.235018e-02	-4.355339e-01
8.883138e-01	1.239412e-02	-4.216231e-01
8.394640e-01	1.240428e-02	-4.033778e-01
7.889797e-01	1.239741e-02	-3.833168e-01
7.407091e-01	1.238873e-02	-3.614731e-01
8.170279e-01	-5.682993e-03	-1.438756e-01
8.351850e-01	-5.671908e-03	-1.485846e-01
8.470013e-01	-5.640455e-03	-1.544587e-01
8.529459e-01	-5.581042e-03	-1.597699e-01
8.496101e-01	-5.484583e-03	-1.655625e-01
8.453655e-01	-5.343665e-03	-1.705748e-01
8.324884e-01	-5.171268e-03	-1.760235e-01
8.184687e-01	-4.950126e-03	-1.802506e-01
7.963074e-01	-4.683400e-03	-1.857230e-01
7.711190e-01	-4.345540e-03	-1.897175e-01
7.348528e-01	-3.952332e-03	-1.957623e-01
6.909855e-01	-3.513679e-03	-1.985850e-01
6.283741e-01	-3.039727e-03	-2.019605e-01
5.476655e-01	-2.616938e-03	-1.953597e-01
4.386898e-01	-2.071213e-03	-1.819985e-01
2.783848e-01	-1.461300e-03	-1.331951e-01
3.930791e-02	-8.495541e-04	-2.350249e-02
-3.024355e-01	-2.277124e-04	2.318782e-01
-7.359885e-01	4.223788e-04	9.827271e-01
-4.759271e-01	1.069292e-03	3.018834e+00
2.937425e+00	1.815141e-03	2.941623e+00
3.055296e+00	2.452198e-03	9.439935e-01
2.584357e+00	3.082973e-03	6.665761e-02
2.209825e+00	3.676111e-03	-1.981735e-01
1.948467e+00	4.248152e-03	-3.586973e-01
1.760853e+00	4.773927e-03	-4.217026e-01
1.597933e+00	5.262192e-03	-4.693276e-01
1.476993e+00	5.808552e-03	-4.851110e-01
1.371960e+00	6.215347e-03	-4.984218e-01
1.286311e+00	6.556104e-03	-4.959083e-01
1.210945e+00	6.839134e-03	-4.936378e-01
1.146316e+00	7.070368e-03	-4.835527e-01
1.088272e+00	7.269210e-03	-4.750036e-01
1.034938e+00	7.412510e-03	-4.621069e-01
9.854684e-01	7.511037e-03	-4.510211e-01
9.358685e-01	7.559531e-03	-4.358665e-01
8.888549e-01	7.582677e-03	-4.218800e-01
8.396009e-01	7.588890e-03	-4.034435e-01
7.887807e-01	7.584928e-03	-3.832201e-01
7.403469e-01	7.580645e-03	-3.612964e-01
8.163027e-01	-3.391189e-03	-1.437479e-01
8.342399e-01	-3.382393e-03	-1.484164e-01
8.457826e-01	-3.359349e-03	-1.542365e-01
8.513805e-01	-3.316371e-03	-1.594766e-01
8.479331e-01	-3.246379e-03	-1.652357e-01
8.435467e-01	-3.184419e-03	-1.702078e-01
8.304003e-01	-3.057619e-03	-1.755820e-01
8.156428e-01	-2.904281e-03	-1.796282e-01
7.927942e-01	-2.711207e-03	-1.849036e-01
7.673388e-01	-2.470793e-03	-1.887874e-01
7.306415e-01	-2.224153e-03	-1.946404e-01
6.862182e-01	-1.991982e-03	-1.972149e-01
6.243304e-01	-1.672190e-03	-2.006608e-01
5.431870e-01	-1.448979e-03	-1.937622e-01
4.313360e-01	-1.079966e-03	-1.789477e-01
2.692759e-01	-6.981804e-04	-1.288368e-01
2.899559e-02	-2.986432e-04	-1.733668e-02
-3.150233e-01	9.981873e-05	2.415292e-01
-7.501737e-01	5.150767e-04	1.001668e+00
-4.817979e-01	9.424029e-04	3.056073e+00
2.963008e+00	1.401097e-03	2.967242e+00
3.076860e+00	1.806987e-03	9.506559e-01
2.599520e+00	2.207210e-03	6.704869e-02
2.220748e+00	2.581548e-03	-1.991530e-01
1.956654e+00	2.936190e-03	-3.602043e-01
1.767240e+00	3.267817e-03	-4.232322e-01
1.604612e+00	3.687100e-03	-4.712893e-01
1.482698e+00	3.943174e-03	-4.869848e-01
1.375599e+00	4.200702e-03	-4.997440e-01
1.289204e+00	4.427528e-03	-4.970237e-01
1.213232e+00	4.601425e-03	-4.945702e-01
1.147982e+00	4.716660e-03	-4.842559e-01
1.089826e+00	4.821076e-03	-4.756816e-01
1.036471e+00	4.905631e-03	-4.627911e-01
9.866006e-01	4.960265e-03	-4.515393e-01
9.365273e-01	5.028516e-03	-4.361733e-01
8.890323e-01	5.041868e-03	-4.219642e-01
8.395915e-01	5.045435e-03	-4.034390e-01
7.886004e-01	5.042284e-03	-3.831325e-01
7.400530e-01	5.038468e-03	-3.611529e-01
8.155516e-01	-2.037046e-03	-1.436157e-01
8.333234e-01	-2.032740e-03	-1.482534e-01
8.446825e-01	-2.021877e-03	-1.540359e-01
8.500583e-01	-2.002231e-03	-1.592290e-01
8.469736e-01	-1.970873e-03	-1.650487e-01
8.420399e-01	-2.013594e-03	-1.699038e-01
8.281607e-01	-1.890276e-03	-1.751085e-01
8.135319e-01	-1.784583e-03	-1.791634e-01
7.904537e-01	-1.684943e-03	-1.843577e-01
7.647263e-01	-1.543473e-03	-1.881447e-01
7.285915e-01	-1.387522e-03	-1.940943e-01
6.836458e-01	-1.217913e-03	-1.964756e-01
6.207800e-01	-1.019955e-03	-1.995197e-01
5.389581e-01	-7.420801e-04	-1.922537e-01
4.264695e-01	-5.065787e-04	-1.769287e-01
2.640010e-01	-2.990140e-04	-1.263130e-01
2.224667e-02	-5.541554e-05	-1.330145e-02
-3.232516e-01	1.670024e-04	2.478380e-01
-7.591782e-01	4.280931e-04	1.013691e+00
-4.855682e-01	6.868009e-04	3.079989e+00
2.979918e+00	9.835216e-04	2.984177e+00
3.090711e+00	1.234263e-03	9.549353e-01
2.609266e+00	1.506076e-03	6.730006e-02
2.227852e+00	1.735019e-03	-1.997901e-01
1.962228e+00	1.955098e-03	-3.612305e-01
1.773832e+00	2.168467e-03	-4.248110e-01
1.608051e+00	2.394680e-03	-4.722992e-01
1.484121e+00	2.466946e-03	-4.874522e-01
1.378270e+00	2.610790e-03	-5.007144e-01
1.291366e+00	2.746619e-03	-4.978572e-01
1.214567e+00	2.859251e-03	-4.951144e-01
1.149119e+00	2.949824e-03	-4.847351e-01
1.090799e+00	3.048841e-03	-4.761064e-01
1.036957e+00	3.115107e-03	-4.630082e-01
9.874177e-01	3.236895e-03	-4.519133e-01
9.374770e-01	3.229601e-03	-4.366156e-01
8.892690e-01	3.224681e-03	-4.220765e-01
8.396524e-01	3.222381e-03	-4.034683e-01
7.884662e-01	3.219361e-03	-3.830673e-01
7.397626e-01	3.217059e-03	-3.610112e-01
8.155800e-01	-1.006888e-03	-1.436207e-01
8.333569e-01	-1.005849e-03	-1.482593e-01
8.447138e-01	-1.001379e-03	-1.540416e-01
8.500783e-01	-1.017227e-03	-1.592327e-01
8.482989e-01	-1.005822e-03	-1.653070e-01
8.419693e-01	-9.642868e-04	-1.698895e-01
8.268918e-01	-9.333112e-04	-1.748401e-01
8.127298e-01	-9.148182e-04	-1.789867e-01
7.895343e-01	-9.313740e-04	-1.841433e-01
7.634344e-01	-8.599508e-04	-1.878268e-01
7.263860e-01	-7.648233e-04	-1.935068e-01
6.813225e-01	-6.169232e-04	-1.958079e-01
6.177488e-01	-5.433466e-04	-1.985455e-01
5.355175e-01	-3.145745e-04	-1.910264e-01
4.240872e-01	-2.297052e-04	-1.759404e-01
2.610121e-01	-1.063652e-04	-1.248830e-01
1.898107e-02	2.642191e-05	-1.134892e-02
-3.272739e-01	1.642539e-04	2.509218e-01
-7.645352e-01	3.094933e-04	1.020844e+00
-4.878065e-01	4.543054e-04	3.094186e+00
2.989806e+00	6.209009e-04	2.994078e+00
3.100039e+00	7.622246e-04	9.578177e-01
2.615488e+00	9.008095e-04	6.746054e-02
2.231861e+00	1.029734e-03	-2.001496e-01
1.965359e+00	1.152167e-03	-3.618068e-01
1.774795e+00	1.266250e-03	-4.250416e-01
1.609024e+00	1.286591e-03	-4.725850e-01
1.485729e+00	1.390086e-03	-4.879802e-01
1.379245e+00	1.489046e-03	-5.010687e-01
1.292339e+00	1.540649e-03	-4.982323e-01
1.215777e+00	1.599290e-03	-4.956075e-01
1.150398e+00	1.734753e-03	-4.852747e-01
1.092042e+00	1.745164e-03	-4.766489e-01
1.039131e+00	1.777048e-03	-4.639790e-01
9.885665e-01	1.780109e-03	-4.524391e-01
9.362966e-01	1.758450e-03	-4.360659e-01
8.888601e-01	1.757151e-03	-4.218824e-01
8.394337e-01	1.777147e-03	-4.033632e-01
7.883415e-01	1.773818e-03	-3.830068e-01
7.397004e-01	1.772965e-03	-3.609808e-01
8.153773e-01	-1.306776e-03	-1.435850e-01
8.329853e-01	-1.307092e-03	-1.481932e-01
8.451888e-01	-1.308463e-03	-1.541282e-01
8.500824e-01	-1.291881e-03	-1.592335e-01
8.458539e-01	-1.252172e-03	-1.648305e-01
8.408028e-01	-1.177107e-03	-1.696542e-01
8.274093e-01	-1.083474e-03	-1.749496e-01
8.135201e-01	-1.150026e-03	-1.791608e-01
7.896918e-01	-9.343448e-04	-1.841800e-01
7.625388e-01	-9.875641e-04	-1.876065e-01
7.254182e-01	-6.349055e-04	-1.932490e-01
6.806715e-01	-7.268869e-04	-1.956208e-01
6.166444e-01	-2.955292e-04	-1.981905e-01
5.341876e-01	-3.632635e-04	-1.905520e-01
4.231174e-01	9.206912e-05	-1.755380e-01
2.592917e-01	4.278753e-04	-1.240598e-01
1.647426e-02	6.196248e-04	-9.850084e-03
-3.304866e-01	6.638855e-04	2.533850e-01
-7.671869e-01	7.066915e-04	1.024385e+00
-4.889361e-01	7.628121e-04	3.101351e+00
2.994996e+00	8.384209e-04	2.999276e+00
3.103000e+00	9.127847e-04	9.587326e-01
2.617864e+00	9.745199e-04	6.752184e-02
2.234068e+00	1.081999e-03	-2.003476e-01
1.966970e+00	1.012290e-03	-3.621035e-01
1.776035e+00	8.251159e-04	-4.253384e-01
1.609989e+00	4.403101e-04	-4.728685e-01
1.486929e+00	5.971860e-04	-4.883743e-01
1.380222e+00	2.757234e-04	-5.014235e-01
1.292758e+00	4.011894e-04	-4.983940e-01
1.216992e+00	1.023461e-04	-4.961028e-01
1.151009e+00	2.492976e-04	-4.855325e-01
1.091354e+00	-1.309704e-05	-4.763485e-01
1.037478e+00	3.992729e-05	-4.632411e-01
9.871466e-01	-1.799519e-04	-4.517892e-01
9.370161e-01	-1.237062e-04	-4.364010e-01
8.896334e-01	-1.391169e-04	-4.222495e-01
8.402947e-01	-1.455691e-04	-4.037769e-01
7.882336e-01	-1.405892e-04	-3.829543e-01
7.396321e-01	-1.394569e-04	-3.609475e-01
8.156332e-01	6.191743e-05	-1.436300e-01
8.334605e-01	4.419549e-05	-1.482778e-01
8.440950e-01	4.239487e-05	-1.539288e-01
8.486089e-01	6.340141e-05	-1.589575e-01
8.459271e-01	6.039361e-05	-1.648448e-01
8.390420e-01	5.834377e-05	-1.692989e-01
8.265947e-01	5.561257e-05	-1.747773e-01
8.104863e-01	5.491770e-05	-1.784926e-01
7.874141e-01	9.576280e-05	-1.836488e-01
7.594780e-01	8.214712e-05	-1.868535e-01
7.229428e-01	7.190834e-05	-1.925896e-01
6.769350e-01	3.686426e-05	-1.945470e-01
6.124703e-01	8.128876e-06	-1.968489e-01
5.301264e-01	1.030664e-05	-1.891033e-01
4.110706e-01	4.070916e-05	-1.705402e-01
2.510461e-01	6.997736e-06	-1.201147e-01
1.356945e-02	9.046379e-06	-8.113276e-03
-3.295145e-01	1.020992e-05	2.526397e-01
-7.671906e-01	9.947417e-06	1.024390e+00
-4.892114e-01	8.701957e-06	3.103097e+00
2.997246e+00	6.563916e-06	3.001529e+00
3.105913e+00	4.306046e-06	9.596326e-01
2.621196e+00	1.591034e-06	6.760778e-02
2.232287e+00	-1.878652e-06	-2.001878e-01
1.959984e+00	2.933680e-05	-3.608174e-01
1.764764e+00	2.455209e-05	-4.226392e-01
1.605966e+00	-9.945482e-06	-4.716868e-01
1.483232e+00	4.183917e-05	-4.871604e-01
1.376805e+00	2.861530e-05	-5.001822e-01
1.290118e+00	1.625164e-05	-4.973760e-01
1.213848e+00	7.044401e-06	-4.948213e-01
1.149025e+00	-3.801265e-05	-4.846958e-01
1.089120e+00	-3.580788e-05	-4.753735e-01
1.036926e+00	-3.774407e-05	-4.629945e-01
9.856601e-01	-3.729420e-05	-4.511089e-01
9.371773e-01	-3.770577e-05	-4.364760e-01
8.883356e-01	-3.677325e-05	-4.216335e-01
8.393227e-01	-5.926678e-05	-4.033099e-01
7.886850e-01	-5.814655e-05	-3.831736e-01
7.398738e-01	-4.057707e-05	-3.610655e-01
8.183515e-01	1.469660e-03	-1.441087e-01
8.337154e-01	1.469805e-03	-1.483231e-01
8.444067e-01	1.470939e-03	-1.539856e-01
8.497118e-01	1.454662e-03	-1.591641e-01
8.459538e-01	1.415280e-03	-1.648500e-01
8.408859e-01	1.427619e-03	-1.696709e-01
8.274605e-01	1.287897e-03	-1.749604e-01
8.129314e-01	1.348721e-03	-1.790311e-01
7.893388e-01	1.079317e-03	-1.840977e-01
7.628517e-01	1.131993e-03	-1.876835e-01
7.260083e-01	7.838551e-04	-1.934062e-01
6.815240e-01	7.975998e-04	-1.958658e-01
6.170275e-01	3.669579e-04	-1.983136e-01
5.337231e-01	4.575848e-04	-1.903863e-01
4.231039e-01	-3.743986e-05	-1.755324e-01
2.599340e-01	-3.783806e-04	-1.243671e-01
1.640340e-02	-5.761156e-04	-9.807713e-03
-3.305156e-01	-6.018157e-04	2.534072e-01
-7.671508e-01	-6.535039e-04	1.024336e+00
-4.889008e-01	-7.477386e-04	3.101127e+00
2.994777e+00	-8.350940e-04	2.999056e+00
3.102778e+00	-8.909228e-04	9.586637e-01
2.617661e+00	-9.887570e-04	6.751659e-02
2.234857e+00	-1.104573e-03	-2.004183e-01
1.967438e+00	-1.044420e-03	-3.621896e-01
1.775328e+00	-8.343494e-04	-4.251691e-01
1.610314e+00	-4.908086e-04	-4.729640e-01
1.487435e+00	-6.601417e-04	-4.885406e-01
1.379888e+00	-3.550363e-04	-5.013023e-01
1.292486e+00	-4.184712e-04	-4.982891e-01
1.216315e+00	-1.375428e-04	-4.958269e-01
1.150451e+00	-2.365685e-04	-4.852972e-01
1.091359e+00	-2.466270e-05	-4.763508e-01
1.037455e+00	-1.259225e-04	-4.632308e-01
9.871481e-01	-1.678664e-05	-4.517899e-01
9.370234e-01	-5.052016e-05	-4.364044e-01
8.892099e-01	-2.492992e-05	-4.220485e-01
8.395075e-01	-1.640872e-05	-4.033987e-01
7.888538e-01	-2.089082e-05	-3.832556e-01
7.423227e-01	-2.187993e-05	-3.622606e-01
8.156089e-01	1.265781e-03	-1.436257e-01
8.333788e-01	1.280669e-03	-1.482632e-01
8.447081e-01	1.273816e-03	-1.540406e-01
8.500626e-01	1.268782e-03	-1.592298e-01
8.463744e-01	1.158333e-03	-1.649320e-01
8.414095e-01	1.135111e-03	-1.697766e-01
8.276585e-01	1.095570e-03	-1.750023e-01
8.135954e-01	1.037623e-03	-1.791773e-01
7.902519e-01	1.006440e-03	-1.843106e-01
7.633818e-01	9.215170e-04	-1.878139e-01
7.273433e-01	8.269323e-04	-1.937618e-01
6.823777e-01	7.507659e-04	-1.961112e-01
6.174303e-01	6.646143e-04	-1.984431e-01
5.357225e-01	5.099585e-04	-1.910995e-01
4.248539e-01	3.698916e-04	-1.762585e-01
2.612159e-01	2.575047e-04	-1.249805e-01
1.877325e-02	1.036946e-04	-1.122467e-02
-3.276354e-01	-5.201762e-05	2.511990e-01
-7.634031e-01	-2.133446e-04	1.019332e+00
-4.872098e-01	-3.728433e-04	3.090401e+00
2.990407e+00	-5.558387e-04	2.994681e+00
3.098775e+00	-7.112054e-04	9.574269e-01
2.614195e+00	-8.638953e-04	6.742720e-02
2.231413e+00	-1.005909e-03	-2.001095e-01
1.965685e+00	-1.175965e-03	-3.618668e-01
1.774409e+00	-1.299470e-03	-4.249492e-01
1.608230e+00	-1.413908e-03	-4.723520e-01
1.485327e+00	-1.550380e-03	-4.878483e-01
1.379862e+00	-1.640954e-03	-5.012926e-01
1.292890e+00	-1.711410e-03	-4.984447e-01
1.216149e+00	-1.770746e-03	-4.957590e-01
1.150389e+00	-1.854073e-03	-4.852710e-01
1.090725e+00	-1.884278e-03	-4.760743e-01
1.036893e+00	-1.899356e-03	-4.629796e-01
9.870159e-01	-1.917167e-03	-4.517294e-01
9.369244e-01	-1.934831e-03	-4.363583e-01
8.891629e-01	-1.850980e-03	-4.220262e-01
8.395209e-01	-1.860695e-03	-4.034051e-01
7.883768e-01	-1.860167e-03	-3.830239e-01
7.397223e-01	-1.876674e-03	-3.609915e-01
8.158529e-01	2.127329e-03	-1.436687e-01
8.336682e-01	2.123104e-03	-1.483147e-01
8.447900e-01	2.116799e-03	-1.540555e-01
8.529094e-01	2.018156e-03	-1.597630e-01
8.484777e-01	1.986636e-03	-1.653418e-01
8.419857e-01	1.950840e-03	-1.698928e-01
8.289733e-01	1.872441e-03	-1.752803e-01
8.141851e-01	1.778544e-03	-1.793072e-01
7.909172e-01	1.681428e-03	-1.844658e-01
7.652083e-01	1.537650e-03	-1.882633e-01
7.282422e-01	1.370782e-03	-1.940013e-01
6.836866e-01	1.268474e-03	-1.964873e-01
6.203458e-01	1.047172e-03	-1.993801e-01
5.381191e-01	8.382376e-04	-1.919544e-01