# vtk DataFile Version 2.0
OUTPUT by 3D-VPM
ASCII
DATASET UNSTRUCTURED_GRID
POINTS 820 double
9.510565e-01	0.000000e+00	-3.090170e-01
9.442611e-01	0.000000e+00	-3.078203e-01
9.267277e-01	0.000000e+00	-3.047010e-01
8.963175e-01	0.000000e+00	-2.991555e-01
8.562911e-01	0.000000e+00	-2.916579e-01
8.054250e-01	0.000000e+00	-2.817457e-01
7.470317e-01	0.000000e+00	-2.699633e-01
6.809074e-01	0.000000e+00	-2.559818e-01
6.100852e-01	0.000000e+00	-2.403847e-01
5.354138e-01	0.000000e+00	-2.229691e-01
4.593635e-01	0.000000e+00	-2.042585e-01
3.837764e-01	0.000000e+00	-1.841224e-01
3.103069e-01	0.000000e+00	-1.630077e-01
2.415927e-01	0.000000e+00	-1.409228e-01
1.782654e-01	0.000000e+00	-1.183331e-01
1.234349e-01	0.000000e+00	-9.558566e-02
7.662509e-02	0.000000e+00	-7.318920e-02
4.106998e-02	0.000000e+00	-5.193053e-02
1.528206e-02	0.000000e+00	-3.215886e-02
2.347037e-03	0.000000e+00	-1.488740e-02
0.000000e+00	0.000000e+00	0.000000e+00
1.064939e-02	0.000000e+00	1.066461e-02
3.126595e-02	0.000000e+00	1.703450e-02
6.375031e-02	0.000000e+00	1.787236e-02
1.050105e-01	0.000000e+00	1.417221e-02
1.560448e-01	0.000000e+00	4.777214e-03
2.137742e-01	0.000000e+00	-9.048270e-03
2.782849e-01	0.000000e+00	-2.799567e-02
3.468570e-01	0.000000e+00	-5.051783e-02
4.187060e-01	0.000000e+00	-7.662000e-02
4.916930e-01	0.000000e+00	-1.047585e-01
5.642168e-01	0.000000e+00	-1.343226e-01
6.348639e-01	0.000000e+00	-1.641238e-01
7.013280e-01	0.000000e+00	-1.931337e-01
7.630418e-01	0.000000e+00	-2.206893e-01
8.172084e-01	0.000000e+00	-2.454799e-01
8.641863e-01	0.000000e+00	-2.673591e-01
9.009752e-01	0.000000e+00	-2.848204e-01
9.288372e-01	0.000000e+00	-2.982085e-01
9.448555e-01	0.000000e+00	-3.059908e-01
9.510565e-01	0.000000e+00	-3.090170e-01
9.510565e-01	1.052632e+00	-3.090170e-01
9.442611e-01	1.052632e+00	-3.078203e-01
9.267277e-01	1.052632e+00	-3.047010e-01
8.963175e-01	1.052632e+00	-2.991555e-01
8.562911e-01	1.052632e+00	-2.916579e-01
8.054250e-01	1.052632e+00	-2.817457e-01
7.470317e-01	1.052632e+00	-2.699633e-01
6.809074e-01	1.052632e+00	-2.559818e-01
6.100852e-01	1.052632e+00	-2.403847e-01
5.354138e-01	1.052632e+00	-2.229691e-01
4.593635e-01	1.052632e+00	-2.042585e-01
3.837764e-01	1.052632e+00	-1.841224e-01
3.103069e-01	1.052632e+00	-1.630077e-01
2.415927e-01	1.052632e+00	-1.409228e-01
1.782654e-01	1.052632e+00	-1.183331e-01
1.234349e-01	1.052632e+00	-9.558566e-02
7.662509e-02	1.052632e+00	-7.318920e-02
4.106998e-02	1.052632e+00	-5.193053e-02
1.528206e-02	1.052632e+00	-3.215886e-02
2.347037e-03	1.052632e+00	-1.488740e-02
0.000000e+00	1.052632e+00	0.000000e+00
1.064939e-02	1.052632e+00	1.066461e-02
3.126595e-02	1.052632e+00	1.703450e-02
6.375031e-02	1.052632e+00	1.787236e-02
1.050105e-01	1.052632e+00	1.417221e-02
1.560448e-01	1.052632e+00	4.777214e-03
2.137742e-01	1.052632e+00	-9.048270e-03
2.782849e-01	1.052632e+00	-2.799567e-02
3.468570e-01	1.052632e+00	-5.051783e-02
4.187060e-01	1.052632e+00	-7.662000e-02
4.916930e-01	1.052632e+00	-1.047585e-01
5.642168e-01	1.052632e+00	-1.343226e-01
6.348639e-01	1.052632e+00	-1.641238e-01
7.013280e-01	1.052632e+00	-1.931337e-01
7.630418e-01	1.052632e+00	-2.206893e-01
8.172084e-01	1.052632e+00	-2.454799e-01
8.641863e-01	1.052632e+00	-2.673591e-01
9.009752e-01	1.052632e+00	-2.848204e-01
9.288372e-01	1.052632e+00	-2.982085e-01
9.448555e-01	1.052632e+00	-3.059908e-01
9.510565e-01	1.052632e+00	-3.090170e-01
9.510565e-01	2.105263e+00	-3.090170e-01
9.442611e-01	2.105263e+00	-3.078203e-01
9.267277e-01	2.105263e+00	-3.047010e-01
8.963175e-01	2.105263e+00	-2.991555e-01
8.562911e-01	2.105263e+00	-2.916579e-01
8.054250e-01	2.105263e+00	-2.817457e-01
7.470317e-01	2.105263e+00	-2.699633e-01
6.809074e-01	2.105263e+00	-2.559818e-01
6.100852e-01	2.105263e+00	-2.403847e-01
5.354138e-01	2.105263e+00	-2.229691e-01
4.593635e-01	2.105263e+00	-2.042585e-01
3.837764e-01	2.105263e+00	-1.841224e-01
3.103069e-01	2.105263e+00	-1.630077e-01
2.415927e-01	2.105263e+00	-1.409228e-01
1.782654e-01	2.105263e+00	-1.183331e-01
1.234349e-01	2.105263e+00	-9.558566e-02
7.662509e-02	2.105263e+00	-7.318920e-02
4.106998e-02	2.105263e+00	-5.193053e-02
1.528206e-02	2.105263e+00	-3.215886e-02
2.347037e-03	2.105263e+00	-1.488740e-02
0.000000e+00	2.105263e+00	0.000000e+00
1.064939e-02	2.105263e+00	1.066461e-02
3.126595e-02	2.105263e+00	1.703450e-02
6.375031e-02	2.105263e+00	1.787236e-02
1.050105e-01	2.105263e+00	1.417221e-02
1.560448e-01	2.105263e+00	4.777214e-03
2.137742e-01	2.105263e+00	-9.048270e-03
2.782849e-01	2.105263e+00	-2.799567e-02
3.468570e-01	2.105263e+00	-5.051783e-02
4.187060e-01	2.105263e+00	-7.662000e-02
4.916930e-01	2.105263e+00	-1.047585e-01
5.642168e-01	2.105263e+00	-1.343226e-01
6.348639e-01	2.105263e+00	-1.641238e-01
7.013280e-01	2.105263e+00	-1.931337e-01
7.630418e-01	2.105263e+00	-2.206893e-01
8.172084e-01	2.105263e+00	-2.454799e-01
8.641863e-01	2.105263e+00	-2.673591e-01
9.009752e-01	2.105263e+00	-2.848204e-01
9.288372e-01	2.105263e+00	-2.982085e-01
9.448555e-01	2.105263e+00	-3.059908e-01
9.510565e-01	2.105263e+00	-3.090170e-01
9.510565e-01	3.157895e+00	-3.090170e-01
9.442611e-01	3.157895e+00	-3.078203e-01
9.267277e-01	3.157895e+00	-3.047010e-01
8.963175e-01	3.157895e+00	-2.991555e-01
8.562911e-01	3.157895e+00	-2.916579e-01
8.054250e-01	3.157895e+00	-2.817457e-01
7.470317e-01	3.157895e+00	-2.699633e-01
6.809074e-01	3.157895e+00	-2.559818e-01
6.100852e-01	3.157895e+00	-2.403847e-01
5.354138e-01	3.157895e+00	-2.229691e-01
4.593635e-01	3.157895e+00	-2.042585e-01
3.837764e-01	3.157895e+00	-1.841224e-01
3.103069e-01	3.157895e+00	-1.630077e-01
2.415927e-01	3.157895e+00	-1.409228e-01
1.782654e-01	3.157895e+00	-1.183331e-01
1.234349e-01	3.157895e+00	-9.558566e-02
7.662509e-02	3.157895e+00	-7.318920e-02
4.106998e-02	3.157895e+00	-5.193053e-02
1.528206e-02	3.157895e+00	-3.215886e-02
2.347037e-03	3.157895e+00	-1.488740e-02
0.000000e+00	3.157895e+00	0.000000e+00
1.064939e-02	3.157895e+00	1.066461e-02
3.126595e-02	3.157895e+00	1.703450e-02
6.375031e-02	3.157895e+00	1.787236e-02
1.050105e-01	3.157895e+00	1.417221e-02
1.560448e-01	3.157895e+00	4.777214e-03
2.137742e-01	3.157895e+00	-9.048270e-03
2.782849e-01	3.157895e+00	-2.799567e-02
3.468570e-01	3.157895e+00	-5.051783e-02
4.187060e-01	3.157895e+00	-7.662000e-02
4.916930e-01	3.157895e+00	-1.047585e-01
5.642168e-01	3.157895e+00	-1.343226e-01
6.348639e-01	3.157895e+00	-1.641238e-01
7.013280e-01	3.157895e+00	-1.931337e-01
7.630418e-01	3.157895e+00	-2.206893e-01
8.172084e-01	3.157895e+00	-2.454799e-01
8.641863e-01	3.157895e+00	-2.673591e-01
9.009752e-01	3.157895e+00	-2.848204e-01
9.288372e-01	3.157895e+00	-2.982085e-01
9.448555e-01	3.157895e+00	-3.059908e-01
9.510565e-01	3.157895e+00	-3.090170e-01
9.510565e-01	4.210526e+00	-3.090170e-01
9.442611e-01	4.210526e+00	-3.078203e-01
9.267277e-01	4.210526e+00	-3.047010e-01
8.963175e-01	4.210526e+00	-2.991555e-01
8.562911e-01	4.210526e+00	-2.916579e-01
8.054250e-01	4.210526e+00	-2.817457e-01
7.470317e-01	4.210526e+00	-2.699633e-01
6.809074e-01	4.210526e+00	-2.559818e-01
6.100852e-01	4.210526e+00	-2.403847e-01
5.354138e-01	4.210526e+00	-2.229691e-01
4.593635e-01	4.210526e+00	-2.042585e-01
3.837764e-01	4.210526e+00	-1.841224e-01
3.103069e-01	4.210526e+00	-1.630077e-01
2.415927e-01	4.210526e+00	-1.409228e-01
1.782654e-01	4.210526e+00	-1.183331e-01
1.234349e-01	4.210526e+00	-9.558566e-02
7.662509e-02	4.210526e+00	-7.318920e-02
4.106998e-02	4.210526e+00	-5.193053e-02
1.528206e-02	4.210526e+00	-3.215886e-02
2.347037e-03	4.210526e+00	-1.488740e-02
0.000000e+00	4.210526e+00	0.000000e+00
1.064939e-02	4.210526e+00	1.066461e-02
3.126595e-02	4.210526e+00	1.703450e-02
6.375031e-02	4.210526e+00	1.787236e-02
1.050105e-01	4.210526e+00	1.417221e-02
1.560448e-01	4.210526e+00	4.777214e-03
2.137742e-01	4.210526e+00	-9.048270e-03
2.782849e-01	4.210526e+00	-2.799567e-02
3.468570e-01	4.210526e+00	-5.051783e-02
4.187060e-01	4.210526e+00	-7.662000e-02
4.916930e-01	4.210526e+00	-1.047585e-01
5.642168e-01	4.210526e+00	-1.343226e-01
6.348639e-01	4.210526e+00	-1.641238e-01
7.013280e-01	4.210526e+00	-1.931337e-01
7.630418e-01	4.210526e+00	-2.206893e-01
8.172084e-01	4.210526e+00	-2.454799e-01
8.641863e-01	4.210526e+00	-2.673591e-01
9.009752e-01	4.210526e+00	-2.848204e-01
9.288372e-01	4.210526e+00	-2.982085e-01
9.448555e-01	4.210526e+00	-3.059908e-01
9.510565e-01	4.210526e+00	-3.090170e-01
9.510565e-01	5.263158e+00	-3.090170e-01
9.442611e-01	5.263158e+00	-3.078203e-01
9.267277e-01	5.263158e+00	-3.047010e-01
8.963175e-01	5.263158e+00	-2.991555e-01
8.562911e-01	5.263158e+00	-2.916579e-01
8.054250e-01	5.263158e+00	-2.817457e-01
7.470317e-01	5.263158e+00	-2.699633e-01
6.809074e-01	5.263158e+00	-2.559818e-01
6.100852e-01	5.263158e+00	-2.403847e-01
5.354138e-01	5.263158e+00	-2.229691e-01
4.593635e-01	5.263158e+00	-2.042585e-01
3.837764e-01	5.263158e+00	-1.841224e-01
3.103069e-01	5.263158e+00	-1.630077e-01
2.415927e-01	5.263158e+00	-1.409228e-01
1.782654e-01	5.263158e+00	-1.183331e-01
1.234349e-01	5.263158e+00	-9.558566e-02
7.662509e-02	5.263158e+00	-7.318920e-02
4.106998e-02	5.263158e+00	-5.193053e-02
1.528206e-02	5.263158e+00	-3.215886e-02
2.347037e-03	5.263158e+00	-1.488740e-02
0.000000e+00	5.263158e+00	0.000000e+00
1.064939e-02	5.263158e+00	1.066461e-02
3.126595e-02	5.263158e+00	1.703450e-02
6.375031e-02	5.263158e+00	1.787236e-02
1.050105e-01	5.263158e+00	1.417221e-02
1.560448e-01	5.263158e+00	4.777214e-03
2.137742e-01	5.263158e+00	-9.048270e-03
2.782849e-01	5.263158e+00	-2.799567e-02
3.468570e-01	5.263158e+00	-5.051783e-02
4.187060e-01	5.263158e+00	-7.662000e-02
4.916930e-01	5.263158e+00	-1.047585e-01
5.642168e-01	5.263158e+00	-1.343226e-01
6.348639e-01	5.263158e+00	-1.641238e-01
7.013280e-01	5.263158e+00	-1.931337e-01
7.630418e-01	5.263158e+00	-2.206893e-01
8.172084e-01	5.263158e+00	-2.454799e-01
8.641863e-01	5.263158e+00	-2.673591e-01
9.009752e-01	5.263158e+00	-2.848204e-01
9.288372e-01	5.263158e+00	-2.982085e-01
9.448555e-01	5.263158e+00	-3.059908e-01
9.510565e-01	5.263158e+00	-3.090170e-01
9.510565e-01	6.315789e+00	-3.090170e-01
9.442611e-01	6.315789e+00	-3.078203e-01
[...]
CELL_DATA 760
VECTORS V double
8.414452e-01	-6.900499e-02	-1.481754e-01
8.655723e-01	-6.883146e-02	-1.539907e-01
8.835950e-01	-6.838187e-02	-1.611319e-01
8.953700e-01	-6.758777e-02	-1.677165e-01
8.978451e-01	-6.642729e-02	-1.749620e-01
8.991685e-01	-6.488280e-02	-1.814310e-01
8.921419e-01	-6.294402e-02	-1.886368e-01
8.848432e-01	-6.058694e-02	-1.948682e-01
8.705217e-01	-5.778317e-02	-2.030320e-01
8.548392e-01	-5.450013e-02	-2.103150e-01
8.296121e-01	-5.072104e-02	-2.210059e-01
7.987723e-01	-4.640535e-02	-2.295622e-01
7.513851e-01	-4.161242e-02	-2.414964e-01
6.893903e-01	-3.638470e-02	-2.459149e-01
6.027763e-01	-3.076015e-02	-2.500728e-01
4.721492e-01	-2.486142e-02	-2.259029e-01
2.705017e-01	-1.869646e-02	-1.617350e-01
-1.698127e-02	-1.243115e-02	1.301959e-02
-4.213212e-01	-5.866983e-03	5.625683e-01
-3.424915e-01	7.100894e-04	2.172444e+00
2.326148e+00	8.419309e-03	2.329473e+00
2.540992e+00	1.518080e-02	7.850889e-01
2.210067e+00	2.212376e-02	5.700363e-02
1.925180e+00	2.896809e-02	-1.726470e-01
1.719926e+00	3.595468e-02	-3.166247e-01
1.570206e+00	4.291847e-02	-3.760451e-01
1.435399e+00	4.985378e-02	-4.215898e-01
1.336613e+00	5.658220e-02	-4.390041e-01
1.250544e+00	6.298571e-02	-4.543127e-01
1.181634e+00	6.886608e-02	-4.555525e-01
1.121830e+00	7.410662e-02	-4.573102e-01
1.071585e+00	7.857146e-02	-4.520291e-01
1.027453e+00	8.219909e-02	-4.484575e-01
9.871858e-01	8.498167e-02	-4.407850e-01
9.499710e-01	8.697053e-02	-4.347750e-01
9.115247e-01	8.826354e-02	-4.245288e-01
8.743627e-01	8.898896e-02	-4.150015e-01
8.341926e-01	8.929578e-02	-4.008447e-01
7.910675e-01	8.933954e-02	-3.843311e-01
7.483185e-01	8.929382e-02	-3.651866e-01
8.268839e-01	-4.832734e-02	-1.456112e-01
8.473800e-01	-4.820309e-02	-1.507541e-01
8.618523e-01	-4.788471e-02	-1.571670e-01
8.705493e-01	-4.732115e-02	-1.630673e-01
8.703124e-01	-4.648979e-02	-1.695967e-01
8.689410e-01	-4.537179e-02	-1.753318e-01
8.589559e-01	-4.395652e-02	-1.816199e-01
8.481017e-01	-4.222899e-02	-1.867766e-01
8.294483e-01	-4.017444e-02	-1.934524e-01
8.084794e-01	-3.777769e-02	-1.989092e-01
7.767160e-01	-3.501359e-02	-2.069146e-01
7.380825e-01	-3.191870e-02	-2.121204e-01
6.818064e-01	-2.848425e-02	-2.191337e-01
6.087927e-01	-2.476076e-02	-2.171647e-01
5.090390e-01	-2.077418e-02	-2.111842e-01
3.610993e-01	-1.660747e-02	-1.727703e-01
1.377674e-01	-1.226239e-02	-8.237216e-02
-1.810091e-01	-7.852276e-03	1.387802e-01
-6.026536e-01	-3.237287e-03	8.046920e-01
-4.196170e-01	1.379771e-03	2.661656e+00
2.681481e+00	6.777143e-03	2.685313e+00
2.843274e+00	1.149081e-02	8.784849e-01
2.432692e+00	1.630256e-02	6.274574e-02
2.096935e+00	2.100959e-02	-1.880497e-01
1.860186e+00	2.577057e-02	-3.424454e-01
1.689415e+00	3.046587e-02	-4.045941e-01
1.538880e+00	3.508968e-02	-4.519832e-01
1.427661e+00	3.952393e-02	-4.689083e-01
1.330601e+00	4.369684e-02	-4.833966e-01
1.251808e+00	4.750058e-02	-4.826067e-01
1.182590e+00	5.082431e-02	-4.820788e-01
1.123274e+00	5.363971e-02	-4.738331e-01
1.070342e+00	5.589751e-02	-4.671773e-01
1.021702e+00	5.760207e-02	-4.561966e-01
9.765605e-01	5.879458e-02	-4.469443e-01
9.307400e-01	5.954585e-02	-4.334780e-01
8.867375e-01	5.994423e-02	-4.208750e-01
8.402886e-01	6.009046e-02	-4.037740e-01
7.917035e-01	6.008678e-02	-3.846401e-01
7.448179e-01	6.004348e-02	-3.634782e-01
8.205932e-01	-2.041040e-02	-1.445035e-01
8.397601e-01	-2.035923e-02	-1.493985e-01
8.527529e-01	-2.022833e-02	-1.555076e-01
8.599224e-01	-1.999252e-02	-1.610767e-01
8.581434e-01	-1.963426e-02	-1.672254e-01
8.551897e-01	-1.913665e-02	-1.725571e-01
8.435802e-01	-1.849022e-02	-1.783688e-01
8.309920e-01	-1.768957e-02	-1.830086e-01
8.104496e-01	-1.670769e-02	-1.890214e-01
7.870814e-01	-1.559404e-02	-1.936447e-01
7.530354e-01	-1.431641e-02	-2.006061e-01
7.117630e-01	-1.290752e-02	-2.045563e-01
6.519727e-01	-1.135187e-02	-2.095451e-01
5.748545e-01	-9.685496e-03	-2.050584e-01
4.701142e-01	-7.918453e-03	-1.950355e-01
3.154266e-01	-6.083186e-03	-1.509180e-01
8.350630e-02	-4.176417e-03	-4.992904e-02
-2.477795e-01	-2.246041e-03	1.899733e-01
-6.761417e-01	-2.312193e-04	9.028167e-01
-4.506443e-01	1.776172e-03	2.858464e+00
2.822520e+00	4.104248e-03	2.826554e+00
2.960947e+00	6.111340e-03	9.148424e-01
2.517279e+00	8.123938e-03	6.492746e-02
2.160206e+00	1.004696e-02	-1.937237e-01
1.909988e+00	1.193662e-02	-3.516134e-01
1.730003e+00	1.373942e-02	-4.143144e-01
1.572562e+00	1.545076e-02	-4.618758e-01
1.455944e+00	1.703009e-02	-4.781977e-01
1.354508e+00	1.845996e-02	-4.920818e-01
1.271579e+00	1.972591e-02	-4.902289e-01
1.198698e+00	2.079143e-02	-4.886454e-01
1.136401e+00	2.165092e-02	-4.793705e-01
1.080488e+00	2.228731e-02	-4.716058e-01
1.029121e+00	2.275850e-02	-4.595092e-01
9.814986e-01	2.306039e-02	-4.492043e-01
9.334646e-01	2.322500e-02	-4.347469e-01
8.875114e-01	2.328744e-02	-4.212423e-01
8.393988e-01	2.328525e-02	-4.033464e-01
7.894820e-01	2.325415e-02	-3.835608e-01
7.416873e-01	2.322802e-02	-3.619505e-01
8.182974e-01	-1.022212e-02	-1.440992e-01
8.367646e-01	-1.020109e-02	-1.488656e-01
8.490094e-01	-1.014484e-02	-1.548249e-01
8.554264e-01	-1.003909e-02	-1.602345e-01
8.528563e-01	-9.873994e-03	-1.661951e-01
8.490633e-01	-9.626306e-03	-1.713209e-01
8.365881e-01	-9.313768e-03	-1.768904e-01
8.227089e-01	-8.916472e-03	-1.811844e-01
8.011758e-01	-8.443319e-03	-1.868584e-01
7.770843e-01	-7.879499e-03	-1.911851e-01
7.416017e-01	-7.239939e-03	-1.975602e-01
6.985754e-01	-6.502315e-03	-2.007663e-01
6.370490e-01	-5.696862e-03	-2.047486e-01
5.577762e-01	-4.821536e-03	-1.989664e-01
4.504139e-01	-3.887722e-03	-1.868625e-01
2.921880e-01	-2.912529e-03	-1.397993e-01
5.580063e-02	-1.899217e-03	-3.336361e-02
-2.819204e-01	-8.657695e-04	2.161492e-01
-7.137207e-01	2.003221e-04	9.529940e-01
-4.664717e-01	1.275709e-03	2.958858e+00
2.894061e+00	2.517448e-03	2.898197e+00
3.020170e+00	3.595296e-03	9.331405e-01
2.559471e+00	4.653031e-03	6.601571e-02
2.191419e+00	5.654855e-03	-1.965229e-01
1.934292e+00	6.633340e-03	-3.560877e-01
1.749601e+00	7.552561e-03	-4.190079e-01
1.588663e+00	8.416230e-03	-4.666050e-01
1.469355e+00	9.205415e-03	-4.826025e-01
1.365727e+00	9.920981e-03	-4.961575e-01
1.281227e+00	1.053971e-02	-4.939485e-01
1.206696e+00	1.107805e-02	-4.919056e-01
1.142400e+00	1.150927e-02	-4.819009e-01
1.085170e+00	1.184734e-02	-4.736497e-01
1.032915e+00	1.208548e-02	-4.612033e-01
9.841601e-01	1.224554e-02	-4.504224e-01
9.351287e-01	1.232659e-02	-4.355219e-01
8.882988e-01	1.237054e-02	-4.216161e-01
8.394431e-01	1.238075e-02	-4.033677e-01
7.889612e-01	1.237392e-02	-3.833078e-01
7.408162e-01	1.236526e-02	-3.615254e-01
8.170640e-01	-5.656236e-03	-1.438820e-01
8.352312e-01	-5.644490e-03	-1.485928e-01
8.470594e-01	-5.613636e-03	-1.544693e-01
8.530166e-01	-5.554230e-03	-1.597831e-01
8.496958e-01	-5.457968e-03	-1.655792e-01
8.454649e-01	-5.317804e-03	-1.705948e-01
8.326014e-01	-5.146406e-03	-1.760474e-01
8.185978e-01	-4.926540e-03	-1.802790e-01
7.964524e-01	-4.661497e-03	-1.857568e-01
7.712826e-01	-4.319858e-03	-1.897577e-01
7.350373e-01	-3.935292e-03	-1.958115e-01
6.911968e-01	-3.499534e-03	-1.986457e-01
6.286302e-01	-3.028347e-03	-2.020428e-01
5.479767e-01	-2.608280e-03	-1.954708e-01
4.390519e-01	-2.065260e-03	-1.821487e-01
2.788076e-01	-1.458294e-03	-1.333974e-01
3.980340e-02	-8.490884e-04	-2.379875e-02
-3.015327e-01	-2.294812e-04	2.311860e-01
-7.352004e-01	4.188662e-04	9.816747e-01
-4.756958e-01	1.049124e-03	3.017368e+00
2.936332e+00	1.791711e-03	2.940529e+00
3.054721e+00	2.440043e-03	9.438158e-01
2.583577e+00	3.066964e-03	6.663747e-02
2.209264e+00	3.656817e-03	-1.981232e-01
1.948048e+00	4.225737e-03	-3.586200e-01
1.760528e+00	4.748634e-03	-4.216248e-01
1.597561e+00	5.233866e-03	-4.692183e-01
1.476794e+00	5.777048e-03	-4.850457e-01
1.371889e+00	6.180627e-03	-4.983962e-01
1.286181e+00	6.518278e-03	-4.958582e-01
1.210840e+00	6.798371e-03	-4.935949e-01
1.146232e+00	7.028216e-03	-4.835174e-01
1.088208e+00	7.226064e-03	-4.749756e-01
1.034890e+00	7.368534e-03	-4.620852e-01
9.854349e-01	7.466698e-03	-4.510058e-01
9.358479e-01	7.515206e-03	-4.358569e-01
8.888442e-01	7.538602e-03	-4.218749e-01
8.396003e-01	7.545031e-03	-4.034433e-01
7.887886e-01	7.541879e-03	-3.832239e-01
7.403610e-01	7.536986e-03	-3.613032e-01
8.163262e-01	-3.286123e-03	-1.437521e-01
8.342733e-01	-3.279066e-03	-1.484224e-01
8.458310e-01	-3.260048e-03	-1.542453e-01
8.514486e-01	-3.221907e-03	-1.594894e-01
8.480241e-01	-3.182242e-03	-1.652534e-01
8.436605e-01	-3.106930e-03	-1.702308e-01
8.305352e-01	-2.991732e-03	-1.756105e-01
8.158030e-01	-2.848217e-03	-1.796635e-01
7.929807e-01	-2.664171e-03	-1.849471e-01
7.675504e-01	-2.432379e-03	-1.888395e-01
7.308804e-01	-2.193274e-03	-1.947041e-01
6.864864e-01	-1.967589e-03	-1.972920e-01
6.246322e-01	-1.653919e-03	-2.007578e-01
5.435340e-01	-1.435235e-03	-1.938860e-01
4.317430e-01	-1.070307e-03	-1.791165e-01
2.697575e-01	-6.923760e-04	-1.290673e-01
2.955853e-02	-2.966593e-04	-1.767326e-02
-3.143459e-01	9.799279e-05	2.410099e-01
-7.491163e-01	5.237988e-04	1.000256e+00
-4.812877e-01	9.084932e-04	3.052837e+00
2.962342e+00	1.405678e-03	2.966576e+00
3.076082e+00	1.791386e-03	9.504157e-01
2.598618e+00	2.187558e-03	6.702543e-02
2.220104e+00	2.557924e-03	-1.990953e-01
1.956168e+00	2.908299e-03	-3.601149e-01
1.766855e+00	3.235148e-03	-4.231399e-01
1.604294e+00	3.648861e-03	-4.711960e-01
1.482432e+00	3.906077e-03	-4.868976e-01
1.375379e+00	4.149140e-03	-4.996641e-01
1.289022e+00	4.367712e-03	-4.969534e-01
1.213081e+00	4.532714e-03	-4.945087e-01
1.147860e+00	4.638730e-03	-4.842044e-01
1.089729e+00	4.733264e-03	-4.756393e-01
1.036399e+00	4.808410e-03	-4.627591e-01
9.865564e-01	4.856187e-03	-4.515191e-01
9.365061e-01	4.894564e-03	-4.361634e-01
8.890281e-01	4.925928e-03	-4.219622e-01
8.395983e-01	4.926126e-03	-4.034423e-01
7.886128e-01	4.923032e-03	-3.831386e-01
7.400669e-01	4.919887e-03	-3.611597e-01
8.158796e-01	-2.056951e-03	-1.436734e-01
8.337018e-01	-2.053006e-03	-1.483207e-01
8.450400e-01	-2.043101e-03	-1.541011e-01
8.510818e-01	-2.025097e-03	-1.594207e-01
8.473193e-01	-1.996062e-03	-1.651161e-01
8.421376e-01	-2.041395e-03	-1.699235e-01
8.286019e-01	-1.949827e-03	-1.752017e-01
8.139283e-01	-1.811575e-03	-1.792507e-01
7.908365e-01	-1.708781e-03	-1.844470e-01
7.651018e-01	-1.564519e-03	-1.882371e-01
7.289594e-01	-1.405801e-03	-1.941923e-01
6.840254e-01	-1.233140e-03	-1.965847e-01
6.211849e-01	-1.031766e-03	-1.996498e-01
5.393978e-01	-7.508881e-04	-1.924106e-01
4.269612e-01	-5.148851e-04	-1.771327e-01
2.645655e-01	-3.065919e-04	-1.265831e-01
2.290529e-02	-9.066482e-05	-1.369524e-02
-3.224626e-01	1.618332e-04	2.472330e-01
-7.578049e-01	4.222367e-04	1.011857e+00
-4.851357e-01	6.949823e-04	3.077245e+00
2.979224e+00	9.925978e-04	2.983481e+00
3.089215e+00	1.231186e-03	9.544732e-01
2.608226e+00	1.475869e-03	6.727324e-02
2.227086e+00	1.736477e-03	-1.997214e-01
1.961626e+00	1.957169e-03	-3.611196e-01
1.773329e+00	2.170679e-03	-4.246905e-01
1.607616e+00	2.369266e-03	-4.721716e-01
1.483730e+00	2.471502e-03	-4.873239e-01
1.377905e+00	2.617734e-03	-5.005818e-01
1.291019e+00	2.756070e-03	-4.977235e-01
1.214235e+00	2.871428e-03	-4.949791e-01
1.148791e+00	2.965206e-03	-4.845971e-01
1.090477e+00	3.068909e-03	-4.759661e-01
1.036673e+00	3.140927e-03	-4.628814e-01
9.868215e-01	3.257167e-03	-4.516404e-01
9.371542e-01	3.245076e-03	-4.364653e-01
8.896543e-01	3.237809e-03	-4.222594e-01
8.395313e-01	3.234275e-03	-4.034101e-01
7.884987e-01	3.230822e-03	-3.830831e-01
7.398794e-01	3.228500e-03	-3.610682e-01
8.156641e-01	-1.246913e-03	-1.436355e-01
8.334675e-01	-1.246073e-03	-1.482790e-01
8.448529e-01	-1.271481e-03	-1.540670e-01
8.502470e-01	-1.227100e-03	-1.592643e-01
8.484897e-01	-1.168463e-03	-1.653442e-01
8.427082e-01	-1.127325e-03	-1.700386e-01
8.269664e-01	-1.074305e-03	-1.748559e-01
8.123960e-01	-1.037041e-03	-1.789132e-01
7.896408e-01	-1.037652e-03	-1.841681e-01
7.635729e-01	-9.518960e-04	-1.878609e-01
7.265490e-01	-8.444090e-04	-1.935502e-01
6.815045e-01	-7.177199e-04	-1.958602e-01
6.179612e-01	-6.012220e-04	-1.986137e-01
5.358106e-01	-3.630079e-04	-1.911309e-01
4.244745e-01	-2.690784e-04	-1.761010e-01
2.619445e-01	-1.378716e-04	-1.253291e-01
1.963602e-02	2.143293e-06	-1.174053e-02
-3.274777e-01	1.465534e-04	2.510781e-01
-7.637630e-01	2.977834e-04	1.019813e+00
-4.874851e-01	4.723570e-04	3.092147e+00
2.988467e+00	6.201094e-04	2.992738e+00
3.097399e+00	7.699256e-04	9.570019e-01
2.615038e+00	9.166232e-04	6.744894e-02
2.231929e+00	1.053697e-03	-2.001557e-01
1.964888e+00	1.184909e-03	-3.617201e-01
1.773908e+00	1.308695e-03	-4.248291e-01
1.608784e+00	1.340155e-03	-4.725146e-01
1.485900e+00	1.456998e-03	-4.880365e-01
1.379089e+00	1.570148e-03	-5.010121e-01
1.292223e+00	1.634218e-03	-4.981875e-01
1.215700e+00	1.706180e-03	-4.955762e-01
1.150376e+00	1.857593e-03	-4.852655e-01
1.092084e+00	1.886708e-03	-4.766672e-01
1.039070e+00	1.938120e-03	-4.639518e-01
9.883562e-01	1.960456e-03	-4.523428e-01
9.361386e-01	1.983531e-03	-4.359923e-01
8.887710e-01	1.984364e-03	-4.218401e-01
8.393852e-01	2.041400e-03	-4.033399e-01
7.883265e-01	2.027002e-03	-3.829995e-01
7.397113e-01	2.022831e-03	-3.609862e-01
8.157386e-01	-1.362097e-03	-1.436486e-01
8.353926e-01	-1.362129e-03	-1.486215e-01
8.439686e-01	-1.362824e-03	-1.539057e-01
8.484814e-01	-1.345303e-03	-1.589336e-01
8.453470e-01	-1.304371e-03	-1.647318e-01
8.405020e-01	-1.257380e-03	-1.695935e-01
8.272253e-01	-1.094240e-03	-1.749107e-01
8.134248e-01	-1.186365e-03	-1.791398e-01
7.896669e-01	-9.673422e-04	-1.841742e-01
7.625642e-01	-1.016929e-03	-1.876127e-01
7.258992e-01	-6.604780e-04	-1.933771e-01
6.807787e-01	-7.485791e-04	-1.956516e-01
6.163063e-01	-3.127423e-04	-1.980818e-01
5.343518e-01	-3.756104e-04	-1.906106e-01
4.233320e-01	8.360199e-05	-1.756271e-01
2.595767e-01	4.197516e-04	-1.241962e-01
1.683615e-02	6.396042e-04	-1.006646e-02
-3.300226e-01	6.547977e-04	2.530292e-01
-7.666662e-01	6.993820e-04	1.023689e+00
-4.887166e-01	7.577770e-04	3.099959e+00
2.994026e+00	8.355241e-04	2.998304e+00
3.102232e+00	9.106234e-04	9.584950e-01
2.617351e+00	1.003215e-03	6.750860e-02
2.233724e+00	1.082240e-03	-2.003167e-01
1.966741e+00	1.015208e-03	-3.620613e-01
1.775890e+00	7.965426e-04	-4.253039e-01
1.609927e+00	4.475670e-04	-4.728503e-01
1.486920e+00	6.105260e-04	-4.883717e-01
1.380204e+00	2.930570e-04	-5.014170e-01
1.292737e+00	4.222581e-04	-4.983858e-01
1.217026e+00	1.269374e-04	-4.961168e-01
1.151123e+00	2.770130e-04	-4.855806e-01
1.091541e+00	1.653557e-05	-4.764304e-01
1.037752e+00	7.219790e-05	-4.633631e-01
9.875464e-01	-1.319166e-04	-4.519722e-01
9.376360e-01	-7.595012e-05	-4.366897e-01
8.908104e-01	-9.261253e-05	-4.228082e-01
8.412426e-01	-9.899941e-05	-4.042324e-01
7.874776e-01	-9.401311e-05	-3.825870e-01
7.392407e-01	-9.295983e-05	-3.607565e-01
8.156694e-01	1.691789e-04	-1.436364e-01
8.335156e-01	1.536710e-04	-1.482876e-01
8.441789e-01	1.860659e-04	-1.539440e-01
8.487230e-01	1.522995e-04	-1.589789e-01
8.467118e-01	1.334660e-04	-1.649977e-01
8.389561e-01	1.202910e-04	-1.692815e-01
8.260645e-01	1.100103e-04	-1.746652e-01
8.104553e-01	1.055831e-04	-1.784858e-01
7.874265e-01	1.454573e-04	-1.836517e-01
7.595191e-01	1.240656e-04	-1.868636e-01
7.230054e-01	1.083324e-04	-1.926062e-01
6.770057e-01	1.018621e-04	-1.945673e-01
6.125529e-01	3.464063e-05	-1.968755e-01
5.302886e-01	3.154611e-05	-1.891612e-01
4.113853e-01	5.837859e-05	-1.706708e-01
2.514989e-01	2.210259e-05	-1.203313e-01
1.410295e-02	1.961662e-05	-8.432261e-03
-3.288909e-01	1.600404e-05	2.521616e-01
-7.665276e-01	1.154275e-05	1.023504e+00
-4.889385e-01	6.668694e-06	3.101367e+00
2.996038e+00	5.621646e-07	3.000319e+00
3.104934e+00	-5.171103e-06	9.593300e-01
2.620516e+00	-1.157954e-05	6.759023e-02
2.231805e+00	-1.873734e-05	-2.001446e-01
1.958873e+00	-2.740615e-05	-3.606128e-01
1.764026e+00	-1.820024e-06	-4.224624e-01
1.606339e+00	-4.178793e-05	-4.717966e-01
1.483543e+00	2.729506e-06	-4.872622e-01
1.376750e+00	-4.786380e-05	-5.001622e-01
1.290093e+00	-3.533210e-05	-4.973665e-01
1.213855e+00	-4.957529e-05	-4.948239e-01
1.149068e+00	-1.387790e-04	-4.847138e-01
1.089222e+00	-1.072808e-04	-4.754181e-01
1.037120e+00	-1.172775e-04	-4.630811e-01
9.857142e-01	-1.277697e-04	-4.511336e-01
9.369925e-01	-1.422324e-04	-4.363900e-01
8.882156e-01	-1.609949e-04	-4.215766e-01
8.392767e-01	-2.169769e-04	-4.032878e-01
7.886678e-01	-2.048058e-04	-3.831653e-01
7.398726e-01	-1.847838e-04	-3.610649e-01
8.183412e-01	1.487666e-03	-1.441069e-01
8.337324e-01	1.487919e-03	-1.483261e-01
8.444325e-01	1.489494e-03	-1.539903e-01
8.497390e-01	1.474408e-03	-1.591692e-01
8.459796e-01	1.437217e-03	-1.648550e-01
8.409028e-01	1.482264e-03	-1.696743e-01
8.274471e-01	1.308138e-03	-1.749576e-01
8.129017e-01	1.367912e-03	-1.790246e-01
7.894336e-01	1.099031e-03	-1.841198e-01
7.630511e-01	1.143890e-03	-1.877325e-01
7.261902e-01	7.883853e-04	-1.934546e-01
6.817455e-01	7.965880e-04	-1.959295e-01
6.173126e-01	3.602505e-04	-1.984053e-01
5.340201e-01	4.457896e-04	-1.904922e-01
4.234196e-01	-5.010837e-05	-1.756634e-01
2.603467e-01	-3.883522e-04	-1.245646e-01
1.696371e-02	-5.826522e-04	-1.014273e-02
-3.298188e-01	-6.050665e-04	2.528730e-01
-7.664108e-01	-6.826503e-04	1.023348e+00
-4.885987e-01	-7.463942e-04	3.099211e+00
2.993441e+00	-8.325731e-04	2.997718e+00
3.101691e+00	-9.169624e-04	9.583281e-01
2.616908e+00	-9.864013e-04	6.749718e-02
2.233327e+00	-1.102835e-03	-2.002811e-01
1.967142e+00	-1.043018e-03	-3.621351e-01
1.775571e+00	-7.990832e-04	-4.252274e-01
1.610058e+00	-4.608257e-04	-4.728887e-01
1.486794e+00	-6.634694e-04	-4.883301e-01
1.379724e+00	-3.625184e-04	-5.012426e-01
1.292714e+00	-4.308924e-04	-4.983767e-01
1.215736e+00	-1.555352e-04	-4.955909e-01
1.150358e+00	-2.975168e-04	-4.852578e-01
1.091845e+00	-5.362807e-05	-4.765630e-01
1.037458e+00	-1.608407e-04	-4.632319e-01
9.871518e-01	-6.036920e-05	-4.517916e-01
9.370268e-01	-8.840933e-05	-4.364060e-01
8.892144e-01	-5.913351e-05	-4.220506e-01
8.395146e-01	-4.955833e-05	-4.034021e-01
7.888580e-01	-5.372375e-05	-3.832577e-01
7.423069e-01	-5.465516e-05	-3.622528e-01
8.156269e-01	1.203574e-03	-1.436289e-01
8.334004e-01	1.218042e-03	-1.482671e-01
8.447330e-01	1.210517e-03	-1.540451e-01
8.500896e-01	1.204195e-03	-1.592348e-01
8.464012e-01	1.091918e-03	-1.649372e-01
8.414292e-01	1.065923e-03	-1.697805e-01
8.276487e-01	9.900233e-04	-1.750002e-01
8.135712e-01	9.666607e-04	-1.791720e-01
7.903648e-01	9.356639e-04	-1.843370e-01
7.636222e-01	8.587466e-04	-1.878730e-01
7.275748e-01	7.706003e-04	-1.938235e-01
6.825982e-01	6.990253e-04	-1.961745e-01
6.176632e-01	6.201052e-04	-1.985180e-01
5.359764e-01	4.721700e-04	-1.911901e-01
4.251427e-01	3.369033e-04	-1.763783e-01
2.615568e-01	2.289432e-04	-1.251436e-01
1.916271e-02	8.178869e-05	-1.145753e-02
-3.265516e-01	-6.687518e-05	2.503681e-01
-7.625483e-01	-2.215748e-04	1.018191e+00
-4.873401e-01	-3.750054e-04	3.091228e+00
2.987579e+00	-5.512268e-04	2.991849e+00
3.098301e+00	-7.007578e-04	9.572805e-01
2.614262e+00	-8.474854e-04	6.742894e-02
2.230909e+00	-9.838116e-04	-2.000642e-01
1.965309e+00	-1.112285e-03	-3.617976e-01
1.774118e+00	-1.265038e-03	-4.248794e-01
1.607999e+00	-1.373487e-03	-4.722839e-01
1.485130e+00	-1.504105e-03	-4.877837e-01
1.379688e+00	-1.558459e-03	-5.012294e-01
1.292733e+00	-1.652334e-03	-4.983840e-01
1.215550e+00	-1.705401e-03	-4.955150e-01
1.150273e+00	-1.745220e-03	-4.852223e-01
1.091190e+00	-1.805811e-03	-4.762773e-01
1.036879e+00	-1.814742e-03	-4.629734e-01
9.870073e-01	-1.838653e-03	-4.517255e-01
9.369172e-01	-1.861346e-03	-4.363549e-01
8.891586e-01	-1.779899e-03	-4.220241e-01
8.395209e-01	-1.790660e-03	-4.034051e-01
7.883811e-01	-1.790507e-03	-3.830260e-01
7.397300e-01	-1.806868e-03	-3.609953e-01
8.159130e-01	1.726578e-03	-1.436793e-01
8.337451e-01	1.715635e-03	-1.483284e-01
8.448848e-01	1.591994e-03	-1.540728e-01
8.530156e-01	1.684389e-03	-1.597829e-01
8.485978e-01	1.711421e-03	-1.653652e-01
8.427149e-01	1.719968e-03	-1.700400e-01
8.289344e-01	1.677811e-03	-1.752720e-01
8.136770e-01	1.613221e-03	-1.791953e-01
7.908996e-01	1.540608e-03	-1.844617e-01
7.652182e-01	1.421756e-03	-1.882657e-01
7.282798e-01	1.276723e-03	-1.940113e-01
6.837511e-01	1.193094e-03	-1.965059e-01
6.204367e-01	9.874878e-04	-1.994093e-01
5.382432e-01	7.895374e-04	-1.919987e-01