# vtk DataFile Version 2.0
OUTPUT by 3D-VPM
ASCII
DATASET UNSTRUCTURED_GRID
POINTS 820 double
9.510565e-01	0.000000e+00	-3.090170e-01
9.442611e-01	0.000000e+00	-3.078203e-01
9.267277e-01	0.000000e+00	-3.047010e-01
8.963175e-01	0.000000e+00	-2.991555e-01
8.562911e-01	0.000000e+00	-2.916579e-01
8.054250e-01	0.000000e+00	-2.817457e-01
7.470317e-01	0.000000e+00	-2.699633e-01
6.809074e-01	0.000000e+00	-2.559818e-01
6.100852e-01	0.000000e+00	-2.403847e-01
5.354138e-01	0.000000e+00	-2.229691e-01
4.593635e-01	0.000000e+00	-2.042585e-01
3.837764e-01	0.000000e+00	-1.841224e-01
3.103069e-01	0.000000e+00	-1.630077e-01
2.415927e-01	0.000000e+00	-1.409228e-01
1.782654e-01	0.000000e+00	-1.183331e-01
1.234349e-01	0.000000e+00	-9.558566e-02
7.662509e-02	0.000000e+00	-7.318920e-02
4.106998e-02	0.000000e+00	-5.193053e-02
1.528206e-02	0.000000e+00	-3.215886e-02
2.347037e-03	0.000000e+00	-1.488740e-02
0.000000e+00	0.000000e+00	0.000000e+00
1.064939e-02	0.000000e+00	1.066461e-02
3.126595e-02	0.000000e+00	1.703450e-02
6.375031e-02	0.000000e+00	1.787236e-02
1.050105e-01	0.000000e+00	1.417221e-02
1.560448e-01	0.000000e+00	4.777214e-03
2.137742e-01	0.000000e+00	-9.048270e-03
2.782849e-01	0.000000e+00	-2.799567e-02
3.468570e-01	0.000000e+00	-5.051783e-02
4.187060e-01	0.000000e+00	-7.662000e-02
4.916930e-01	0.000000e+00	-1.047585e-01
5.642168e-01	0.000000e+00	-1.343226e-01
6.348639e-01	0.000000e+00	-1.641238e-01
7.013280e-01	0.000000e+00	-1.931337e-01
7.630418e-01	0.000000e+00	-2.206893e-01
8.172084e-01	0.000000e+00	-2.454799e-01
8.641863e-01	0.000000e+00	-2.673591e-01
9.009752e-01	0.000000e+00	-2.848204e-01
9.288372e-01	0.000000e+00	-2.982085e-01
9.448555e-01	0.000000e+00	-3.059908e-01
9.510565e-01	0.000000e+00	-3.090170e-01
9.510565e-01	1.052632e+00	-3.090170e-01
9.442611e-01	1.052632e+00	-3.078203e-01
9.267277e-01	1.052632e+00	-3.047010e-01
8.963175e-01	1.052632e+00	-2.991555e-01
8.562911e-01	1.052632e+00	-2.916579e-01
8.054250e-01	1.052632e+00	-2.817457e-01
7.470317e-01	1.052632e+00	-2.699633e-01
6.809074e-01	1.052632e+00	-2.559818e-01
6.100852e-01	1.052632e+00	-2.403847e-01
5.354138e-01	1.052632e+00	-2.229691e-01
4.593635e-01	1.052632e+00	-2.042585e-01
3.837764e-01	1.052632e+00	-1.841224e-01
3.103069e-01	1.052632e+00	-1.630077e-01
2.415927e-01	1.052632e+00	-1.409228e-01
1.782654e-01	1.052632e+00	-1.183331e-01
1.234349e-01	1.052632e+00	-9.558566e-02
7.662509e-02	1.052632e+00	-7.318920e-02
4.106998e-02	1.052632e+00	-5.193053e-02
1.528206e-02	1.052632e+00	-3.215886e-02
2.347037e-03	1.052632e+00	-1.488740e-02
0.000000e+00	1.052632e+00	0.000000e+00
1.064939e-02	1.052632e+00	1.066461e-02
3.126595e-02	1.052632e+00	1.703450e-02
6.375031e-02	1.052632e+00	1.787236e-02
1.050105e-01	1.052632e+00	1.417221e-02
1.560448e-01	1.052632e+00	4.777214e-03
2.137742e-01	1.052632e+00	-9.048270e-03
2.782849e-01	1.052632e+00	-2.799567e-02
3.468570e-01	1.052632e+00	-5.051783e-02
4.187060e-01	1.052632e+00	-7.662000e-02
4.916930e-01	1.052632e+00	-1.047585e-01
5.642168e-01	1.052632e+00	-1.343226e-01
6.348639e-01	1.052632e+00	-1.641238e-01
7.013280e-01	1.052632e+00	-1.931337e-01
7.630418e-01	1.052632e+00	-2.206893e-01
8.172084e-01	1.052632e+00	-2.454799e-01
8.641863e-01	1.052632e+00	-2.673591e-01
9.009752e-01	1.052632e+00	-2.848204e-01
9.288372e-01	1.052632e+00	-2.982085e-01
9.448555e-01	1.052632e+00	-3.059908e-01
9.510565e-01	1.052632e+00	-3.090170e-01
9.510565e-01	2.105263e+00	-3.090170e-01
9.442611e-01	2.105263e+00	-3.078203e-01
9.267277e-01	2.105263e+00	-3.047010e-01
8.963175e-01	2.105263e+00	-2.991555e-01
8.562911e-01	2.105263e+00	-2.916579e-01
8.054250e-01	2.105263e+00	-2.817457e-01
7.470317e-01	2.105263e+00	-2.699633e-01
6.809074e-01	2.105263e+00	-2.559818e-01
6.100852e-01	2.105263e+00	-2.403847e-01
5.354138e-01	2.105263e+00	-2.229691e-01
4.593635e-01	2.105263e+00	-2.042585e-01
3.837764e-01	2.105263e+00	-1.841224e-01
3.103069e-01	2.105263e+00	-1.630077e-01
2.415927e-01	2.105263e+00	-1.409228e-01
1.782654e-01	2.105263e+00	-1.183331e-01
1.234349e-01	2.105263e+00	-9.558566e-02
7.662509e-02	2.105263e+00	-7.318920e-02
4.106998e-02	2.105263e+00	-5.193053e-02
1.528206e-02	2.105263e+00	-3.215886e-02
2.347037e-03	2.105263e+00	-1.488740e-02
0.000000e+00	2.105263e+00	0.000000e+00
1.064939e-02	2.105263e+00	1.066461e-02
3.126595e-02	2.105263e+00	1.703450e-02
6.375031e-02	2.105263e+00	1.787236e-02
1.050105e-01	2.105263e+00	1.417221e-02
1.560448e-01	2.105263e+00	4.777214e-03
2.137742e-01	2.105263e+00	-9.048270e-03
2.782849e-01	2.105263e+00	-2.799567e-02
3.468570e-01	2.105263e+00	-5.051783e-02
4.187060e-01	2.105263e+00	-7.662000e-02
4.916930e-01	2.105263e+00	-1.047585e-01
5.642168e-01	2.105263e+00	-1.343226e-01
6.348639e-01	2.105263e+00	-1.641238e-01
7.013280e-01	2.105263e+00	-1.931337e-01
7.630418e-01	2.105263e+00	-2.206893e-01
8.172084e-01	2.105263e+00	-2.454799e-01
8.641863e-01	2.105263e+00	-2.673591e-01
9.009752e-01	2.105263e+00	-2.848204e-01
9.288372e-01	2.105263e+00	-2.982085e-01
9.448555e-01	2.105263e+00	-3.059908e-01
9.510565e-01	2.105263e+00	-3.090170e-01
9.510565e-01	3.157895e+00	-3.090170e-01
9.442611e-01	3.157895e+00	-3.078203e-01
9.267277e-01	3.157895e+00	-3.047010e-01
8.963175e-01	3.157895e+00	-2.991555e-01
8.562911e-01	3.157895e+00	-2.916579e-01
8.054250e-01	3.157895e+00	-2.817457e-01
7.470317e-01	3.157895e+00	-2.699633e-01
6.809074e-01	3.157895e+00	-2.559818e-01
6.100852e-01	3.157895e+00	-2.403847e-01
5.354138e-01	3.157895e+00	-2.229691e-01
4.593635e-01	3.157895e+00	-2.042585e-01
3.837764e-01	3.157895e+00	-1.841224e-01
3.103069e-01	3.157895e+00	-1.630077e-01
2.415927e-01	3.157895e+00	-1.409228e-01
1.782654e-01	3.157895e+00	-1.183331e-01
1.234349e-01	3.157895e+00	-9.558566e-02
7.662509e-02	3.157895e+00	-7.318920e-02
4.106998e-02	3.157895e+00	-5.193053e-02
1.528206e-02	3.157895e+00	-3.215886e-02
2.347037e-03	3.157895e+00	-1.488740e-02
0.000000e+00	3.157895e+00	0.000000e+00
1.064939e-02	3.157895e+00	1.066461e-02
3.126595e-02	3.157895e+00	1.703450e-02
6.375031e-02	3.157895e+00	1.787236e-02
1.050105e-01	3.157895e+00	1.417221e-02
1.560448e-01	3.157895e+00	4.777214e-03
2.137742e-01	3.157895e+00	-9.048270e-03
2.782849e-01	3.157895e+00	-2.799567e-02
3.468570e-01	3.157895e+00	-5.051783e-02
4.187060e-01	3.157895e+00	-7.662000e-02
4.916930e-01	3.157895e+00	-1.047585e-01
5.642168e-01	3.157895e+00	-1.343226e-01
6.348639e-01	3.157895e+00	-1.641238e-01
7.013280e-01	3.157895e+00	-1.931337e-01
7.630418e-01	3.157895e+00	-2.206893e-01
8.172084e-01	3.157895e+00	-2.454799e-01
8.641863e-01	3.157895e+00	-2.673591e-01
9.009752e-01	3.157895e+00	-2.848204e-01
9.288372e-01	3.157895e+00	-2.982085e-01
9.448555e-01	3.157895e+00	-3.059908e-01
9.510565e-01	3.157895e+00	-3.090170e-01
9.510565e-01	4.210526e+00	-3.090170e-01
9.442611e-01	4.210526e+00	-3.078203e-01
9.267277e-01	4.210526e+00	-3.047010e-01
8.963175e-01	4.210526e+00	-2.991555e-01
8.562911e-01	4.210526e+00	-2.916579e-01
8.054250e-01	4.210526e+00	-2.817457e-01
7.470317e-01	4.210526e+00	-2.699633e-01
6.809074e-01	4.210526e+00	-2.559818e-01
6.100852e-01	4.210526e+00	-2.403847e-01
5.354138e-01	4.210526e+00	-2.229691e-01
4.593635e-01	4.210526e+00	-2.042585e-01
3.837764e-01	4.210526e+00	-1.841224e-01
3.103069e-01	4.210526e+00	-1.630077e-01
2.415927e-01	4.210526e+00	-1.409228e-01
1.782654e-01	4.210526e+00	-1.183331e-01
1.234349e-01	4.210526e+00	-9.558566e-02
7.662509e-02	4.210526e+00	-7.318920e-02
4.106998e-02	4.210526e+00	-5.193053e-02
1.528206e-02	4.210526e+00	-3.215886e-02
2.347037e-03	4.210526e+00	-1.488740e-02
0.000000e+00	4.210526e+00	0.000000e+00
1.064939e-02	4.210526e+00	1.066461e-02
3.126595e-02	4.210526e+00	1.703450e-02
6.375031e-02	4.210526e+00	1.787236e-02
1.050105e-01	4.210526e+00	1.417221e-02
1.560448e-01	4.210526e+00	4.777214e-03
2.137742e-01	4.210526e+00	-9.048270e-03
2.782849e-01	4.210526e+00	-2.799567e-02
3.468570e-01	4.210526e+00	-5.051783e-02
4.187060e-01	4.210526e+00	-7.662000e-02
4.916930e-01	4.210526e+00	-1.047585e-01
5.642168e-01	4.210526e+00	-1.343226e-01
6.348639e-01	4.210526e+00	-1.641238e-01
7.013280e-01	4.210526e+00	-1.931337e-01
7.630418e-01	4.210526e+00	-2.206893e-01
8.172084e-01	4.210526e+00	-2.454799e-01
8.641863e-01	4.210526e+00	-2.673591e-01
9.009752e-01	4.210526e+00	-2.848204e-01
9.288372e-01	4.210526e+00	-2.982085e-01
9.448555e-01	4.210526e+00	-3.059908e-01
9.510565e-01	4.210526e+00	-3.090170e-01
9.510565e-01	5.263158e+00	-3.090170e-01
9.442611e-01	5.263158e+00	-3.078203e-01
9.267277e-01	5.263158e+00	-3.047010e-01
8.963175e-01	5.263158e+00	-2.991555e-01
8.562911e-01	5.263158e+00	-2.916579e-01
8.054250e-01	5.263158e+00	-2.817457e-01
7.470317e-01	5.263158e+00	-2.699633e-01
6.809074e-01	5.263158e+00	-2.559818e-01
6.100852e-01	5.263158e+00	-2.403847e-01
5.354138e-01	5.263158e+00	-2.229691e-01
4.593635e-01	5.263158e+00	-2.042585e-01
3.837764e-01	5.263158e+00	-1.841224e-01
3.103069e-01	5.263158e+00	-1.630077e-01
2.415927e-01	5.263158e+00	-1.409228e-01
1.782654e-01	5.263158e+00	-1.183331e-01
1.234349e-01	5.263158e+00	-9.558566e-02
7.662509e-02	5.263158e+00	-7.318920e-02
4.106998e-02	5.263158e+00	-5.193053e-02
1.528206e-02	5.263158e+00	-3.215886e-02
2.347037e-03	5.263158e+00	-1.488740e-02
0.000000e+00	5.263158e+00	0.000000e+00
1.064939e-02	5.263158e+00	1.066461e-02
3.126595e-02	5.263158e+00	1.703450e-02
6.375031e-02	5.263158e+00	1.787236e-02
1.050105e-01	5.263158e+00	1.417221e-02
1.560448e-01	5.263158e+00	4.777214e-03
2.137742e-01	5.263158e+00	-9.048270e-03
2.782849e-01	5.263158e+00	-2.799567e-02
3.468570e-01	5.263158e+00	-5.051783e-02
4.187060e-01	5.263158e+00	-7.662000e-02
4.916930e-01	5.263158e+00	-1.047585e-01
5.642168e-01	5.263158e+00	-1.343226e-01
6.348639e-01	5.263158e+00	-1.641238e-01
7.013280e-01	5.263158e+00	-1.931337e-01
7.630418e-01	5.263158e+00	-2.206893e-01
8.172084e-01	5.263158e+00	-2.454799e-01
8.641863e-01	5.263158e+00	-2.673591e-01
9.009752e-01	5.263158e+00	-2.848204e-01
9.288372e-01	5.263158e+00	-2.982085e-01
9.448555e-01	5.263158e+00	-3.059908e-01
9.510565e-01	5.263158e+00	-3.090170e-01
9.510565e-01	6.315789e+00	-3.090170e-01
9.442611e-01	6.315789e+00	-3.078203e-01
[...]
CELL_DATA 760
VECTORS V double
8.414476e-01	-6.900078e-02	-1.481758e-01
8.655752e-01	-6.882725e-02	-1.539912e-01
8.835989e-01	-6.837767e-02	-1.611327e-01
8.953752e-01	-6.758358e-02	-1.677175e-01
8.978516e-01	-6.642310e-02	-1.749633e-01
8.991764e-01	-6.487859e-02	-1.814326e-01
8.921513e-01	-6.293975e-02	-1.886388e-01
8.848541e-01	-6.058257e-02	-1.948706e-01
8.705343e-01	-5.777865e-02	-2.030349e-01
8.548544e-01	-5.449553e-02	-2.103188e-01
8.296295e-01	-5.070422e-02	-2.210105e-01
7.987913e-01	-4.640153e-02	-2.295677e-01
7.514072e-01	-4.160935e-02	-2.415035e-01
6.894163e-01	-3.638241e-02	-2.459242e-01
6.028070e-01	-3.075861e-02	-2.500856e-01
4.721863e-01	-2.486059e-02	-2.259207e-01
2.705467e-01	-1.869631e-02	-1.617619e-01
-1.692518e-02	-1.243168e-02	1.297659e-02
-4.212586e-01	-5.868182e-03	5.624847e-01
-3.424650e-01	7.082809e-04	2.172276e+00
2.326032e+00	8.416770e-03	2.329356e+00
2.540897e+00	1.517759e-02	7.850596e-01
2.210001e+00	2.211992e-02	5.700193e-02
1.925133e+00	2.896361e-02	-1.726428e-01
1.719891e+00	3.594950e-02	-3.166182e-01
1.570180e+00	4.291255e-02	-3.760387e-01
1.435378e+00	4.984701e-02	-4.215837e-01
1.336597e+00	5.657436e-02	-4.389988e-01
1.250533e+00	6.297637e-02	-4.543084e-01
1.181625e+00	6.885542e-02	-4.555490e-01
1.121822e+00	7.409637e-02	-4.573071e-01
1.071580e+00	7.856189e-02	-4.520267e-01
1.027449e+00	8.218974e-02	-4.484557e-01
9.871828e-01	8.497235e-02	-4.407837e-01
9.499690e-01	8.696117e-02	-4.347741e-01
9.115236e-01	8.825414e-02	-4.245282e-01
8.743623e-01	8.897953e-02	-4.150013e-01
8.341927e-01	8.928633e-02	-4.008448e-01
7.910680e-01	8.933008e-02	-3.843314e-01
7.483195e-01	8.928436e-02	-3.651871e-01
8.268866e-01	-4.832569e-02	-1.456117e-01
8.473834e-01	-4.820145e-02	-1.507547e-01
8.618567e-01	-4.788309e-02	-1.571678e-01
8.705547e-01	-4.731957e-02	-1.630683e-01
8.703187e-01	-4.648826e-02	-1.695980e-01
8.689482e-01	-4.537033e-02	-1.753332e-01
8.589640e-01	-4.395513e-02	-1.816216e-01
8.481107e-01	-4.222772e-02	-1.867786e-01
8.294593e-01	-4.017329e-02	-1.934550e-01
8.084135e-01	-3.777669e-02	-1.988930e-01
7.767375e-01	-3.501280e-02	-2.069203e-01
7.381949e-01	-3.191812e-02	-2.121527e-01
6.818391e-01	-2.848392e-02	-2.191442e-01
6.088301e-01	-2.476071e-02	-2.171780e-01
5.090817e-01	-2.077443e-02	-2.112019e-01
3.611492e-01	-1.660804e-02	-1.727943e-01
1.378269e-01	-1.226330e-02	-8.240775e-02
-1.809358e-01	-7.853525e-03	1.387240e-01
-6.025731e-01	-3.238894e-03	8.045845e-01
-4.195833e-01	1.377831e-03	2.661442e+00
2.681330e+00	6.774803e-03	2.685162e+00
2.843150e+00	1.148811e-02	8.784467e-01
2.432605e+00	1.629952e-02	6.274350e-02
2.096872e+00	2.100623e-02	-1.880440e-01
1.860137e+00	2.576688e-02	-3.424363e-01
1.689374e+00	3.046187e-02	-4.045843e-01
1.538845e+00	3.508537e-02	-4.519728e-01
1.427627e+00	3.951933e-02	-4.688971e-01
1.330571e+00	4.369196e-02	-4.833857e-01
1.251794e+00	4.749545e-02	-4.826011e-01
1.182589e+00	5.081894e-02	-4.820786e-01
1.123274e+00	5.363412e-02	-4.738332e-01
1.070339e+00	5.589174e-02	-4.671762e-01
1.021699e+00	5.759615e-02	-4.561953e-01
9.765579e-01	5.878856e-02	-4.469431e-01
9.307382e-01	5.953976e-02	-4.334771e-01
8.867364e-01	5.993809e-02	-4.208745e-01
8.402883e-01	6.008430e-02	-4.037738e-01
7.917039e-01	6.008062e-02	-3.846403e-01
7.448189e-01	6.003732e-02	-3.634787e-01
8.205968e-01	-2.041136e-02	-1.445041e-01
8.397648e-01	-2.036020e-02	-1.493993e-01
8.527589e-01	-2.022932e-02	-1.555087e-01
8.599298e-01	-1.999355e-02	-1.610780e-01
8.581522e-01	-1.963536e-02	-1.672271e-01
8.552002e-01	-1.913784e-02	-1.725592e-01
8.435925e-01	-1.849154e-02	-1.783714e-01
8.310062e-01	-1.769107e-02	-1.830117e-01
8.104660e-01	-1.670944e-02	-1.890252e-01
7.871015e-01	-1.559604e-02	-1.936496e-01
7.530582e-01	-1.432466e-02	-2.006122e-01
7.117881e-01	-1.290951e-02	-2.045635e-01
6.520021e-01	-1.135378e-02	-2.095545e-01
5.748891e-01	-9.687326e-03	-2.050708e-01
4.701550e-01	-7.920241e-03	-1.950524e-01
3.154758e-01	-6.084977e-03	-1.509415e-01
8.356578e-02	-4.178242e-03	-4.996460e-02
-2.477055e-01	-2.247918e-03	1.899165e-01
-6.760599e-01	-2.331652e-04	9.027075e-01
-4.506099e-01	1.774150e-03	2.858246e+00
2.822366e+00	4.102135e-03	2.826400e+00
2.960822e+00	6.109152e-03	9.148037e-01
2.517191e+00	8.121685e-03	6.492521e-02
2.160143e+00	1.004465e-02	-1.937181e-01
1.909940e+00	1.193430e-02	-3.516046e-01
1.729966e+00	1.373710e-02	-4.143054e-01
1.572532e+00	1.544854e-02	-4.618670e-01
1.455920e+00	1.702810e-02	-4.781898e-01
1.354489e+00	1.845841e-02	-4.920749e-01
1.271564e+00	1.972468e-02	-4.902231e-01
1.198685e+00	2.078977e-02	-4.886400e-01
1.136390e+00	2.164869e-02	-4.793659e-01
1.080479e+00	2.228479e-02	-4.716020e-01
1.029114e+00	2.275581e-02	-4.595063e-01
9.814937e-01	2.305760e-02	-4.492020e-01
9.334613e-01	2.322215e-02	-4.347454e-01
8.875095e-01	2.328456e-02	-4.212414e-01
8.393982e-01	2.328236e-02	-4.033461e-01
7.894825e-01	2.325126e-02	-3.835611e-01
7.416886e-01	2.322513e-02	-3.619511e-01
8.183014e-01	-1.022374e-02	-1.440999e-01
8.367697e-01	-1.020272e-02	-1.488665e-01
8.490159e-01	-1.014647e-02	-1.548261e-01
8.554344e-01	-1.004073e-02	-1.602360e-01
8.528658e-01	-9.875643e-03	-1.661969e-01
8.490745e-01	-9.627975e-03	-1.713232e-01
8.366010e-01	-9.315437e-03	-1.768931e-01
8.227241e-01	-8.918133e-03	-1.811878e-01
8.011935e-01	-8.444946e-03	-1.868626e-01
7.771041e-01	-7.881089e-03	-1.911900e-01
7.416242e-01	-7.241413e-03	-1.975662e-01
6.986015e-01	-6.503760e-03	-2.007738e-01
6.370794e-01	-5.698244e-03	-2.047584e-01
5.578117e-01	-4.822846e-03	-1.989790e-01
4.504559e-01	-3.888928e-03	-1.868799e-01
2.922387e-01	-2.913566e-03	-1.398235e-01
5.586193e-02	-1.899946e-03	-3.340026e-02
-2.818441e-01	-8.661101e-04	2.160907e-01
-7.136363e-01	2.001461e-04	9.528813e-01
-4.664362e-01	1.275083e-03	2.958633e+00
2.893902e+00	2.516378e-03	2.898037e+00
3.020041e+00	3.579391e-03	9.331005e-01
2.559380e+00	4.650824e-03	6.601338e-02
2.191354e+00	5.652377e-03	-1.965170e-01
1.934243e+00	6.630830e-03	-3.560786e-01
1.749563e+00	7.550078e-03	-4.189987e-01
1.588633e+00	8.413798e-03	-4.665960e-01
1.469331e+00	9.203038e-03	-4.825944e-01
1.365706e+00	9.918659e-03	-4.961501e-01
1.281211e+00	1.053737e-02	-4.939422e-01
1.206683e+00	1.107577e-02	-4.919002e-01
1.142389e+00	1.150703e-02	-4.818964e-01
1.085162e+00	1.184513e-02	-4.736460e-01
1.032908e+00	1.208329e-02	-4.612002e-01
9.841550e-01	1.224336e-02	-4.504200e-01
9.351251e-01	1.232442e-02	-4.355203e-01
8.882967e-01	1.236837e-02	-4.216151e-01
8.394423e-01	1.237858e-02	-4.033673e-01
7.889615e-01	1.237175e-02	-3.833080e-01
7.408174e-01	1.236309e-02	-3.615260e-01
8.170680e-01	-5.666445e-03	-1.438827e-01
8.352363e-01	-5.654778e-03	-1.485937e-01
8.470658e-01	-5.624214e-03	-1.544705e-01
8.530244e-01	-5.565527e-03	-1.597846e-01
8.497052e-01	-5.470506e-03	-1.655810e-01
8.454757e-01	-5.349874e-03	-1.705970e-01
8.326136e-01	-5.156997e-03	-1.760500e-01
8.186114e-01	-4.934717e-03	-1.802820e-01
7.964678e-01	-4.667853e-03	-1.857604e-01
7.713007e-01	-4.324891e-03	-1.897622e-01
7.350582e-01	-3.939373e-03	-1.958170e-01
6.912207e-01	-3.502918e-03	-1.986526e-01
6.286578e-01	-3.031197e-03	-2.020516e-01
5.480087e-01	-2.610750e-03	-1.954822e-01
4.390884e-01	-2.067441e-03	-1.821639e-01
2.788482e-01	-1.460360e-03	-1.334168e-01
3.984819e-02	-8.510600e-04	-2.382553e-02
-3.014739e-01	-2.314005e-04	2.311409e-01
-7.351142e-01	4.169702e-04	9.815596e-01
-4.756516e-01	1.047262e-03	3.017087e+00
2.935294e+00	1.789857e-03	2.939488e+00
3.054803e+00	2.438180e-03	9.438410e-01
2.583851e+00	3.065144e-03	6.664454e-02
2.209194e+00	3.655072e-03	-1.981169e-01
1.948000e+00	4.224127e-03	-3.586112e-01
1.760492e+00	4.747235e-03	-4.216162e-01
1.597533e+00	5.232773e-03	-4.692100e-01
1.476771e+00	5.776370e-03	-4.850382e-01
1.371871e+00	6.180530e-03	-4.983896e-01
1.286166e+00	6.518999e-03	-4.958525e-01
1.210828e+00	6.800184e-03	-4.935900e-01
1.146222e+00	7.031566e-03	-4.835132e-01
1.088200e+00	7.231606e-03	-4.749721e-01
1.034884e+00	7.377909e-03	-4.620825e-01
9.854304e-01	7.481496e-03	-4.510038e-01
9.358449e-01	7.526505e-03	-4.358555e-01
8.888422e-01	7.547581e-03	-4.218740e-01
8.395996e-01	7.553303e-03	-4.034429e-01
7.887890e-01	7.549931e-03	-3.832242e-01
7.403623e-01	7.544999e-03	-3.613038e-01
8.163434e-01	-3.280642e-03	-1.437551e-01
8.343007e-01	-3.273608e-03	-1.484272e-01
8.458738e-01	-3.254651e-03	-1.542531e-01
8.515069e-01	-3.216621e-03	-1.595003e-01
8.484850e-01	-3.177073e-03	-1.653433e-01
8.435914e-01	-3.101968e-03	-1.702168e-01
8.301949e-01	-2.987044e-03	-1.755386e-01
8.157584e-01	-2.843854e-03	-1.796537e-01
7.929562e-01	-2.660206e-03	-1.849414e-01
7.675404e-01	-2.428898e-03	-1.888370e-01
7.308814e-01	-2.190269e-03	-1.947044e-01
6.864961e-01	-1.964981e-03	-1.972947e-01
6.246499e-01	-1.651910e-03	-2.007635e-01
5.435595e-01	-1.433827e-03	-1.938951e-01
4.317782e-01	-1.069583e-03	-1.791311e-01
2.698043e-01	-6.924143e-04	-1.290896e-01
2.961659e-02	-2.976314e-04	-1.770798e-02
-3.142716e-01	9.601561e-05	2.409529e-01
-7.490333e-01	5.210156e-04	1.000145e+00
-4.812527e-01	9.055693e-04	3.052615e+00
2.962183e+00	1.402414e-03	2.966416e+00
3.075955e+00	1.802334e-03	9.503763e-01
2.598532e+00	2.184185e-03	6.702321e-02
2.220045e+00	2.554252e-03	-1.990899e-01
1.956126e+00	2.904086e-03	-3.601071e-01
1.766825e+00	3.230374e-03	-4.231328e-01
1.604275e+00	3.643510e-03	-4.711903e-01
1.482421e+00	3.900230e-03	-4.868940e-01
1.375377e+00	4.142781e-03	-4.996635e-01
1.289030e+00	4.360922e-03	-4.969565e-01
1.213101e+00	4.525602e-03	-4.945167e-01
1.147897e+00	4.631410e-03	-4.842198e-01
1.089800e+00	4.725753e-03	-4.756703e-01
1.036524e+00	4.800752e-03	-4.628148e-01
9.865914e-01	4.848436e-03	-4.515351e-01
9.363925e-01	4.886753e-03	-4.361105e-01
8.889523e-01	4.918055e-03	-4.219262e-01
8.395665e-01	4.918262e-03	-4.034270e-01
7.885984e-01	4.915182e-03	-3.831315e-01
7.400622e-01	4.912049e-03	-3.611574e-01
8.158876e-01	-2.031526e-03	-1.436748e-01
8.337118e-01	-2.027496e-03	-1.483225e-01
8.450525e-01	-2.017301e-03	-1.541034e-01
8.510952e-01	-1.998624e-03	-1.594232e-01
8.473354e-01	-1.968500e-03	-1.651192e-01
8.421567e-01	-1.994600e-03	-1.699273e-01
8.286233e-01	-1.924961e-03	-1.752063e-01
8.139522e-01	-1.789883e-03	-1.792559e-01
7.908638e-01	-1.689730e-03	-1.844533e-01
7.651325e-01	-1.547896e-03	-1.882446e-01
7.289917e-01	-1.391400e-03	-1.942010e-01
6.840626e-01	-1.220824e-03	-1.965954e-01
6.212292e-01	-1.021455e-03	-1.996641e-01
5.394489e-01	-7.424185e-04	-1.924288e-01
4.270212e-01	-5.082790e-04	-1.771576e-01
2.646370e-01	-3.016628e-04	-1.266173e-01
2.299135e-02	-8.733321e-05	-1.374670e-02
-3.223565e-01	1.634876e-04	2.471516e-01
-7.576888e-01	4.222409e-04	1.011702e+00
-4.850866e-01	6.933434e-04	3.076934e+00
2.979001e+00	9.890816e-04	2.983258e+00
3.089034e+00	1.226049e-03	9.544175e-01
2.608100e+00	1.469072e-03	6.727000e-02
2.226994e+00	1.727894e-03	-1.997132e-01
1.961556e+00	1.946786e-03	-3.611067e-01
1.773274e+00	2.158468e-03	-4.246772e-01
1.607572e+00	2.355117e-03	-4.721586e-01
1.483694e+00	2.455295e-03	-4.873119e-01
1.377874e+00	2.599436e-03	-5.005707e-01
1.290995e+00	2.735547e-03	-4.977142e-01
1.214217e+00	2.848543e-03	-4.949715e-01
1.148776e+00	2.939765e-03	-4.845908e-01
1.090465e+00	3.040367e-03	-4.759607e-01
1.036664e+00	3.107957e-03	-4.628772e-01
9.868146e-01	3.218485e-03	-4.516373e-01
9.371489e-01	3.209802e-03	-4.364628e-01
8.896509e-01	3.204867e-03	-4.222578e-01
8.395312e-01	3.202082e-03	-4.034101e-01
7.885004e-01	3.198878e-03	-3.830839e-01
7.398825e-01	3.196601e-03	-3.610697e-01
8.156670e-01	-1.129718e-03	-1.436360e-01
8.334724e-01	-1.125761e-03	-1.482799e-01
8.448612e-01	-1.139087e-03	-1.540685e-01
8.502602e-01	-1.127278e-03	-1.592668e-01
8.485086e-01	-1.087208e-03	-1.653479e-01
8.427324e-01	-1.059282e-03	-1.700435e-01
8.269981e-01	-1.017033e-03	-1.748626e-01
8.124337e-01	-9.887650e-04	-1.789215e-01
7.896845e-01	-9.971091e-04	-1.841783e-01
7.636240e-01	-9.178810e-04	-1.878735e-01
7.266062e-01	-8.160317e-04	-1.935655e-01
6.815688e-01	-6.942366e-04	-1.958787e-01
6.180324e-01	-5.819726e-04	-1.986366e-01
5.358912e-01	-3.475115e-04	-1.911597e-01
4.245675e-01	-2.568599e-04	-1.761396e-01
2.620518e-01	-1.286910e-04	-1.253804e-01
1.976389e-02	8.495568e-06	-1.181698e-02
-3.273179e-01	1.502353e-04	2.509556e-01
-7.635892e-01	2.988153e-04	1.019581e+00
-4.874119e-01	4.707605e-04	3.091684e+00
2.988136e+00	6.155594e-04	2.992407e+00
3.097127e+00	7.627036e-04	9.569178e-01
2.614839e+00	9.065715e-04	6.744382e-02
2.231780e+00	1.040702e-03	-2.001423e-01
1.964772e+00	1.168718e-03	-3.616989e-01
1.773814e+00	1.289009e-03	-4.248065e-01
1.608703e+00	1.316485e-03	-4.724910e-01
1.485831e+00	1.428871e-03	-4.880140e-01
1.379031e+00	1.536866e-03	-5.009909e-01
1.292173e+00	1.595050e-03	-4.981683e-01
1.215658e+00	1.660084e-03	-4.955591e-01
1.150340e+00	1.803380e-03	-4.852505e-01
1.092055e+00	1.823146e-03	-4.766547e-01
1.039050e+00	1.863615e-03	-4.639429e-01
9.883447e-01	1.873312e-03	-4.523376e-01
9.361334e-01	1.881461e-03	-4.359899e-01
8.887700e-01	1.863623e-03	-4.218397e-01
8.393867e-01	1.864005e-03	-4.033406e-01
7.883289e-01	1.882476e-03	-3.830006e-01
7.397135e-01	1.879776e-03	-3.609872e-01
8.152235e-01	-1.349574e-03	-1.435579e-01
8.344779e-01	-1.349609e-03	-1.484588e-01
8.449439e-01	-1.350223e-03	-1.540836e-01
8.497191e-01	-1.332230e-03	-1.591654e-01
8.459917e-01	-1.288790e-03	-1.648574e-01
8.409315e-01	-1.237818e-03	-1.696801e-01
8.275493e-01	-1.119456e-03	-1.749792e-01
8.136857e-01	-1.179580e-03	-1.791972e-01
7.898861e-01	-9.605360e-04	-1.842253e-01
7.627545e-01	-1.009040e-03	-1.876596e-01
7.260693e-01	-6.505424e-04	-1.934224e-01
6.809378e-01	-7.373391e-04	-1.956973e-01
6.164618e-01	-3.036954e-04	-1.981318e-01
5.345078e-01	-3.692612e-04	-1.906662e-01
4.234951e-01	8.816667e-05	-1.756947e-01
2.597568e-01	4.229199e-04	-1.242824e-01
1.704014e-02	6.415355e-04	-1.018843e-02
-3.297798e-01	6.557682e-04	2.528431e-01
-7.664042e-01	6.993931e-04	1.023340e+00
-4.886070e-01	7.568795e-04	3.099264e+00
2.993526e+00	8.335951e-04	2.997804e+00
3.101808e+00	9.077983e-04	9.583641e-01
2.617038e+00	9.994107e-04	6.750052e-02
2.233480e+00	1.077564e-03	-2.002948e-01
1.966536e+00	1.009508e-03	-3.620235e-01
1.775706e+00	7.897129e-04	-4.252597e-01
1.609754e+00	4.394505e-04	-4.727995e-01
1.486750e+00	6.012779e-04	-4.883157e-01
1.380029e+00	2.531930e-04	-5.013535e-01
1.292551e+00	4.120139e-04	-4.983142e-01
1.216819e+00	1.171810e-04	-4.960325e-01
1.150885e+00	2.682993e-04	-4.854804e-01
1.091259e+00	1.054139e-05	-4.763072e-01
1.037405e+00	6.925875e-05	-4.632082e-01
9.871014e-01	-1.762312e-04	-4.517685e-01
9.370136e-01	-9.265139e-05	-4.363998e-01
8.892000e-01	-1.092799e-04	-4.220438e-01
8.400001e-01	-1.154901e-04	-4.036354e-01
7.895578e-01	-1.104625e-04	-3.835976e-01
7.394690e-01	-1.093954e-04	-3.608679e-01
8.156727e-01	4.435121e-05	-1.436370e-01
8.335151e-01	4.295471e-05	-1.482875e-01
8.441664e-01	6.278474e-05	-1.539418e-01
8.486559e-01	6.150908e-05	-1.589663e-01
8.465975e-01	6.112380e-05	-1.649754e-01
8.397386e-01	6.104259e-05	-1.694394e-01
8.262355e-01	6.133502e-05	-1.747014e-01
8.100526e-01	6.557663e-05	-1.783971e-01
7.874551e-01	1.128621e-04	-1.836583e-01
7.595291e-01	9.750775e-05	-1.868660e-01
7.230188e-01	8.676825e-05	-1.926098e-01
6.770808e-01	8.436745e-05	-1.945889e-01
6.126919e-01	2.053834e-05	-1.969202e-01
5.304366e-01	2.024727e-05	-1.892139e-01
4.115306e-01	4.936250e-05	-1.707310e-01
2.516550e-01	1.514986e-05	-1.204060e-01
1.427849e-02	1.442276e-05	-8.537215e-03
-3.286818e-01	1.238341e-05	2.520013e-01
-7.663018e-01	9.430292e-06	1.023203e+00
-4.888444e-01	6.005677e-06	3.100770e+00
2.995612e+00	1.592748e-06	2.999893e+00
3.104579e+00	-2.599313e-06	9.592201e-01
2.620258e+00	-7.305256e-06	6.758358e-02
2.231609e+00	-1.261703e-05	-2.001270e-01
1.958714e+00	-1.911473e-05	-3.605836e-01
1.763890e+00	8.871407e-06	-4.224298e-01
1.606222e+00	-2.802823e-05	-4.717623e-01
1.483020e+00	2.006203e-05	-4.870907e-01
1.376695e+00	-2.611130e-05	-5.001420e-01
1.290421e+00	-8.408033e-06	-4.974930e-01
1.213832e+00	-1.632294e-05	-4.948147e-01
1.149080e+00	-9.792216e-05	-4.847189e-01
1.089270e+00	-5.752376e-05	-4.754391e-01
1.036581e+00	-5.680118e-05	-4.628405e-01
9.854100e-01	-5.481992e-05	-4.509944e-01
9.375477e-01	-5.445333e-05	-4.366485e-01
8.882191e-01	-5.454019e-05	-4.215782e-01
8.392856e-01	-5.384500e-05	-4.032920e-01
7.886732e-01	-7.409337e-05	-3.831679e-01
7.398769e-01	-7.280945e-05	-3.610670e-01
8.154579e-01	1.483719e-03	-1.435992e-01
8.331838e-01	1.483919e-03	-1.482285e-01
8.444611e-01	1.485278e-03	-1.539955e-01
8.497575e-01	1.469505e-03	-1.591726e-01
8.460005e-01	1.429528e-03	-1.648591e-01
8.409275e-01	1.470265e-03	-1.696793e-01
8.274767e-01	1.340517e-03	-1.749638e-01
8.129348e-01	1.367958e-03	-1.790319e-01
7.894719e-01	1.098720e-03	-1.841287e-01
7.630966e-01	1.142058e-03	-1.877437e-01
7.262417e-01	7.840034e-04	-1.934684e-01
6.818048e-01	7.903393e-04	-1.959465e-01
6.173817e-01	3.555507e-04	-1.984275e-01
5.341001e-01	4.430038e-04	-1.905208e-01
4.235116e-01	-5.181069e-05	-1.757016e-01
2.604559e-01	-3.895168e-04	-1.246168e-01
1.709602e-02	-5.835548e-04	-1.022183e-02
-3.296554e-01	-6.058520e-04	2.527477e-01
-7.662309e-01	-6.833524e-04	1.023108e+00
-4.885231e-01	-7.470967e-04	3.098731e+00
2.993101e+00	-8.332713e-04	2.997378e+00
3.101412e+00	-9.176179e-04	9.582418e-01
2.616711e+00	-9.869915e-04	6.749209e-02
2.233183e+00	-1.103217e-03	-2.002682e-01
1.967029e+00	-1.043019e-03	-3.621143e-01
1.775481e+00	-7.986369e-04	-4.252059e-01
1.609986e+00	-4.595647e-04	-4.728677e-01
1.486735e+00	-6.613717e-04	-4.883107e-01
1.379675e+00	-3.300348e-04	-5.012247e-01
1.292673e+00	-4.281281e-04	-4.983610e-01
1.215704e+00	-1.532504e-04	-4.955776e-01
1.150330e+00	-2.962476e-04	-4.852463e-01
1.091824e+00	-5.493480e-05	-4.765537e-01
1.037443e+00	-1.650203e-04	-4.632251e-01
9.871406e-01	-2.311580e-05	-4.517865e-01
9.370196e-01	-7.877109e-05	-4.364026e-01
8.892116e-01	-4.954960e-05	-4.220493e-01
8.395265e-01	-4.016352e-05	-4.034078e-01
7.883461e-01	-4.435923e-05	-3.830089e-01
7.396656e-01	-4.528435e-05	-3.609639e-01
8.156392e-01	1.273414e-03	-1.436311e-01
8.334163e-01	1.270815e-03	-1.482699e-01
8.447535e-01	1.264208e-03	-1.540488e-01
8.501153e-01	1.258765e-03	-1.592396e-01
8.464323e-01	1.148018e-03	-1.649433e-01
8.414661e-01	1.125775e-03	-1.697880e-01
8.276916e-01	1.054189e-03	-1.750093e-01
8.136184e-01	1.021919e-03	-1.791824e-01
7.904190e-01	9.829745e-04	-1.843496e-01
7.636856e-01	9.002738e-04	-1.878886e-01
7.276460e-01	8.070082e-04	-1.938425e-01
6.826786e-01	7.305816e-04	-1.961976e-01
6.177542e-01	6.471158e-04	-1.985472e-01
5.360792e-01	4.948320e-04	-1.912268e-01
4.252610e-01	3.553365e-04	-1.764273e-01
2.616977e-01	2.432631e-04	-1.252110e-01
1.932978e-02	9.214551e-05	-1.155742e-02
-3.263478e-01	-6.035647e-05	2.502118e-01
-7.623254e-01	-2.189442e-04	1.017893e+00
-4.872460e-01	-3.761947e-04	3.090631e+00
2.987156e+00	-5.568599e-04	2.991425e+00
3.097950e+00	-7.103017e-04	9.571722e-01
2.614014e+00	-8.610946e-04	6.742254e-02
2.230728e+00	-1.001519e-03	-2.000480e-01
1.965166e+00	-1.134329e-03	-3.617714e-01
1.774004e+00	-1.291445e-03	-4.248521e-01
1.607907e+00	-1.404560e-03	-4.722570e-01
1.485054e+00	-1.540057e-03	-4.877588e-01
1.379625e+00	-1.599447e-03	-5.012067e-01
1.292681e+00	-1.698405e-03	-4.983644e-01
1.215508e+00	-1.756749e-03	-4.954981e-01
1.150240e+00	-1.802014e-03	-4.852083e-01
1.091166e+00	-1.868017e-03	-4.762666e-01
1.036863e+00	-1.916243e-03	-4.629661e-01
9.869968e-01	-1.905674e-03	-4.517207e-01
9.369116e-01	-1.926827e-03	-4.363523e-01
8.891569e-01	-1.844189e-03	-4.220233e-01
8.395223e-01	-1.854317e-03	-4.034057e-01
7.883848e-01	-1.854373e-03	-3.830278e-01
7.397352e-01	-1.853446e-03	-3.609978e-01
8.158941e-01	2.118272e-03	-1.436760e-01
8.337202e-01	2.118083e-03	-1.483240e-01
8.448540e-01	2.035856e-03	-1.540672e-01
8.529723e-01	2.015608e-03	-1.597748e-01
8.485084e-01	1.978602e-03	-1.653478e-01
8.426000e-01	1.941519e-03	-1.700168e-01
8.290445e-01	1.862395e-03	-1.752953e-01
8.139490e-01	1.766947e-03	-1.792552e-01
7.911224e-01	1.668296e-03	-1.845137e-01
7.654068e-01	1.527577e-03	-1.883121e-01
7.284617e-01	1.364110e-03	-1.940598e-01
6.839359e-01	1.264913e-03	-1.965590e-01
6.206295e-01	1.046109e-03	-1.994713e-01
5.384509e-01	8.368366e-04	-1.920728e-01