# vtk DataFile Version 2.0
OUTPUT by 3D-VPM
ASCII
DATASET UNSTRUCTURED_GRID
POINTS 820 double
9.510565e-01	0.000000e+00	-3.090170e-01
9.442611e-01	0.000000e+00	-3.078203e-01
9.267277e-01	0.000000e+00	-3.047010e-01
8.963175e-01	0.000000e+00	-2.991555e-01
8.562911e-01	0.000000e+00	-2.916579e-01
8.054250e-01	0.000000e+00	-2.817457e-01
7.470317e-01	0.000000e+00	-2.699633e-01
6.809074e-01	0.000000e+00	-2.559818e-01
6.100852e-01	0.000000e+00	-2.403847e-01
5.354138e-01	0.000000e+00	-2.229691e-01
4.593635e-01	0.000000e+00	-2.042585e-01
3.837764e-01	0.000000e+00	-1.841224e-01
3.103069e-01	0.000000e+00	-1.630077e-01
2.415927e-01	0.000000e+00	-1.409228e-01
1.782654e-01	0.000000e+00	-1.183331e-01
1.234349e-01	0.000000e+00	-9.558566e-02
7.662509e-02	0.000000e+00	-7.318920e-02
4.106998e-02	0.000000e+00	-5.193053e-02
1.528206e-02	0.000000e+00	-3.215886e-02
2.347037e-03	0.000000e+00	-1.488740e-02
0.000000e+00	0.000000e+00	0.000000e+00
1.064939e-02	0.000000e+00	1.066461e-02
3.126595e-02	0.000000e+00	1.703450e-02
6.375031e-02	0.000000e+00	1.787236e-02
1.050105e-01	0.000000e+00	1.417221e-02
1.560448e-01	0.000000e+00	4.777214e-03
2.137742e-01	0.000000e+00	-9.048270e-03
2.782849e-01	0.000000e+00	-2.799567e-02
3.468570e-01	0.000000e+00	-5.051783e-02
4.187060e-01	0.000000e+00	-7.662000e-02
4.916930e-01	0.000000e+00	-1.047585e-01
5.642168e-01	0.000000e+00	-1.343226e-01
6.348639e-01	0.000000e+00	-1.641238e-01
7.013280e-01	0.000000e+00	-1.931337e-01
7.630418e-01	0.000000e+00	-2.206893e-01
8.172084e-01	0.000000e+00	-2.454799e-01
8.641863e-01	0.000000e+00	-2.673591e-01
9.009752e-01	0.000000e+00	-2.848204e-01
9.288372e-01	0.000000e+00	-2.982085e-01
9.448555e-01	0.000000e+00	-3.059908e-01
9.510565e-01	0.000000e+00	-3.090170e-01
9.510565e-01	1.052632e+00	-3.090170e-01
9.442611e-01	1.052632e+00	-3.078203e-01
9.267277e-01	1.052632e+00	-3.047010e-01
8.963175e-01	1.052632e+00	-2.991555e-01
8.562911e-01	1.052632e+00	-2.916579e-01
8.054250e-01	1.052632e+00	-2.817457e-01
7.470317e-01	1.052632e+00	-2.699633e-01
6.809074e-01	1.052632e+00	-2.559818e-01
6.100852e-01	1.052632e+00	-2.403847e-01
5.354138e-01	1.052632e+00	-2.229691e-01
4.593635e-01	1.052632e+00	-2.042585e-01
3.837764e-01	1.052632e+00	-1.841224e-01
3.103069e-01	1.052632e+00	-1.630077e-01
2.415927e-01	1.052632e+00	-1.409228e-01
1.782654e-01	1.052632e+00	-1.183331e-01
1.234349e-01	1.052632e+00	-9.558566e-02
7.662509e-02	1.052632e+00	-7.318920e-02
4.106998e-02	1.052632e+00	-5.193053e-02
1.528206e-02	1.052632e+00	-3.215886e-02
2.347037e-03	1.052632e+00	-1.488740e-02
0.000000e+00	1.052632e+00	0.000000e+00
1.064939e-02	1.052632e+00	1.066461e-02
3.126595e-02	1.052632e+00	1.703450e-02
6.375031e-02	1.052632e+00	1.787236e-02
1.050105e-01	1.052632e+00	1.417221e-02
1.560448e-01	1.052632e+00	4.777214e-03
2.137742e-01	1.052632e+00	-9.048270e-03
2.782849e-01	1.052632e+00	-2.799567e-02
3.468570e-01	1.052632e+00	-5.051783e-02
4.187060e-01	1.052632e+00	-7.662000e-02
4.916930e-01	1.052632e+00	-1.047585e-01
5.642168e-01	1.052632e+00	-1.343226e-01
6.348639e-01	1.052632e+00	-1.641238e-01
7.013280e-01	1.052632e+00	-1.931337e-01
7.630418e-01	1.052632e+00	-2.206893e-01
8.172084e-01	1.052632e+00	-2.454799e-01
8.641863e-01	1.052632e+00	-2.673591e-01
9.009752e-01	1.052632e+00	-2.848204e-01
9.288372e-01	1.052632e+00	-2.982085e-01
9.448555e-01	1.052632e+00	-3.059908e-01
9.510565e-01	1.052632e+00	-3.090170e-01
9.510565e-01	2.105263e+00	-3.090170e-01
9.442611e-01	2.105263e+00	-3.078203e-01
9.267277e-01	2.105263e+00	-3.047010e-01
8.963175e-01	2.105263e+00	-2.991555e-01
8.562911e-01	2.105263e+00	-2.916579e-01
8.054250e-01	2.105263e+00	-2.817457e-01
7.470317e-01	2.105263e+00	-2.699633e-01
6.809074e-01	2.105263e+00	-2.559818e-01
6.100852e-01	2.105263e+00	-2.403847e-01
5.354138e-01	2.105263e+00	-2.229691e-01
4.593635e-01	2.105263e+00	-2.042585e-01
3.837764e-01	2.105263e+00	-1.841224e-01
3.103069e-01	2.105263e+00	-1.630077e-01
2.415927e-01	2.105263e+00	-1.409228e-01
1.782654e-01	2.105263e+00	-1.183331e-01
1.234349e-01	2.105263e+00	-9.558566e-02
7.662509e-02	2.105263e+00	-7.318920e-02
4.106998e-02	2.105263e+00	-5.193053e-02
1.528206e-02	2.105263e+00	-3.215886e-02
2.347037e-03	2.105263e+00	-1.488740e-02
0.000000e+00	2.105263e+00	0.000000e+00
1.064939e-02	2.105263e+00	1.066461e-02
3.126595e-02	2.105263e+00	1.703450e-02
6.375031e-02	2.105263e+00	1.787236e-02
1.050105e-01	2.105263e+00	1.417221e-02
1.560448e-01	2.105263e+00	4.777214e-03
2.137742e-01	2.105263e+00	-9.048270e-03
2.782849e-01	2.105263e+00	-2.799567e-02
3.468570e-01	2.105263e+00	-5.051783e-02
4.187060e-01	2.105263e+00	-7.662000e-02
4.916930e-01	2.105263e+00	-1.047585e-01
5.642168e-01	2.105263e+00	-1.343226e-01
6.348639e-01	2.105263e+00	-1.641238e-01
7.013280e-01	2.105263e+00	-1.931337e-01
7.630418e-01	2.105263e+00	-2.206893e-01
8.172084e-01	2.105263e+00	-2.454799e-01
8.641863e-01	2.105263e+00	-2.673591e-01
9.009752e-01	2.105263e+00	-2.848204e-01
9.288372e-01	2.105263e+00	-2.982085e-01
9.448555e-01	2.105263e+00	-3.059908e-01
9.510565e-01	2.105263e+00	-3.090170e-01
9.510565e-01	3.157895e+00	-3.090170e-01
9.442611e-01	3.157895e+00	-3.078203e-01
9.267277e-01	3.157895e+00	-3.047010e-01
8.963175e-01	3.157895e+00	-2.991555e-01
8.562911e-01	3.157895e+00	-2.916579e-01
8.054250e-01	3.157895e+00	-2.817457e-01
7.470317e-01	3.157895e+00	-2.699633e-01
6.809074e-01	3.157895e+00	-2.559818e-01
6.100852e-01	3.157895e+00	-2.403847e-01
5.354138e-01	3.157895e+00	-2.229691e-01
4.593635e-01	3.157895e+00	-2.042585e-01
3.837764e-01	3.157895e+00	-1.841224e-01
3.103069e-01	3.157895e+00	-1.630077e-01
2.415927e-01	3.157895e+00	-1.409228e-01
1.782654e-01	3.157895e+00	-1.183331e-01
1.234349e-01	3.157895e+00	-9.558566e-02
7.662509e-02	3.157895e+00	-7.318920e-02
4.106998e-02	3.157895e+00	-5.193053e-02
1.528206e-02	3.157895e+00	-3.215886e-02
2.347037e-03	3.157895e+00	-1.488740e-02
0.000000e+00	3.157895e+00	0.000000e+00
1.064939e-02	3.157895e+00	1.066461e-02
3.126595e-02	3.157895e+00	1.703450e-02
6.375031e-02	3.157895e+00	1.787236e-02
1.050105e-01	3.157895e+00	1.417221e-02
1.560448e-01	3.157895e+00	4.777214e-03
2.137742e-01	3.157895e+00	-9.048270e-03
2.782849e-01	3.157895e+00	-2.799567e-02
3.468570e-01	3.157895e+00	-5.051783e-02
4.187060e-01	3.157895e+00	-7.662000e-02
4.916930e-01	3.157895e+00	-1.047585e-01
5.642168e-01	3.157895e+00	-1.343226e-01
6.348639e-01	3.157895e+00	-1.641238e-01
7.013280e-01	3.157895e+00	-1.931337e-01
7.630418e-01	3.157895e+00	-2.206893e-01
8.172084e-01	3.157895e+00	-2.454799e-01
8.641863e-01	3.157895e+00	-2.673591e-01
9.009752e-01	3.157895e+00	-2.848204e-01
9.288372e-01	3.157895e+00	-2.982085e-01
9.448555e-01	3.157895e+00	-3.059908e-01
9.510565e-01	3.157895e+00	-3.090170e-01
9.510565e-01	4.210526e+00	-3.090170e-01
9.442611e-01	4.210526e+00	-3.078203e-01
9.267277e-01	4.210526e+00	-3.047010e-01
8.963175e-01	4.210526e+00	-2.991555e-01
8.562911e-01	4.210526e+00	-2.916579e-01
8.054250e-01	4.210526e+00	-2.817457e-01
7.470317e-01	4.210526e+00	-2.699633e-01
6.809074e-01	4.210526e+00	-2.559818e-01
6.100852e-01	4.210526e+00	-2.403847e-01
5.354138e-01	4.210526e+00	-2.229691e-01
4.593635e-01	4.210526e+00	-2.042585e-01
3.837764e-01	4.210526e+00	-1.841224e-01
3.103069e-01	4.210526e+00	-1.630077e-01
2.415927e-01	4.210526e+00	-1.409228e-01
1.782654e-01	4.210526e+00	-1.183331e-01
1.234349e-01	4.210526e+00	-9.558566e-02
7.662509e-02	4.210526e+00	-7.318920e-02
4.106998e-02	4.210526e+00	-5.193053e-02
1.528206e-02	4.210526e+00	-3.215886e-02
2.347037e-03	4.210526e+00	-1.488740e-02
0.000000e+00	4.210526e+00	0.000000e+00
1.064939e-02	4.210526e+00	1.066461e-02
3.126595e-02	4.210526e+00	1.703450e-02
6.375031e-02	4.210526e+00	1.787236e-02
1.050105e-01	4.210526e+00	1.417221e-02
1.560448e-01	4.210526e+00	4.777214e-03
2.137742e-01	4.210526e+00	-9.048270e-03
2.782849e-01	4.210526e+00	-2.799567e-02
3.468570e-01	4.210526e+00	-5.051783e-02
4.187060e-01	4.210526e+00	-7.662000e-02
4.916930e-01	4.210526e+00	-1.047585e-01
5.642168e-01	4.210526e+00	-1.343226e-01
6.348639e-01	4.210526e+00	-1.641238e-01
7.013280e-01	4.210526e+00	-1.931337e-01
7.630418e-01	4.210526e+00	-2.206893e-01
8.172084e-01	4.210526e+00	-2.454799e-01
8.641863e-01	4.210526e+00	-2.673591e-01
9.009752e-01	4.210526e+00	-2.848204e-01
9.288372e-01	4.210526e+00	-2.982085e-01
9.448555e-01	4.210526e+00	-3.059908e-01
9.510565e-01	4.210526e+00	-3.090170e-01
9.510565e-01	5.263158e+00	-3.090170e-01
9.442611e-01	5.263158e+00	-3.078203e-01
9.267277e-01	5.263158e+00	-3.047010e-01
8.963175e-01	5.263158e+00	-2.991555e-01
8.562911e-01	5.263158e+00	-2.916579e-01
8.054250e-01	5.263158e+00	-2.817457e-01
7.470317e-01	5.263158e+00	-2.699633e-01
6.809074e-01	5.263158e+00	-2.559818e-01
6.100852e-01	5.263158e+00	-2.403847e-01
5.354138e-01	5.263158e+00	-2.229691e-01
4.593635e-01	5.263158e+00	-2.042585e-01
3.837764e-01	5.263158e+00	-1.841224e-01
3.103069e-01	5.263158e+00	-1.630077e-01
2.415927e-01	5.263158e+00	-1.409228e-01
1.782654e-01	5.263158e+00	-1.183331e-01
1.234349e-01	5.263158e+00	-9.558566e-02
7.662509e-02	5.263158e+00	-7.318920e-02
4.106998e-02	5.263158e+00	-5.193053e-02
1.528206e-02	5.263158e+00	-3.215886e-02
2.347037e-03	5.263158e+00	-1.488740e-02
0.000000e+00	5.263158e+00	0.000000e+00
1.064939e-02	5.263158e+00	1.066461e-02
3.126595e-02	5.263158e+00	1.703450e-02
6.375031e-02	5.263158e+00	1.787236e-02
1.050105e-01	5.263158e+00	1.417221e-02
1.560448e-01	5.263158e+00	4.777214e-03
2.137742e-01	5.263158e+00	-9.048270e-03
2.782849e-01	5.263158e+00	-2.799567e-02
3.468570e-01	5.263158e+00	-5.051783e-02
4.187060e-01	5.263158e+00	-7.662000e-02
4.916930e-01	5.263158e+00	-1.047585e-01
5.642168e-01	5.263158e+00	-1.343226e-01
6.348639e-01	5.263158e+00	-1.641238e-01
7.013280e-01	5.263158e+00	-1.931337e-01
7.630418e-01	5.263158e+00	-2.206893e-01
8.172084e-01	5.263158e+00	-2.454799e-01
8.641863e-01	5.263158e+00	-2.673591e-01
9.009752e-01	5.263158e+00	-2.848204e-01
9.288372e-01	5.263158e+00	-2.982085e-01
9.448555e-01	5.263158e+00	-3.059908e-01
9.510565e-01	5.263158e+00	-3.090170e-01
9.510565e-01	6.315789e+00	-3.090170e-01
9.442611e-01	6.315789e+00	-3.078203e-01
[...]
CELL_DATA 760
VECTORS V double
8.414230e-01	-6.903462e-02	-1.481715e-01
8.655438e-01	-6.886103e-02	-1.539856e-01
8.835585e-01	-6.841128e-02	-1.611253e-01
8.953241e-01	-6.761688e-02	-1.677079e-01
8.977886e-01	-6.645595e-02	-1.749510e-01
8.991007e-01	-6.491085e-02	-1.814173e-01
8.920624e-01	-6.297127e-02	-1.886200e-01
8.847515e-01	-6.061314e-02	-1.948480e-01
8.704168e-01	-5.780796e-02	-2.030075e-01
8.547763e-01	-5.452316e-02	-2.102996e-01
8.294708e-01	-5.073324e-02	-2.209682e-01
7.985482e-01	-4.642399e-02	-2.294978e-01
7.511982e-01	-4.162838e-02	-2.414363e-01
6.891726e-01	-3.639759e-02	-2.458373e-01
6.025204e-01	-3.076956e-02	-2.499666e-01
4.718411e-01	-2.486713e-02	-2.257555e-01
2.701274e-01	-1.869828e-02	-1.615112e-01
-1.745005e-02	-1.242907e-02	1.337900e-02
-4.218427e-01	-5.860943e-03	5.632645e-01
-3.427113e-01	7.199723e-04	2.173839e+00
2.327132e+00	8.433522e-03	2.330457e+00
2.541788e+00	1.519865e-02	7.853351e-01
2.210619e+00	2.214521e-02	5.701788e-02
1.925575e+00	2.899293e-02	-1.726824e-01
1.720221e+00	3.598280e-02	-3.166789e-01
1.570433e+00	4.294974e-02	-3.760992e-01
1.435576e+00	4.988809e-02	-4.216417e-01
1.336755e+00	5.661937e-02	-4.390505e-01
1.250654e+00	6.302539e-02	-4.543525e-01
1.181710e+00	6.890833e-02	-4.555818e-01
1.121879e+00	7.415268e-02	-4.573302e-01
1.071620e+00	7.862133e-02	-4.520437e-01
1.027479e+00	8.225205e-02	-4.484688e-01
9.872037e-01	8.503710e-02	-4.407930e-01
9.499818e-01	8.702786e-02	-4.347799e-01
9.115292e-01	8.832225e-02	-4.245309e-01
8.743618e-01	8.904857e-02	-4.150011e-01
8.341871e-01	8.935589e-02	-4.008421e-01
7.910584e-01	8.939986e-02	-3.843267e-01
7.483071e-01	8.935419e-02	-3.651810e-01
8.268573e-01	-4.834426e-02	-1.456065e-01
8.473452e-01	-4.821995e-02	-1.507479e-01
8.618077e-01	-4.790143e-02	-1.571588e-01
8.704939e-01	-4.733761e-02	-1.630569e-01
8.702452e-01	-4.650587e-02	-1.695836e-01
8.688610e-01	-4.538738e-02	-1.753156e-01
8.588620e-01	-4.397147e-02	-1.816000e-01
8.479924e-01	-4.224313e-02	-1.867526e-01
8.293220e-01	-4.018755e-02	-1.934230e-01
8.083336e-01	-3.778954e-02	-1.988733e-01
7.765453e-01	-3.501935e-02	-2.068691e-01
7.378848e-01	-3.192743e-02	-2.120636e-01
6.815796e-01	-2.849114e-02	-2.190608e-01
6.085264e-01	-2.476557e-02	-2.170697e-01
5.087247e-01	-2.077666e-02	-2.110538e-01
3.607212e-01	-1.660749e-02	-1.725895e-01
1.373099e-01	-1.225984e-02	-8.209861e-02
-1.815787e-01	-7.847119e-03	1.392169e-01
-6.032831e-01	-3.229470e-03	8.055324e-01
-4.198812e-01	1.390191e-03	2.663332e+00
2.682660e+00	6.790520e-03	2.686493e+00
2.844229e+00	1.150669e-02	8.787802e-01
2.433356e+00	1.632092e-02	6.276288e-02
2.097412e+00	2.103030e-02	-1.880925e-01
1.860545e+00	2.579355e-02	-3.425115e-01
1.689694e+00	3.049101e-02	-4.046609e-01
1.539102e+00	3.511689e-02	-4.520483e-01
1.427840e+00	3.955304e-02	-4.689669e-01
1.330744e+00	4.372763e-02	-4.834485e-01
1.251925e+00	4.753302e-02	-4.826516e-01
1.182686e+00	5.085885e-02	-4.821183e-01
1.123353e+00	5.367638e-02	-4.738662e-01
1.070405e+00	5.593587e-02	-4.672048e-01
1.021751e+00	5.764173e-02	-4.562187e-01
9.765978e-01	5.883520e-02	-4.469613e-01
9.307661e-01	5.958713e-02	-4.334901e-01
8.867531e-01	5.998590e-02	-4.208824e-01
8.402949e-01	6.013233e-02	-4.037770e-01
7.917017e-01	6.012870e-02	-3.846392e-01
7.448102e-01	6.008540e-02	-3.634745e-01
8.205612e-01	-2.041104e-02	-1.444978e-01
8.397195e-01	-2.035920e-02	-1.493913e-01
8.527021e-01	-2.022883e-02	-1.554983e-01
8.598604e-01	-1.999278e-02	-1.610650e-01
8.580692e-01	-1.963414e-02	-1.672109e-01
8.551022e-01	-1.913625e-02	-1.725394e-01
8.434783e-01	-1.848934e-02	-1.783472e-01
8.308740e-01	-1.768809e-02	-1.829826e-01
8.103138e-01	-1.670538e-02	-1.889897e-01
7.869217e-01	-1.558508e-02	-1.936054e-01
7.528524e-01	-1.431293e-02	-2.005574e-01
7.115553e-01	-1.290375e-02	-2.044966e-01
6.517314e-01	-1.134753e-02	-2.094675e-01
5.745715e-01	-9.680473e-03	-2.049575e-01
4.697805e-01	-7.912666e-03	-1.948971e-01
3.150257e-01	-6.076565e-03	-1.507262e-01
8.302137e-02	-4.168905e-03	-4.963909e-02
-2.483832e-01	-2.237603e-03	1.904361e-01
-6.768087e-01	-2.218051e-04	9.037074e-01
-4.509243e-01	1.786566e-03	2.860241e+00
2.823771e+00	4.115782e-03	2.827806e+00
2.961963e+00	6.123853e-03	9.151563e-01
2.517986e+00	8.137423e-03	6.494571e-02
2.160715e+00	1.006135e-02	-1.937694e-01
1.910371e+00	1.195188e-02	-3.516840e-01
1.730302e+00	1.375547e-02	-4.143859e-01
1.572799e+00	1.546750e-02	-4.619454e-01
1.456135e+00	1.704735e-02	-4.782605e-01
1.354661e+00	1.847753e-02	-4.921373e-01
1.271703e+00	1.974360e-02	-4.902765e-01
1.198800e+00	2.080888e-02	-4.886870e-01
1.136484e+00	2.166919e-02	-4.794056e-01
1.080553e+00	2.230621e-02	-4.716345e-01
1.029171e+00	2.277782e-02	-4.595318e-01
9.815355e-01	2.307989e-02	-4.492212e-01
9.334891e-01	2.324454e-02	-4.347584e-01
8.875246e-01	2.330701e-02	-4.212486e-01
8.394017e-01	2.330477e-02	-4.033478e-01
7.894764e-01	2.327430e-02	-3.835581e-01
7.416755e-01	2.324750e-02	-3.619447e-01
8.181572e-01	-1.021943e-02	-1.440745e-01
8.367423e-01	-1.019839e-02	-1.488616e-01
8.489695e-01	-1.014210e-02	-1.548177e-01
8.553552e-01	-1.003627e-02	-1.602212e-01
8.527759e-01	-9.871077e-03	-1.661794e-01
8.489700e-01	-9.623168e-03	-1.713021e-01
8.364777e-01	-9.310469e-03	-1.768670e-01
8.225793e-01	-8.912991e-03	-1.811559e-01
8.009471e-01	-8.439647e-03	-1.868051e-01
7.769239e-01	-7.875749e-03	-1.911456e-01
7.414993e-01	-7.236355e-03	-1.975329e-01
6.983663e-01	-6.498780e-03	-2.007062e-01
6.368049e-01	-5.693265e-03	-2.046701e-01
5.574885e-01	-4.817082e-03	-1.988637e-01
4.500736e-01	-3.882285e-03	-1.867213e-01
2.917783e-01	-2.906314e-03	-1.396033e-01
5.530435e-02	-1.892493e-03	-3.306688e-02
-2.825386e-01	-8.590086e-04	2.166232e-01
-7.144041e-01	2.206652e-04	9.539065e-01
-4.667588e-01	1.295298e-03	2.960679e+00
2.895343e+00	2.537404e-03	2.899481e+00
3.021212e+00	3.602123e-03	9.334624e-01
2.560196e+00	4.661730e-03	6.603441e-02
2.191940e+00	5.665066e-03	-1.965696e-01
1.934684e+00	6.644837e-03	-3.561599e-01
1.749906e+00	7.565023e-03	-4.190808e-01
1.588903e+00	8.429494e-03	-4.666754e-01
1.469545e+00	9.226594e-03	-4.826649e-01
1.365875e+00	9.935355e-03	-4.962113e-01
1.281342e+00	1.055450e-02	-4.939927e-01
1.206800e+00	1.109305e-02	-4.919480e-01
1.142497e+00	1.152446e-02	-4.819420e-01
1.085248e+00	1.186260e-02	-4.736835e-01
1.032973e+00	1.210082e-02	-4.612293e-01
9.842012e-01	1.226094e-02	-4.504412e-01
9.351560e-01	1.234194e-02	-4.355347e-01
8.883141e-01	1.238592e-02	-4.216233e-01
8.394631e-01	1.239613e-02	-4.033773e-01
7.889776e-01	1.238930e-02	-3.833158e-01
7.407060e-01	1.238064e-02	-3.614716e-01
8.170296e-01	-5.651574e-03	-1.438759e-01
8.351874e-01	-5.640455e-03	-1.485850e-01
8.470046e-01	-5.608952e-03	-1.544593e-01
8.529501e-01	-5.549582e-03	-1.597706e-01
8.496149e-01	-5.453402e-03	-1.655634e-01
8.453709e-01	-5.313123e-03	-1.705759e-01
8.324942e-01	-5.141790e-03	-1.760247e-01
8.184745e-01	-4.922107e-03	-1.802519e-01
7.963131e-01	-4.657214e-03	-1.857243e-01
7.711241e-01	-4.321467e-03	-1.897187e-01
7.348571e-01	-3.930591e-03	-1.957635e-01
6.909890e-01	-3.494307e-03	-1.985860e-01
6.283765e-01	-3.022827e-03	-2.019612e-01
5.476664e-01	-2.602521e-03	-1.953601e-01
4.386893e-01	-2.059254e-03	-1.819983e-01
2.783826e-01	-1.451717e-03	-1.331940e-01
3.930563e-02	-8.423571e-04	-2.350113e-02
-3.024302e-01	-2.228318e-04	2.318741e-01
-7.363025e-01	4.249026e-04	9.831463e-01
-4.759695e-01	1.069497e-03	3.019103e+00
2.936831e+00	1.812656e-03	2.941028e+00
3.055377e+00	2.447355e-03	9.440184e-01
2.584392e+00	3.075701e-03	6.665849e-02
2.209842e+00	3.666418e-03	-1.981750e-01
1.948476e+00	4.235983e-03	-3.586988e-01
1.760857e+00	4.759206e-03	-4.217035e-01
1.597935e+00	5.244898e-03	-4.693283e-01
1.476994e+00	5.788709e-03	-4.851113e-01
1.371960e+00	6.193010e-03	-4.984222e-01
1.286312e+00	6.531413e-03	-4.959088e-01
1.210947e+00	6.812332e-03	-4.936386e-01
1.146318e+00	7.041793e-03	-4.835539e-01
1.088276e+00	7.239286e-03	-4.750052e-01
1.034942e+00	7.381697e-03	-4.621087e-01
9.854723e-01	7.479834e-03	-4.510229e-01
9.358721e-01	7.528310e-03	-4.358682e-01
8.888580e-01	7.551649e-03	-4.218815e-01
8.396033e-01	7.558075e-03	-4.034447e-01
7.887825e-01	7.554232e-03	-3.832210e-01
7.403483e-01	7.549973e-03	-3.612970e-01
8.162911e-01	-3.262373e-03	-1.437459e-01
8.342286e-01	-3.269355e-03	-1.484144e-01
8.457751e-01	-3.250108e-03	-1.542351e-01
8.513805e-01	-3.213659e-03	-1.594766e-01
8.479428e-01	-3.152017e-03	-1.652376e-01
8.435665e-01	-3.099496e-03	-1.702118e-01
8.304287e-01	-2.982454e-03	-1.755880e-01
8.156782e-01	-2.838671e-03	-1.796360e-01
7.928349e-01	-2.654584e-03	-1.849131e-01
7.673837e-01	-2.422369e-03	-1.887985e-01
7.306882e-01	-2.183090e-03	-1.946529e-01
6.862663e-01	-1.957508e-03	-1.972287e-01
6.243806e-01	-1.643527e-03	-2.006769e-01
5.432391e-01	-1.425486e-03	-1.937808e-01
4.313897e-01	-1.061103e-03	-1.789700e-01
2.693337e-01	-6.835024e-04	-1.288645e-01
2.906011e-02	-2.878794e-04	-1.737525e-02
-3.149484e-01	1.070489e-04	2.414719e-01
-7.500940e-01	5.191079e-04	1.001561e+00
-4.817645e-01	9.283574e-04	3.055861e+00
2.962852e+00	1.399379e-03	2.967086e+00
3.076723e+00	1.800460e-03	9.506135e-01
2.599414e+00	2.196141e-03	6.704597e-02
2.220662e+00	2.566031e-03	-1.991453e-01
1.956579e+00	2.915862e-03	-3.601906e-01
1.767173e+00	3.242296e-03	-4.232161e-01
1.604551e+00	3.655812e-03	-4.712713e-01
1.482641e+00	3.905417e-03	-4.869661e-01
1.375547e+00	4.155684e-03	-4.997250e-01
1.289156e+00	4.374355e-03	-4.970054e-01
1.213191e+00	4.539328e-03	-4.945533e-01
1.147948e+00	4.644939e-03	-4.842415e-01
1.089800e+00	4.739442e-03	-4.756706e-01
1.036456e+00	4.814334e-03	-4.627845e-01
9.865965e-01	4.860324e-03	-4.515374e-01
9.365318e-01	4.921826e-03	-4.361754e-01
8.890418e-01	4.930905e-03	-4.219687e-01
8.396012e-01	4.932742e-03	-4.034437e-01
7.886065e-01	4.929404e-03	-3.831355e-01
7.400539e-01	4.940300e-03	-3.611533e-01
8.182014e-01	-2.028613e-03	-1.440823e-01
8.341244e-01	-2.024594e-03	-1.483959e-01
8.450460e-01	-2.014448e-03	-1.541022e-01
8.504373e-01	-1.995912e-03	-1.593000e-01
8.473378e-01	-1.965884e-03	-1.651197e-01
8.423764e-01	-2.009965e-03	-1.699717e-01
8.284634e-01	-1.887891e-03	-1.751725e-01
8.138008e-01	-1.783287e-03	-1.792226e-01
7.906907e-01	-1.684503e-03	-1.844130e-01
7.649355e-01	-1.543652e-03	-1.881962e-01
7.287783e-01	-1.388093e-03	-1.941441e-01
6.838150e-01	-1.218784e-03	-1.965242e-01
6.209354e-01	-1.020946e-03	-1.995696e-01
5.391053e-01	-7.430241e-04	-1.923062e-01
4.266131e-01	-5.074447e-04	-1.769883e-01
2.641486e-01	-2.997767e-04	-1.263837e-01
2.240454e-02	-5.597143e-05	-1.339584e-02
-3.230721e-01	1.666666e-04	2.477003e-01
-7.589890e-01	4.280141e-04	1.013438e+00
-4.854893e-01	6.869877e-04	3.079488e+00
2.979549e+00	9.840195e-04	2.983807e+00
3.090382e+00	1.235024e-03	9.548339e-01
2.609010e+00	1.507075e-03	6.729346e-02
2.227638e+00	1.736264e-03	-1.997709e-01
1.962035e+00	1.956511e-03	-3.611949e-01
1.773648e+00	2.170020e-03	-4.247668e-01
1.607867e+00	2.396195e-03	-4.722452e-01
1.483931e+00	2.468401e-03	-4.873899e-01
1.378070e+00	2.612060e-03	-5.006416e-01
1.291151e+00	2.747544e-03	-4.977745e-01
1.214337e+00	2.859630e-03	-4.950206e-01
1.148872e+00	2.949448e-03	-4.846313e-01
1.090541e+00	3.047486e-03	-4.759940e-01
1.036697e+00	3.112582e-03	-4.628923e-01
9.871737e-01	3.233013e-03	-4.518016e-01
9.372718e-01	3.224398e-03	-4.365201e-01
8.891279e-01	3.218390e-03	-4.220096e-01
8.395876e-01	3.215415e-03	-4.034372e-01
7.889178e-01	3.212167e-03	-3.832867e-01
7.420170e-01	3.209882e-03	-3.621114e-01
8.156167e-01	-1.147370e-03	-1.436271e-01
8.334039e-01	-1.130515e-03	-1.482677e-01
8.447694e-01	-1.122155e-03	-1.540517e-01
8.501395e-01	-1.131330e-03	-1.592442e-01
8.483627e-01	-1.111342e-03	-1.653194e-01
8.420338e-01	-1.060071e-03	-1.699025e-01
8.269560e-01	-1.018949e-03	-1.748537e-01
8.127927e-01	-9.904509e-04	-1.790006e-01
7.895948e-01	-9.974443e-04	-1.841574e-01
7.634925e-01	-9.171967e-04	-1.878411e-01
7.264419e-01	-8.140063e-04	-1.935217e-01
6.813763e-01	-6.587648e-04	-1.958234e-01
6.178001e-01	-5.785529e-04	-1.985620e-01
5.355678e-01	-3.437273e-04	-1.910443e-01
4.241380e-01	-2.533178e-04	-1.759615e-01
2.610644e-01	-1.247117e-04	-1.249080e-01
1.903650e-02	1.297432e-05	-1.138206e-02
-3.272111e-01	1.554440e-04	2.508737e-01
-7.644698e-01	3.053472e-04	1.020757e+00
-4.877793e-01	4.547264e-04	3.094014e+00
2.989678e+00	6.266524e-04	2.993950e+00
3.099924e+00	7.727083e-04	9.577820e-01
2.615398e+00	9.162748e-04	6.745822e-02
2.231786e+00	1.050290e-03	-2.001429e-01
1.965291e+00	1.178079e-03	-3.617943e-01
1.774730e+00	1.298101e-03	-4.250259e-01
1.608961e+00	1.324941e-03	-4.725666e-01
1.485668e+00	1.435551e-03	-4.879605e-01
1.379186e+00	1.542355e-03	-5.010472e-01
1.292280e+00	1.602609e-03	-4.982096e-01
1.215719e+00	1.670520e-03	-4.955840e-01
1.150341e+00	1.815831e-03	-4.852509e-01
1.091988e+00	1.836270e-03	-4.766255e-01
1.039080e+00	1.877888e-03	-4.639563e-01
9.885196e-01	1.889591e-03	-4.524176e-01
9.362560e-01	1.874665e-03	-4.360470e-01
8.888282e-01	1.877598e-03	-4.218673e-01
8.394134e-01	1.899296e-03	-4.033534e-01
7.883340e-01	1.896114e-03	-3.830031e-01
7.397041e-01	1.880526e-03	-3.609826e-01
8.153728e-01	-1.378897e-03	-1.435842e-01
8.329801e-01	-1.378985e-03	-1.481923e-01
8.451839e-01	-1.379718e-03	-1.541273e-01
8.500769e-01	-1.361938e-03	-1.592325e-01
8.458479e-01	-1.320381e-03	-1.648294e-01
8.407963e-01	-1.242771e-03	-1.696528e-01
8.274022e-01	-1.145928e-03	-1.749481e-01
8.135113e-01	-1.208636e-03	-1.791588e-01
7.896812e-01	-9.885833e-04	-1.841775e-01
7.625265e-01	-1.037066e-03	-1.876035e-01
7.254035e-01	-6.794030e-04	-1.932451e-01
6.806540e-01	-7.662105e-04	-1.956158e-01
6.166231e-01	-3.296303e-04	-1.981837e-01
5.341619e-01	-3.922726e-04	-1.905428e-01
4.230846e-01	6.819753e-05	-1.755244e-01
2.592512e-01	4.090721e-04	-1.240405e-01
1.642762e-02	6.058041e-04	-9.822196e-03
-3.305456e-01	6.549306e-04	2.534303e-01
-7.672530e-01	7.026822e-04	1.024473e+00
-4.889640e-01	7.636696e-04	3.101529e+00
2.995121e+00	8.449298e-04	2.999401e+00
3.103102e+00	9.242416e-04	9.587639e-01
2.617935e+00	9.910905e-04	6.752366e-02
2.234114e+00	1.103617e-03	-2.003517e-01
1.967005e+00	1.039130e-03	-3.621099e-01
1.776064e+00	8.573145e-04	-4.253455e-01
1.610012e+00	4.781341e-04	-4.728752e-01
1.486947e+00	6.404647e-04	-4.883803e-01
1.380237e+00	3.243998e-04	-5.014289e-01
1.292770e+00	4.550958e-04	-4.983985e-01
1.217001e+00	1.611605e-04	-4.961065e-01
1.151016e+00	3.125119e-04	-4.855355e-01
1.091360e+00	5.386285e-05	-4.763511e-01
1.037484e+00	1.098772e-04	-4.632433e-01
9.871503e-01	-1.077793e-04	-4.517909e-01
9.370186e-01	-5.008711e-05	-4.364021e-01
8.896350e-01	-6.468921e-05	-4.222502e-01
8.402952e-01	-7.080852e-05	-4.037772e-01
7.882323e-01	-6.579183e-05	-3.829537e-01
7.396299e-01	-6.471691e-05	-3.609464e-01
8.156314e-01	-2.000996e-04	-1.436297e-01
8.334566e-01	-2.282449e-04	-1.482771e-01
8.440862e-01	-1.738245e-04	-1.539271e-01
8.485925e-01	-1.210938e-04	-1.589544e-01
8.459013e-01	-9.861402e-05	-1.648398e-01
8.390066e-01	-7.859531e-05	-1.692917e-01
8.265499e-01	-6.191391e-05	-1.747679e-01
8.104323e-01	-4.554415e-05	-1.784807e-01
7.873518e-01	1.016162e-05	-1.836342e-01
7.594083e-01	9.550275e-06	-1.868363e-01
7.228656e-01	1.064113e-05	-1.925690e-01
6.768501e-01	-1.451281e-05	-1.945226e-01
6.123781e-01	-3.451352e-05	-1.968193e-01
5.300244e-01	-2.460097e-05	-1.890669e-01
4.109551e-01	1.282517e-05	-1.704923e-01
2.509128e-01	-1.485968e-05	-1.200509e-01
1.341407e-02	-6.781556e-06	-8.020371e-03
-3.297033e-01	4.579169e-08	2.527845e-01
-7.673966e-01	5.399389e-06	1.024665e+00
-4.892978e-01	9.610201e-06	3.103646e+00
2.997638e+00	1.379927e-05	3.001922e+00
3.106242e+00	1.714004e-05	9.597341e-01
2.621434e+00	2.032834e-05	6.761392e-02
2.232467e+00	2.292408e-05	-2.002039e-01
1.960129e+00	6.121739e-05	-3.608441e-01
1.764887e+00	6.358082e-05	-4.226687e-01
1.606071e+00	3.705950e-05	-4.717177e-01
1.483323e+00	9.785016e-05	-4.871900e-01
1.376884e+00	9.493999e-05	-5.002110e-01
1.290187e+00	9.437985e-05	-4.974027e-01
1.213907e+00	9.885622e-05	-4.948453e-01
1.149073e+00	6.960970e-05	-4.847159e-01
1.089156e+00	8.994123e-05	-4.753894e-01
1.036951e+00	1.085725e-04	-4.630054e-01
9.856726e-01	1.321695e-04	-4.511146e-01
9.371796e-01	1.575089e-04	-4.364771e-01
8.883312e-01	1.872227e-04	-4.216314e-01
8.393153e-01	1.983357e-04	-4.033063e-01
7.886779e-01	2.768349e-04	-3.831702e-01
7.398687e-01	2.662734e-04	-3.610630e-01
8.200962e-01	1.460162e-03	-1.444159e-01
8.302630e-01	1.460474e-03	-1.477089e-01
8.416358e-01	1.462023e-03	-1.534803e-01
8.483069e-01	1.446394e-03	-1.589009e-01
8.449985e-01	1.407796e-03	-1.646639e-01
8.401679e-01	1.420952e-03	-1.695260e-01
8.268942e-01	1.282022e-03	-1.748407e-01
8.124703e-01	1.343561e-03	-1.789296e-01
7.889532e-01	1.074726e-03	-1.840077e-01
7.625201e-01	1.127948e-03	-1.876019e-01
7.257161e-01	7.802983e-04	-1.933283e-01
6.812578e-01	7.944629e-04	-1.957893e-01
6.167767e-01	3.642156e-04	-1.982330e-01
5.334773e-01	4.552547e-04	-1.902986e-01
4.228574e-01	-3.938614e-05	-1.754302e-01
2.596711e-01	-3.799634e-04	-1.242414e-01
1.610588e-02	-5.773209e-04	-9.629827e-03
-3.308643e-01	-6.026559e-04	2.536746e-01
-7.675235e-01	-6.539738e-04	1.024834e+00
-4.890561e-01	-7.478640e-04	3.102112e+00
2.995488e+00	-8.348106e-04	2.999769e+00
3.103388e+00	-8.902770e-04	9.588522e-01
2.618119e+00	-9.877651e-04	6.752841e-02
2.235232e+00	-1.103248e-03	-2.004519e-01
1.967759e+00	-1.042745e-03	-3.622487e-01
1.775618e+00	-8.323382e-04	-4.252385e-01
1.610595e+00	-4.884479e-04	-4.730465e-01
1.487722e+00	-6.574168e-04	-4.886348e-01
1.380192e+00	-3.519084e-04	-5.014127e-01
1.292820e+00	-4.149093e-04	-4.984177e-01
1.216693e+00	-1.334765e-04	-4.959810e-01
1.150890e+00	-2.318591e-04	-4.854825e-01
1.091880e+00	-1.925578e-05	-4.765781e-01
1.038086e+00	-1.197284e-04	-4.635124e-01
9.879304e-01	-9.735750e-06	-4.521480e-01
9.380327e-01	-4.261971e-05	-4.368745e-01
8.906198e-01	-1.632945e-05	-4.227177e-01
8.426317e-01	-7.365591e-06	-4.048999e-01
7.927548e-01	-1.168633e-05	-3.851509e-01
7.380125e-01	-1.267766e-05	-3.601571e-01
8.155792e-01	1.515586e-03	-1.436205e-01
8.333410e-01	1.540877e-03	-1.482565e-01
8.446624e-01	1.477771e-03	-1.540322e-01
8.500102e-01	1.441022e-03	-1.592200e-01
8.463164e-01	1.305133e-03	-1.649207e-01
8.413464e-01	1.260015e-03	-1.697638e-01
8.275907e-01	1.201365e-03	-1.749879e-01
8.135232e-01	1.126790e-03	-1.791615e-01
7.901746e-01	1.081284e-03	-1.842926e-01
7.632985e-01	9.840396e-04	-1.877934e-01
7.272542e-01	8.788719e-04	-1.937381e-01
6.822819e-01	7.936966e-04	-1.960836e-01
6.173270e-01	6.997251e-04	-1.984099e-01
5.356087e-01	5.382797e-04	-1.910589e-01
4.247262e-01	3.921852e-04	-1.762055e-01
2.610690e-01	2.747494e-04	-1.249102e-01
1.860196e-02	1.158918e-04	-1.112225e-02
-3.278430e-01	-4.451470e-05	2.513581e-01
-7.636289e-01	-2.104819e-04	1.019634e+00
-4.873044e-01	-3.744861e-04	3.091002e+00
2.990838e+00	-5.627322e-04	2.995112e+00
3.099134e+00	-7.227872e-04	9.575381e-01
2.614455e+00	-8.804726e-04	6.743391e-02
2.231610e+00	-1.027699e-03	-2.001271e-01
1.965844e+00	-1.203983e-03	-3.618961e-01
1.774544e+00	-1.333856e-03	-4.249815e-01
1.608346e+00	-1.455557e-03	-4.723861e-01
1.485428e+00	-1.600380e-03	-4.878815e-01
1.379952e+00	-1.700717e-03	-5.013254e-01
1.292971e+00	-1.782536e-03	-4.984759e-01
1.216222e+00	-1.855274e-03	-4.957888e-01
1.150454e+00	-1.954265e-03	-4.852983e-01
1.090781e+00	-2.002570e-03	-4.760988e-01
1.036941e+00	-2.038313e-03	-4.630010e-01
9.870557e-01	-2.079436e-03	-4.517476e-01
9.369558e-01	-2.123031e-03	-4.363729e-01
8.891852e-01	-2.068090e-03	-4.220368e-01
8.395336e-01	-2.111509e-03	-4.034112e-01
7.883797e-01	-2.188384e-03	-3.830253e-01
7.397169e-01	-2.176755e-03	-3.609889e-01
8.158517e-01	2.164802e-03	-1.436685e-01
8.336659e-01	2.160399e-03	-1.483143e-01
8.447856e-01	2.153629e-03	-1.540547e-01
8.529025e-01	2.054160e-03	-1.597617e-01
8.484670e-01	2.021478e-03	-1.653398e-01
8.419709e-01	1.984180e-03	-1.698898e-01
8.289548e-01	1.903988e-03	-1.752764e-01
8.141625e-01	1.808014e-03	-1.793022e-01
7.908902e-01	1.708625e-03	-1.844595e-01
7.651772e-01	1.562378e-03	-1.882556e-01
7.282062e-01	1.392877e-03	-1.939917e-01
6.836452e-01	1.287927e-03	-1.964754e-01
6.202986e-01	1.063903e-03	-1.993650e-01
5.380645e-01	8.523520e-04	-1.919350e-01