# vtk DataFile Version 2.0
OUTPUT by 3D-VPM
ASCII
DATASET UNSTRUCTURED_GRID
POINTS 820 double
9.510565e-01	0.000000e+00	-3.090170e-01
9.442611e-01	0.000000e+00	-3.078203e-01
9.267277e-01	0.000000e+00	-3.047010e-01
8.963175e-01	0.000000e+00	-2.991555e-01
8.562911e-01	0.000000e+00	-2.916579e-01
8.054250e-01	0.000000e+00	-2.817457e-01
7.470317e-01	0.000000e+00	-2.699633e-01
6.809074e-01	0.000000e+00	-2.559818e-01
6.100852e-01	0.000000e+00	-2.403847e-01
5.354138e-01	0.000000e+00	-2.229691e-01
4.593635e-01	0.000000e+00	-2.042585e-01
3.837764e-01	0.000000e+00	-1.841224e-01
3.103069e-01	0.000000e+00	-1.630077e-01
2.415927e-01	0.000000e+00	-1.409228e-01
1.782654e-01	0.000000e+00	-1.183331e-01
1.234349e-01	0.000000e+00	-9.558566e-02
7.662509e-02	0.000000e+00	-7.318920e-02
4.106998e-02	0.000000e+00	-5.193053e-02
1.528206e-02	0.000000e+00	-3.215886e-02
2.347037e-03	0.000000e+00	-1.488740e-02
0.000000e+00	0.000000e+00	0.000000e+00
1.064939e-02	0.000000e+00	1.066461e-02
3.126595e-02	0.000000e+00	1.703450e-02
6.375031e-02	0.000000e+00	1.787236e-02
1.050105e-01	0.000000e+00	1.417221e-02
1.560448e-01	0.000000e+00	4.777214e-03
2.137742e-01	0.000000e+00	-9.048270e-03
2.782849e-01	0.000000e+00	-2.799567e-02
3.468570e-01	0.000000e+00	-5.051783e-02
4.187060e-01	0.000000e+00	-7.662000e-02
4.916930e-01	0.000000e+00	-1.047585e-01
5.642168e-01	0.000000e+00	-1.343226e-01
6.348639e-01	0.000000e+00	-1.641238e-01
7.013280e-01	0.000000e+00	-1.931337e-01
7.630418e-01	0.000000e+00	-2.206893e-01
8.172084e-01	0.000000e+00	-2.454799e-01
8.641863e-01	0.000000e+00	-2.673591e-01
9.009752e-01	0.000000e+00	-2.848204e-01
9.288372e-01	0.000000e+00	-2.982085e-01
9.448555e-01	0.000000e+00	-3.059908e-01
9.510565e-01	0.000000e+00	-3.090170e-01
9.510565e-01	1.052632e+00	-3.090170e-01
9.442611e-01	1.052632e+00	-3.078203e-01
9.267277e-01	1.052632e+00	-3.047010e-01
8.963175e-01	1.052632e+00	-2.991555e-01
8.562911e-01	1.052632e+00	-2.916579e-01
8.054250e-01	1.052632e+00	-2.817457e-01
7.470317e-01	1.052632e+00	-2.699633e-01
6.809074e-01	1.052632e+00	-2.559818e-01
6.100852e-01	1.052632e+00	-2.403847e-01
5.354138e-01	1.052632e+00	-2.229691e-01
4.593635e-01	1.052632e+00	-2.042585e-01
3.837764e-01	1.052632e+00	-1.841224e-01
3.103069e-01	1.052632e+00	-1.630077e-01
2.415927e-01	1.052632e+00	-1.409228e-01
1.782654e-01	1.052632e+00	-1.183331e-01
1.234349e-01	1.052632e+00	-9.558566e-02
7.662509e-02	1.052632e+00	-7.318920e-02
4.106998e-02	1.052632e+00	-5.193053e-02
1.528206e-02	1.052632e+00	-3.215886e-02
2.347037e-03	1.052632e+00	-1.488740e-02
0.000000e+00	1.052632e+00	0.000000e+00
1.064939e-02	1.052632e+00	1.066461e-02
3.126595e-02	1.052632e+00	1.703450e-02
6.375031e-02	1.052632e+00	1.787236e-02
1.050105e-01	1.052632e+00	1.417221e-02
1.560448e-01	1.052632e+00	4.777214e-03
2.137742e-01	1.052632e+00	-9.048270e-03
2.782849e-01	1.052632e+00	-2.799567e-02
3.468570e-01	1.052632e+00	-5.051783e-02
4.187060e-01	1.052632e+00	-7.662000e-02
4.916930e-01	1.052632e+00	-1.047585e-01
5.642168e-01	1.052632e+00	-1.343226e-01
6.348639e-01	1.052632e+00	-1.641238e-01
7.013280e-01	1.052632e+00	-1.931337e-01
7.630418e-01	1.052632e+00	-2.206893e-01
8.172084e-01	1.052632e+00	-2.454799e-01
8.641863e-01	1.052632e+00	-2.673591e-01
9.009752e-01	1.052632e+00	-2.848204e-01
9.288372e-01	1.052632e+00	-2.982085e-01
9.448555e-01	1.052632e+00	-3.059908e-01
9.510565e-01	1.052632e+00	-3.090170e-01
9.510565e-01	2.105263e+00	-3.090170e-01
9.442611e-01	2.105263e+00	-3.078203e-01
9.267277e-01	2.105263e+00	-3.047010e-01
8.963175e-01	2.105263e+00	-2.991555e-01
8.562911e-01	2.105263e+00	-2.916579e-01
8.054250e-01	2.105263e+00	-2.817457e-01
7.470317e-01	2.105263e+00	-2.699633e-01
6.809074e-01	2.105263e+00	-2.559818e-01
6.100852e-01	2.105263e+00	-2.403847e-01
5.354138e-01	2.105263e+00	-2.229691e-01
4.593635e-01	2.105263e+00	-2.042585e-01
3.837764e-01	2.105263e+00	-1.841224e-01
3.103069e-01	2.105263e+00	-1.630077e-01
2.415927e-01	2.105263e+00	-1.409228e-01
1.782654e-01	2.105263e+00	-1.183331e-01
1.234349e-01	2.105263e+00	-9.558566e-02
7.662509e-02	2.105263e+00	-7.318920e-02
4.106998e-02	2.105263e+00	-5.193053e-02
1.528206e-02	2.105263e+00	-3.215886e-02
2.347037e-03	2.105263e+00	-1.488740e-02
0.000000e+00	2.105263e+00	0.000000e+00
1.064939e-02	2.105263e+00	1.066461e-02
3.126595e-02	2.105263e+00	1.703450e-02
6.375031e-02	2.105263e+00	1.787236e-02
1.050105e-01	2.105263e+00	1.417221e-02
1.560448e-01	2.105263e+00	4.777214e-03
2.137742e-01	2.105263e+00	-9.048270e-03
2.782849e-01	2.105263e+00	-2.799567e-02
3.468570e-01	2.105263e+00	-5.051783e-02
4.187060e-01	2.105263e+00	-7.662000e-02
4.916930e-01	2.105263e+00	-1.047585e-01
5.642168e-01	2.105263e+00	-1.343226e-01
6.348639e-01	2.105263e+00	-1.641238e-01
7.013280e-01	2.105263e+00	-1.931337e-01
7.630418e-01	2.105263e+00	-2.206893e-01
8.172084e-01	2.105263e+00	-2.454799e-01
8.641863e-01	2.105263e+00	-2.673591e-01
9.009752e-01	2.105263e+00	-2.848204e-01
9.288372e-01	2.105263e+00	-2.982085e-01
9.448555e-01	2.105263e+00	-3.059908e-01
9.510565e-01	2.105263e+00	-3.090170e-01
9.510565e-01	3.157895e+00	-3.090170e-01
9.442611e-01	3.157895e+00	-3.078203e-01
9.267277e-01	3.157895e+00	-3.047010e-01
8.963175e-01	3.157895e+00	-2.991555e-01
8.562911e-01	3.157895e+00	-2.916579e-01
8.054250e-01	3.157895e+00	-2.817457e-01
7.470317e-01	3.157895e+00	-2.699633e-01
6.809074e-01	3.157895e+00	-2.559818e-01
6.100852e-01	3.157895e+00	-2.403847e-01
5.354138e-01	3.157895e+00	-2.229691e-01
4.593635e-01	3.157895e+00	-2.042585e-01
3.837764e-01	3.157895e+00	-1.841224e-01
3.103069e-01	3.157895e+00	-1.630077e-01
2.415927e-01	3.157895e+00	-1.409228e-01
1.782654e-01	3.157895e+00	-1.183331e-01
1.234349e-01	3.157895e+00	-9.558566e-02
7.662509e-02	3.157895e+00	-7.318920e-02
4.106998e-02	3.157895e+00	-5.193053e-02
1.528206e-02	3.157895e+00	-3.215886e-02
2.347037e-03	3.157895e+00	-1.488740e-02
0.000000e+00	3.157895e+00	0.000000e+00
1.064939e-02	3.157895e+00	1.066461e-02
3.126595e-02	3.157895e+00	1.703450e-02
6.375031e-02	3.157895e+00	1.787236e-02
1.050105e-01	3.157895e+00	1.417221e-02
1.560448e-01	3.157895e+00	4.777214e-03
2.137742e-01	3.157895e+00	-9.048270e-03
2.782849e-01	3.157895e+00	-2.799567e-02
3.468570e-01	3.157895e+00	-5.051783e-02
4.187060e-01	3.157895e+00	-7.662000e-02
4.916930e-01	3.157895e+00	-1.047585e-01
5.642168e-01	3.157895e+00	-1.343226e-01
6.348639e-01	3.157895e+00	-1.641238e-01
7.013280e-01	3.157895e+00	-1.931337e-01
7.630418e-01	3.157895e+00	-2.206893e-01
8.172084e-01	3.157895e+00	-2.454799e-01
8.641863e-01	3.157895e+00	-2.673591e-01
9.009752e-01	3.157895e+00	-2.848204e-01
9.288372e-01	3.157895e+00	-2.982085e-01
9.448555e-01	3.157895e+00	-3.059908e-01
9.510565e-01	3.157895e+00	-3.090170e-01
9.510565e-01	4.210526e+00	-3.090170e-01
9.442611e-01	4.210526e+00	-3.078203e-01
9.267277e-01	4.210526e+00	-3.047010e-01
8.963175e-01	4.210526e+00	-2.991555e-01
8.562911e-01	4.210526e+00	-2.916579e-01
8.054250e-01	4.210526e+00	-2.817457e-01
7.470317e-01	4.210526e+00	-2.699633e-01
6.809074e-01	4.210526e+00	-2.559818e-01
6.100852e-01	4.210526e+00	-2.403847e-01
5.354138e-01	4.210526e+00	-2.229691e-01
4.593635e-01	4.210526e+00	-2.042585e-01
3.837764e-01	4.210526e+00	-1.841224e-01
3.103069e-01	4.210526e+00	-1.630077e-01
2.415927e-01	4.210526e+00	-1.409228e-01
1.782654e-01	4.210526e+00	-1.183331e-01
1.234349e-01	4.210526e+00	-9.558566e-02
7.662509e-02	4.210526e+00	-7.318920e-02
4.106998e-02	4.210526e+00	-5.193053e-02
1.528206e-02	4.210526e+00	-3.215886e-02
2.347037e-03	4.210526e+00	-1.488740e-02
0.000000e+00	4.210526e+00	0.000000e+00
1.064939e-02	4.210526e+00	1.066461e-02
3.126595e-02	4.210526e+00	1.703450e-02
6.375031e-02	4.210526e+00	1.787236e-02
1.050105e-01	4.210526e+00	1.417221e-02
1.560448e-01	4.210526e+00	4.777214e-03
2.137742e-01	4.210526e+00	-9.048270e-03
2.782849e-01	4.210526e+00	-2.799567e-02
3.468570e-01	4.210526e+00	-5.051783e-02
4.187060e-01	4.210526e+00	-7.662000e-02
4.916930e-01	4.210526e+00	-1.047585e-01
5.642168e-01	4.210526e+00	-1.343226e-01
6.348639e-01	4.210526e+00	-1.641238e-01
7.013280e-01	4.210526e+00	-1.931337e-01
7.630418e-01	4.210526e+00	-2.206893e-01
8.172084e-01	4.210526e+00	-2.454799e-01
8.641863e-01	4.210526e+00	-2.673591e-01
9.009752e-01	4.210526e+00	-2.848204e-01
9.288372e-01	4.210526e+00	-2.982085e-01
9.448555e-01	4.210526e+00	-3.059908e-01
9.510565e-01	4.210526e+00	-3.090170e-01
9.510565e-01	5.263158e+00	-3.090170e-01
9.442611e-01	5.263158e+00	-3.078203e-01
9.267277e-01	5.263158e+00	-3.047010e-01
8.963175e-01	5.263158e+00	-2.991555e-01
8.562911e-01	5.263158e+00	-2.916579e-01
8.054250e-01	5.263158e+00	-2.817457e-01
7.470317e-01	5.263158e+00	-2.699633e-01
6.809074e-01	5.263158e+00	-2.559818e-01
6.100852e-01	5.263158e+00	-2.403847e-01
5.354138e-01	5.263158e+00	-2.229691e-01
4.593635e-01	5.263158e+00	-2.042585e-01
3.837764e-01	5.263158e+00	-1.841224e-01
3.103069e-01	5.263158e+00	-1.630077e-01
2.415927e-01	5.263158e+00	-1.409228e-01
1.782654e-01	5.263158e+00	-1.183331e-01
1.234349e-01	5.263158e+00	-9.558566e-02
7.662509e-02	5.263158e+00	-7.318920e-02
4.106998e-02	5.263158e+00	-5.193053e-02
1.528206e-02	5.263158e+00	-3.215886e-02
2.347037e-03	5.263158e+00	-1.488740e-02
0.000000e+00	5.263158e+00	0.000000e+00
1.064939e-02	5.263158e+00	1.066461e-02
3.126595e-02	5.263158e+00	1.703450e-02
6.375031e-02	5.263158e+00	1.787236e-02
1.050105e-01	5.263158e+00	1.417221e-02
1.560448e-01	5.263158e+00	4.777214e-03
2.137742e-01	5.263158e+00	-9.048270e-03
2.782849e-01	5.263158e+00	-2.799567e-02
3.468570e-01	5.263158e+00	-5.051783e-02
4.187060e-01	5.263158e+00	-7.662000e-02
4.916930e-01	5.263158e+00	-1.047585e-01
5.642168e-01	5.263158e+00	-1.343226e-01
6.348639e-01	5.263158e+00	-1.641238e-01
7.013280e-01	5.263158e+00	-1.931337e-01
7.630418e-01	5.263158e+00	-2.206893e-01
8.172084e-01	5.263158e+00	-2.454799e-01
8.641863e-01	5.263158e+00	-2.673591e-01
9.009752e-01	5.263158e+00	-2.848204e-01
9.288372e-01	5.263158e+00	-2.982085e-01
9.448555e-01	5.263158e+00	-3.059908e-01
9.510565e-01	5.263158e+00	-3.090170e-01
9.510565e-01	6.315789e+00	-3.090170e-01
9.442611e-01	6.315789e+00	-3.078203e-01
[...]
CELL_DATA 760
VECTORS V double
8.414288e-01	-6.902762e-02	-1.481725e-01
8.655511e-01	-6.885404e-02	-1.539869e-01
8.835677e-01	-6.840429e-02	-1.611270e-01
8.953355e-01	-6.760992e-02	-1.677101e-01
8.978026e-01	-6.644903e-02	-1.749537e-01
8.991173e-01	-6.490400e-02	-1.814206e-01
8.920818e-01	-6.296450e-02	-1.886241e-01
8.847738e-01	-6.060649e-02	-1.948529e-01
8.704420e-01	-5.780150e-02	-2.030134e-01
8.548045e-01	-5.451698e-02	-2.103065e-01
8.295026e-01	-5.072747e-02	-2.209767e-01
7.985843e-01	-4.641877e-02	-2.295082e-01
7.512391e-01	-4.162383e-02	-2.414495e-01
6.892203e-01	-3.639383e-02	-2.458543e-01
6.025766e-01	-3.076669e-02	-2.499900e-01
4.719092e-01	-2.486518e-02	-2.257881e-01
2.702107e-01	-1.869728e-02	-1.615610e-01
-1.734532e-02	-1.242900e-02	1.329871e-02
-4.217257e-01	-5.861806e-03	5.631083e-01
-3.426618e-01	7.182292e-04	2.173525e+00
2.326910e+00	8.430805e-03	2.330235e+00
2.541608e+00	1.519513e-02	7.852793e-01
2.210494e+00	2.214092e-02	5.701465e-02
1.925485e+00	2.898791e-02	-1.726743e-01
1.720154e+00	3.597708e-02	-3.166667e-01
1.570382e+00	4.294334e-02	-3.760871e-01
1.435537e+00	4.988102e-02	-4.216303e-01
1.336725e+00	5.661160e-02	-4.390408e-01
1.250632e+00	6.301689e-02	-4.543444e-01
1.181694e+00	6.889911e-02	-4.555755e-01
1.121867e+00	7.414271e-02	-4.573254e-01
1.071612e+00	7.861062e-02	-4.520402e-01
1.027474e+00	8.224066e-02	-4.484665e-01
9.872006e-01	8.502514e-02	-4.407917e-01
9.499805e-01	8.701544e-02	-4.347793e-01
9.115293e-01	8.830948e-02	-4.245309e-01
8.743630e-01	8.903557e-02	-4.150017e-01
8.341893e-01	8.934275e-02	-4.008432e-01
7.910613e-01	8.938666e-02	-3.843281e-01
7.483105e-01	8.934097e-02	-3.651826e-01
8.268633e-01	-4.834018e-02	-1.456076e-01
8.473529e-01	-4.821588e-02	-1.507493e-01
8.618176e-01	-4.789738e-02	-1.571606e-01
8.705061e-01	-4.733360e-02	-1.630592e-01
8.702602e-01	-4.650191e-02	-1.695866e-01
8.688789e-01	-4.538349e-02	-1.753193e-01
8.588830e-01	-4.396768e-02	-1.816044e-01
8.480168e-01	-4.223946e-02	-1.867580e-01
8.293503e-01	-4.018405e-02	-1.934296e-01
8.083663e-01	-3.778627e-02	-1.988814e-01
7.765834e-01	-3.501641e-02	-2.068792e-01
7.379290e-01	-3.192485e-02	-2.120762e-01
6.816307e-01	-2.848902e-02	-2.190772e-01
6.085865e-01	-2.476397e-02	-2.170911e-01
5.087956e-01	-2.077564e-02	-2.110832e-01
3.608066e-01	-1.660708e-02	-1.726303e-01
1.374132e-01	-1.226004e-02	-8.216038e-02
-1.814500e-01	-7.847939e-03	1.391183e-01
-6.031409e-01	-3.230911e-03	8.053426e-01
-4.198216e-01	1.388156e-03	2.662954e+00
2.682394e+00	6.787819e-03	2.686227e+00
2.844014e+00	1.150343e-02	8.787137e-01
2.433207e+00	1.631712e-02	6.275903e-02
2.097305e+00	2.102599e-02	-1.880829e-01
1.860465e+00	2.578875e-02	-3.424967e-01
1.689632e+00	3.048574e-02	-4.046460e-01
1.539052e+00	3.511115e-02	-4.520338e-01
1.427800e+00	3.954685e-02	-4.689539e-01
1.330712e+00	4.372098e-02	-4.834369e-01
1.251899e+00	4.752592e-02	-4.826416e-01
1.182665e+00	5.085133e-02	-4.821097e-01
1.123336e+00	5.366844e-02	-4.738591e-01
1.070391e+00	5.592755e-02	-4.671989e-01
1.021741e+00	5.763311e-02	-4.562140e-01
9.765899e-01	5.882635e-02	-4.469577e-01
9.307606e-01	5.957811e-02	-4.334876e-01
8.867501e-01	5.997679e-02	-4.208810e-01
8.402938e-01	6.012315e-02	-4.037765e-01
7.917023e-01	6.011951e-02	-3.846395e-01
7.448121e-01	6.007620e-02	-3.634754e-01
8.205684e-01	-2.041060e-02	-1.444991e-01
8.397285e-01	-2.035877e-02	-1.493929e-01
8.527134e-01	-2.022842e-02	-1.555004e-01
8.598742e-01	-1.999241e-02	-1.610676e-01
8.580857e-01	-1.963383e-02	-1.672141e-01
8.551217e-01	-1.913600e-02	-1.725434e-01
8.435011e-01	-1.848918e-02	-1.783521e-01
8.309004e-01	-1.768804e-02	-1.829884e-01
8.103443e-01	-1.670546e-02	-1.889968e-01
7.869573e-01	-1.558531e-02	-1.936142e-01
7.528934e-01	-1.431332e-02	-2.005683e-01
7.116023e-01	-1.290428e-02	-2.045101e-01
6.517859e-01	-1.134825e-02	-2.094850e-01
5.746354e-01	-9.681381e-03	-2.049803e-01
4.698559e-01	-7.913775e-03	-1.949283e-01
3.151164e-01	-6.077885e-03	-1.507695e-01
8.313104e-02	-4.170443e-03	-4.970467e-02
-2.482468e-01	-2.239362e-03	1.903315e-01
-6.766581e-01	-2.237941e-04	9.035062e-01
-4.508611e-01	1.784349e-03	2.859840e+00
2.823489e+00	4.113299e-03	2.827524e+00
2.961734e+00	6.121142e-03	9.150856e-01
2.517827e+00	8.134484e-03	6.494161e-02
2.160601e+00	1.005819e-02	-1.937591e-01
1.910285e+00	1.194851e-02	-3.516682e-01
1.730235e+00	1.375189e-02	-4.143699e-01
1.572746e+00	1.546373e-02	-4.619299e-01
1.456093e+00	1.704342e-02	-4.782465e-01
1.354627e+00	1.847345e-02	-4.921249e-01
1.271675e+00	1.973937e-02	-4.902659e-01
1.198778e+00	2.080456e-02	-4.886779e-01
1.136466e+00	2.166480e-02	-4.793980e-01
1.080539e+00	2.230179e-02	-4.716283e-01
1.029160e+00	2.277336e-02	-4.595270e-01
9.815278e-01	2.307542e-02	-4.492176e-01
9.334841e-01	2.324007e-02	-4.347560e-01
8.875220e-01	2.330254e-02	-4.212474e-01
8.394014e-01	2.330031e-02	-4.033477e-01
7.894779e-01	2.326985e-02	-3.835588e-01
7.416783e-01	2.324306e-02	-3.619461e-01
8.181649e-01	-1.021999e-02	-1.440759e-01
8.367519e-01	-1.019896e-02	-1.488633e-01
8.489816e-01	-1.014267e-02	-1.548199e-01
8.553700e-01	-1.003687e-02	-1.602239e-01
8.527935e-01	-9.871709e-03	-1.661828e-01
8.489906e-01	-9.623859e-03	-1.713063e-01
8.365016e-01	-9.311215e-03	-1.768721e-01
8.226071e-01	-8.913801e-03	-1.811620e-01
8.009792e-01	-8.440533e-03	-1.868126e-01
7.769606e-01	-7.876710e-03	-1.911547e-01
7.415414e-01	-7.237377e-03	-1.975441e-01
6.984149e-01	-6.499904e-03	-2.007201e-01
6.368612e-01	-5.694487e-03	-2.046882e-01
5.575544e-01	-4.818421e-03	-1.988873e-01
4.501513e-01	-3.883741e-03	-1.867535e-01
2.918715e-01	-2.907879e-03	-1.396479e-01
5.541704e-02	-1.894151e-03	-3.313426e-02
-2.823984e-01	-8.606573e-04	2.165157e-01
-7.142493e-01	2.193408e-04	9.536998e-01
-4.666938e-01	1.279338e-03	2.960267e+00
2.895053e+00	2.537805e-03	2.899191e+00
3.020977e+00	3.601337e-03	9.333897e-01
2.560032e+00	4.660284e-03	6.603019e-02
2.191823e+00	5.663208e-03	-1.965591e-01
1.934596e+00	6.642656e-03	-3.561436e-01
1.749837e+00	7.562618e-03	-4.190643e-01
1.588848e+00	8.426909e-03	-4.666594e-01
1.469501e+00	9.223847e-03	-4.826505e-01
1.365839e+00	9.932486e-03	-4.961984e-01
1.281313e+00	1.055150e-02	-4.939816e-01
1.206777e+00	1.108996e-02	-4.919386e-01
1.142479e+00	1.152129e-02	-4.819342e-01
1.085233e+00	1.185937e-02	-4.736771e-01
1.032962e+00	1.209753e-02	-4.612242e-01
9.841930e-01	1.225762e-02	-4.504374e-01
9.351507e-01	1.233861e-02	-4.355322e-01
8.883114e-01	1.238258e-02	-4.216220e-01
8.394626e-01	1.239278e-02	-4.033771e-01
7.889790e-01	1.238595e-02	-3.833165e-01
7.407090e-01	1.237729e-02	-3.614731e-01
8.170374e-01	-5.652078e-03	-1.438773e-01
8.351973e-01	-5.640960e-03	-1.485868e-01
8.470170e-01	-5.609465e-03	-1.544616e-01
8.529653e-01	-5.550104e-03	-1.597735e-01
8.496333e-01	-5.453942e-03	-1.655670e-01
8.453924e-01	-5.313691e-03	-1.705802e-01
8.325188e-01	-5.142381e-03	-1.760299e-01
8.185029e-01	-4.922738e-03	-1.802581e-01
7.963456e-01	-4.657884e-03	-1.857319e-01
7.711615e-01	-4.322194e-03	-1.897279e-01
7.349002e-01	-3.931361e-03	-1.957750e-01
6.910386e-01	-3.495207e-03	-1.986002e-01
6.284340e-01	-3.023807e-03	-2.019797e-01
5.477338e-01	-2.603587e-03	-1.953841e-01
4.387684e-01	-2.060424e-03	-1.820311e-01
2.784770e-01	-1.453054e-03	-1.332392e-01
3.941735e-02	-8.438183e-04	-2.356792e-02
-3.023010e-01	-2.244208e-04	2.317751e-01
-7.358414e-01	4.231784e-04	9.825306e-01
-4.758656e-01	1.067638e-03	3.018444e+00
2.937150e+00	1.810637e-03	2.941348e+00
3.055072e+00	2.445199e-03	9.439241e-01
2.584199e+00	3.073406e-03	6.665353e-02
2.209710e+00	3.663995e-03	-1.981631e-01
1.948379e+00	4.233423e-03	-3.586810e-01
1.760783e+00	4.756561e-03	-4.216859e-01
1.597877e+00	5.242135e-03	-4.693112e-01
1.476947e+00	5.785819e-03	-4.850961e-01
1.371923e+00	6.189994e-03	-4.984086e-01
1.286282e+00	6.528308e-03	-4.958972e-01
1.210922e+00	6.809135e-03	-4.936285e-01
1.146298e+00	7.038526e-03	-4.835455e-01
1.088260e+00	7.235954e-03	-4.749983e-01
1.034930e+00	7.378333e-03	-4.621033e-01
9.854638e-01	7.476432e-03	-4.510190e-01
9.358666e-01	7.524892e-03	-4.358656e-01
8.888550e-01	7.548221e-03	-4.218800e-01
8.396027e-01	7.554642e-03	-4.034444e-01
7.887839e-01	7.550800e-03	-3.832217e-01
7.403513e-01	7.546541e-03	-3.612985e-01
8.162991e-01	-3.275525e-03	-1.437473e-01
8.342387e-01	-3.268511e-03	-1.484162e-01
8.457878e-01	-3.249658e-03	-1.542374e-01
8.513959e-01	-3.213270e-03	-1.594795e-01
8.479612e-01	-3.151656e-03	-1.652412e-01
8.435880e-01	-3.099110e-03	-1.702161e-01
8.304536e-01	-2.982094e-03	-1.755933e-01
8.157071e-01	-2.838335e-03	-1.796424e-01
7.928683e-01	-2.654303e-03	-1.849209e-01
7.674217e-01	-2.422204e-03	-1.888078e-01
7.307326e-01	-2.183032e-03	-1.946647e-01
6.863177e-01	-1.957496e-03	-1.972435e-01
6.244393e-01	-1.643664e-03	-2.006958e-01
5.433078e-01	-1.425757e-03	-1.938053e-01
4.314717e-01	-1.061568e-03	-1.790040e-01
2.694324e-01	-6.841906e-04	-1.289117e-01
2.917818e-02	-2.888068e-04	-1.744585e-02
-3.148015e-01	1.057486e-04	2.413592e-01
-7.499318e-01	5.171015e-04	1.001345e+00
-4.816963e-01	9.406060e-04	3.055429e+00
2.962547e+00	1.394825e-03	2.966781e+00
3.076475e+00	1.796714e-03	9.505370e-01
2.599242e+00	2.192680e-03	6.704152e-02
2.220538e+00	2.562595e-03	-1.991342e-01
1.956486e+00	2.912401e-03	-3.601735e-01
1.767100e+00	3.238740e-03	-4.231987e-01
1.604492e+00	3.652110e-03	-4.712542e-01
1.482594e+00	3.901622e-03	-4.869506e-01
1.375508e+00	4.151772e-03	-4.997110e-01
1.289125e+00	4.370386e-03	-4.969934e-01
1.213166e+00	4.535286e-03	-4.945430e-01
1.147928e+00	4.640909e-03	-4.842330e-01
1.089785e+00	4.735376e-03	-4.756637e-01
1.036444e+00	4.810253e-03	-4.627790e-01
9.865874e-01	4.856240e-03	-4.515333e-01
9.365260e-01	4.917702e-03	-4.361727e-01
8.890387e-01	4.926802e-03	-4.219672e-01
8.396005e-01	4.928696e-03	-4.034434e-01
7.886079e-01	4.925749e-03	-3.831362e-01
7.400568e-01	4.922644e-03	-3.611548e-01
8.158603e-01	-2.026969e-03	-1.436700e-01
8.336806e-01	-2.022942e-03	-1.483169e-01
8.450714e-01	-2.012766e-03	-1.541068e-01
8.504546e-01	-1.994177e-03	-1.593032e-01
8.473562e-01	-1.964067e-03	-1.651233e-01
8.423979e-01	-2.008025e-03	-1.699760e-01
8.284888e-01	-1.885804e-03	-1.751778e-01
8.138303e-01	-1.780948e-03	-1.792291e-01
7.907256e-01	-1.681821e-03	-1.844211e-01
7.649759e-01	-1.540518e-03	-1.882061e-01
7.288234e-01	-1.384278e-03	-1.941561e-01
6.838671e-01	-1.213736e-03	-1.965392e-01
6.209968e-01	-1.014021e-03	-1.995894e-01
5.391775e-01	-7.348146e-04	-1.923320e-01
4.266990e-01	-5.001163e-04	-1.770239e-01
2.642515e-01	-2.934958e-04	-1.264329e-01
2.252900e-02	-4.998408e-05	-1.347026e-02
-3.229166e-01	1.721369e-04	2.475811e-01
-7.588173e-01	4.315533e-04	1.013209e+00
-4.854172e-01	6.880888e-04	3.079031e+00
2.979227e+00	9.827391e-04	2.983484e+00
3.090120e+00	1.232565e-03	9.547530e-01
2.608826e+00	1.472811e-03	6.728872e-02
2.227506e+00	1.730638e-03	-1.997590e-01
1.961936e+00	1.950050e-03	-3.611767e-01
1.773570e+00	2.163054e-03	-4.247481e-01
1.607805e+00	2.360534e-03	-4.722271e-01
1.483882e+00	2.461299e-03	-4.873737e-01
1.378030e+00	2.605400e-03	-5.006272e-01
1.291120e+00	2.741407e-03	-4.977622e-01
1.214312e+00	2.853950e-03	-4.950102e-01
1.148852e+00	2.944101e-03	-4.846227e-01
1.090525e+00	3.042349e-03	-4.759869e-01
1.036685e+00	3.107563e-03	-4.628868e-01
9.871645e-01	3.228109e-03	-4.517974e-01
9.372658e-01	3.219561e-03	-4.365173e-01
8.891265e-01	3.213585e-03	-4.220089e-01
8.395987e-01	3.210621e-03	-4.034425e-01
7.885044e-01	3.207370e-03	-3.830859e-01
7.398757e-01	3.205085e-03	-3.610664e-01
8.156232e-01	-1.128184e-03	-1.436283e-01
8.334118e-01	-1.125353e-03	-1.482691e-01
8.447792e-01	-1.116671e-03	-1.540535e-01
8.501515e-01	-1.125880e-03	-1.592464e-01
8.483770e-01	-1.106054e-03	-1.653222e-01
8.420506e-01	-1.055047e-03	-1.699059e-01
8.269747e-01	-1.014221e-03	-1.748577e-01
8.128131e-01	-9.860398e-04	-1.790051e-01
7.896175e-01	-9.934569e-04	-1.841627e-01
7.635156e-01	-9.135829e-04	-1.878468e-01
7.264612e-01	-8.108172e-04	-1.935268e-01
6.813864e-01	-6.560820e-04	-1.958262e-01
6.178145e-01	-5.763023e-04	-1.985666e-01
5.356289e-01	-3.419711e-04	-1.910661e-01
4.242513e-01	-2.519744e-04	-1.760084e-01
2.611891e-01	-1.239247e-04	-1.249676e-01
1.917134e-02	1.332589e-05	-1.146269e-02
-3.270072e-01	1.553957e-04	2.507174e-01
-7.641899e-01	3.048946e-04	1.020383e+00
-4.876583e-01	4.538807e-04	3.093246e+00
2.989207e+00	6.253586e-04	2.993479e+00
3.097950e+00	7.710301e-04	9.571720e-01
2.615437e+00	9.142080e-04	6.745923e-02
2.232266e+00	1.047873e-03	-2.001859e-01
1.965171e+00	1.175443e-03	-3.617723e-01
1.774125e+00	1.295086e-03	-4.248811e-01
1.608942e+00	1.321558e-03	-4.725612e-01
1.486011e+00	1.431837e-03	-4.880730e-01
1.379160e+00	1.538332e-03	-5.010378e-01
1.292261e+00	1.598282e-03	-4.982024e-01
1.215704e+00	1.666021e-03	-4.955778e-01
1.150328e+00	1.811172e-03	-4.852454e-01
1.091977e+00	1.831601e-03	-4.766205e-01
1.039071e+00	1.873169e-03	-4.639522e-01
9.885135e-01	1.884893e-03	-4.524148e-01
9.362521e-01	1.870032e-03	-4.360451e-01
8.888262e-01	1.872992e-03	-4.218664e-01
8.394131e-01	1.894647e-03	-4.033533e-01
7.883353e-01	1.891110e-03	-3.830037e-01
7.397068e-01	1.889542e-03	-3.609839e-01
8.153852e-01	-1.360845e-03	-1.435864e-01
8.329958e-01	-1.360896e-03	-1.481951e-01
8.452021e-01	-1.361570e-03	-1.541306e-01
8.500995e-01	-1.343783e-03	-1.592367e-01
8.458751e-01	-1.302381e-03	-1.648347e-01
8.408275e-01	-1.225205e-03	-1.696591e-01
8.274370e-01	-1.129090e-03	-1.749554e-01
8.135514e-01	-1.192945e-03	-1.791677e-01
7.897267e-01	-9.744584e-04	-1.841882e-01
7.625773e-01	-1.024858e-03	-1.876160e-01
7.254608e-01	-6.695551e-04	-1.932603e-01
6.807188e-01	-7.593650e-04	-1.956344e-01
6.166974e-01	-3.265344e-04	-1.982075e-01
5.342478e-01	-3.922736e-04	-1.905735e-01
4.231861e-01	6.722151e-05	-1.755665e-01
2.593726e-01	4.073228e-04	-1.240986e-01
1.657003e-02	6.025131e-04	-9.907347e-03
-3.303695e-01	6.503736e-04	2.532953e-01
-7.670593e-01	6.982429e-04	1.024214e+00
-4.888829e-01	7.598812e-04	3.101014e+00
2.994758e+00	8.414414e-04	2.999038e+00
3.102806e+00	9.200973e-04	9.586724e-01
2.617728e+00	1.016843e-03	6.751831e-02
2.233968e+00	1.098817e-03	-2.003386e-01
1.966894e+00	1.033193e-03	-3.620893e-01
1.775974e+00	8.497629e-04	-4.253238e-01
1.609939e+00	4.970726e-04	-4.728540e-01
1.486888e+00	6.287880e-04	-4.883612e-01
1.380189e+00	3.103024e-04	-5.014117e-01
1.292732e+00	4.385583e-04	-4.983839e-01
1.216972e+00	1.424584e-04	-4.960945e-01
1.150993e+00	2.920617e-04	-4.855260e-01
1.091342e+00	3.215240e-05	-4.763437e-01
1.037471e+00	8.737070e-05	-4.632376e-01
9.871424e-01	-1.306840e-04	-4.517873e-01
9.370144e-01	-7.303238e-05	-4.364002e-01
8.896335e-01	-8.750433e-05	-4.222495e-01
8.402960e-01	-9.347411e-05	-4.037775e-01
7.882365e-01	-8.837823e-05	-3.829557e-01
7.396356e-01	-8.729309e-05	-3.609492e-01
8.156318e-01	3.168745e-05	-1.436298e-01
8.334592e-01	1.404171e-05	-1.482775e-01
8.440941e-01	1.241848e-05	-1.539286e-01
8.486087e-01	3.375284e-05	-1.589574e-01
8.459279e-01	3.129361e-05	-1.648450e-01
8.390438e-01	3.002327e-05	-1.692992e-01
8.265978e-01	2.831119e-05	-1.747780e-01
8.104914e-01	2.882943e-05	-1.784938e-01
7.874215e-01	7.117658e-05	-1.836505e-01
7.594876e-01	5.920926e-05	-1.868558e-01
7.229550e-01	5.079554e-05	-1.925928e-01
6.769500e-01	1.774453e-05	-1.945513e-01
6.124880e-01	-8.918549e-06	-1.968546e-01
5.301477e-01	-4.546301e-06	-1.891109e-01
4.110970e-01	2.811178e-05	-1.705511e-01
2.510789e-01	-3.260026e-06	-1.201304e-01
1.360961e-02	1.136457e-06	-8.137288e-03
-3.294642e-01	4.633855e-06	2.526012e-01
-7.671348e-01	6.766345e-06	1.024315e+00
-4.891879e-01	7.880090e-06	3.102949e+00
2.997142e+00	8.450147e-06	3.001425e+00
3.105829e+00	8.511718e-06	9.596066e-01
2.621138e+00	8.121174e-06	6.760629e-02
2.232246e+00	6.869450e-06	-2.001841e-01
1.959954e+00	4.023710e-05	-3.608118e-01
1.764740e+00	3.754452e-05	-4.226336e-01
1.605948e+00	5.057980e-06	-4.716816e-01
1.483219e+00	5.869712e-05	-4.871561e-01
1.376795e+00	4.715620e-05	-5.001786e-01
1.290110e+00	3.627461e-05	-4.973731e-01
1.213843e+00	2.832243e-05	-4.948191e-01
1.149021e+00	-1.573527e-05	-4.846942e-01
1.089117e+00	-1.277119e-05	-4.753723e-01
1.036924e+00	-1.411525e-05	-4.629936e-01
9.856591e-01	-1.330806e-05	-4.511084e-01
9.371771e-01	-1.351827e-05	-4.364759e-01
8.883354e-01	-1.250122e-05	-4.216334e-01
8.393224e-01	-3.496837e-05	-4.033097e-01
7.886844e-01	-3.387412e-05	-3.831733e-01
7.398729e-01	-1.634297e-05	-3.610650e-01
8.183466e-01	1.434581e-03	-1.441078e-01
8.337114e-01	1.434824e-03	-1.483224e-01
8.444022e-01	1.436209e-03	-1.539848e-01
8.497065e-01	1.420387e-03	-1.591631e-01
8.459478e-01	1.381697e-03	-1.648488e-01
8.408794e-01	1.394984e-03	-1.696696e-01
8.274537e-01	1.256447e-03	-1.749590e-01
8.129240e-01	1.318700e-03	-1.790295e-01
7.893313e-01	1.051023e-03	-1.840959e-01
7.628446e-01	1.105581e-03	-1.876817e-01
7.260010e-01	7.595174e-04	-1.934042e-01
6.815170e-01	7.755114e-04	-1.958638e-01
6.170211e-01	3.472266e-04	-1.983116e-01
5.337171e-01	4.402719e-04	-1.903842e-01
4.230979e-01	-5.223391e-05	-1.755299e-01
2.599285e-01	-3.906110e-04	-1.243645e-01
1.639906e-02	-5.856350e-04	-9.805117e-03
-3.305197e-01	-6.082343e-04	2.534104e-01
-7.671546e-01	-6.852070e-04	1.024342e+00
-4.889023e-01	-7.466085e-04	3.101137e+00
2.994785e+00	-8.300841e-04	2.999065e+00
3.102787e+00	-8.824572e-04	9.586667e-01
2.617670e+00	-9.780205e-04	6.751683e-02
2.234865e+00	-1.092141e-03	-2.004190e-01
1.967446e+00	-1.030104e-03	-3.621911e-01
1.775337e+00	-8.179627e-04	-4.251713e-01
1.610323e+00	-4.722675e-04	-4.729667e-01
1.487444e+00	-6.395395e-04	-4.885436e-01
1.379897e+00	-3.325272e-04	-5.013055e-01
1.292495e+00	-3.942317e-04	-4.982923e-01
1.216323e+00	-1.118158e-04	-4.958300e-01
1.150458e+00	-2.096727e-04	-4.853002e-01
1.091366e+00	3.173276e-06	-4.763539e-01
1.037462e+00	-9.739768e-05	-4.632335e-01
9.871530e-01	1.217948e-05	-4.517922e-01
9.370273e-01	-2.132964e-05	-4.364062e-01
8.892126e-01	4.338907e-06	-4.220498e-01
8.395091e-01	1.284433e-05	-4.033994e-01
7.888539e-01	8.302762e-06	-3.832557e-01
7.423204e-01	7.264549e-06	-3.622594e-01
8.155911e-01	1.191441e-03	-1.436226e-01
8.333571e-01	1.206210e-03	-1.482594e-01
8.446824e-01	1.199065e-03	-1.540359e-01
8.500331e-01	1.193520e-03	-1.592243e-01
8.463418e-01	1.082307e-03	-1.649256e-01
8.413743e-01	1.058292e-03	-1.697695e-01
8.276212e-01	9.852140e-04	-1.749944e-01
8.135556e-01	9.674295e-04	-1.791686e-01
7.902106e-01	9.426869e-04	-1.843010e-01
7.633394e-01	8.641617e-04	-1.878035e-01
7.272990e-01	7.758084e-04	-1.937500e-01
6.823313e-01	7.057449e-04	-1.960978e-01
6.173817e-01	6.256494e-04	-1.984275e-01
5.356704e-01	4.769535e-04	-1.910809e-01
4.247976e-01	3.427529e-04	-1.762351e-01
2.611517e-01	2.360786e-04	-1.249497e-01
1.869014e-02	8.796768e-05	-1.117497e-02
-3.271326e-01	-6.215042e-05	2.508135e-01
-7.632273e-01	-2.177645e-04	1.019098e+00
-4.876440e-01	-3.716262e-04	3.093156e+00
2.990664e+00	-5.480667e-04	2.994937e+00
3.098932e+00	-6.976950e-04	9.574755e-01
2.614263e+00	-8.444741e-04	6.742894e-02
2.231462e+00	-9.806180e-04	-2.001138e-01
1.965734e+00	-1.144552e-03	-3.618759e-01
1.774458e+00	-1.261894e-03	-4.249609e-01
1.608276e+00	-1.369993e-03	-4.723656e-01
1.485369e+00	-1.500063e-03	-4.878621e-01
1.379899e+00	-1.584112e-03	-5.013062e-01
1.292923e+00	-1.648033e-03	-4.984574e-01
1.216176e+00	-1.700761e-03	-4.957703e-01
1.150412e+00	-1.777101e-03	-4.852807e-01
1.090744e+00	-1.798641e-03	-4.760826e-01
1.036907e+00	-1.804373e-03	-4.629860e-01
9.870258e-01	-1.826215e-03	-4.517339e-01
9.369301e-01	-1.847587e-03	-4.363609e-01
8.891644e-01	-1.765193e-03	-4.220269e-01
8.395186e-01	-1.775628e-03	-4.034040e-01
7.883710e-01	-1.775389e-03	-3.830211e-01
7.397139e-01	-1.791933e-03	-3.609875e-01
8.158681e-01	1.716880e-03	-1.436714e-01
8.336880e-01	1.705990e-03	-1.483182e-01
8.448136e-01	1.582400e-03	-1.540598e-01
8.529365e-01	1.675306e-03	-1.597681e-01
8.485030e-01	1.703027e-03	-1.653468e-01
8.426079e-01	1.712786e-03	-1.700184e-01
8.288098e-01	1.672017e-03	-1.752457e-01
8.135310e-01	1.609995e-03	-1.791632e-01
7.907367e-01	1.540180e-03	-1.844237e-01
7.650354e-01	1.420008e-03	-1.882207e-01
7.280736e-01	1.273870e-03	-1.939564e-01
6.835174e-01	1.190200e-03	-1.964387e-01
6.201723e-01	9.848097e-04	-1.993244e-01
5.379370e-01	7.876381e-04	-1.918895e-01