# vtk DataFile Version 2.0
OUTPUT by 3D-VPM
ASCII
DATASET UNSTRUCTURED_GRID
POINTS 820 double
9.510565e-01	0.000000e+00	-3.090170e-01
9.442611e-01	0.000000e+00	-3.078203e-01
9.267277e-01	0.000000e+00	-3.047010e-01
8.963175e-01	0.000000e+00	-2.991555e-01
8.562911e-01	0.000000e+00	-2.916579e-01
8.054250e-01	0.000000e+00	-2.817457e-01
7.470317e-01	0.000000e+00	-2.699633e-01
6.809074e-01	0.000000e+00	-2.559818e-01
6.100852e-01	0.000000e+00	-2.403847e-01
5.354138e-01	0.000000e+00	-2.229691e-01
4.593635e-01	0.000000e+00	-2.042585e-01
3.837764e-01	0.000000e+00	-1.841224e-01
3.103069e-01	0.000000e+00	-1.630077e-01
2.415927e-01	0.000000e+00	-1.409228e-01
1.782654e-01	0.000000e+00	-1.183331e-01
1.234349e-01	0.000000e+00	-9.558566e-02
7.662509e-02	0.000000e+00	-7.318920e-02
4.106998e-02	0.000000e+00	-5.193053e-02
1.528206e-02	0.000000e+00	-3.215886e-02
2.347037e-03	0.000000e+00	-1.488740e-02
0.000000e+00	0.000000e+00	0.000000e+00
1.064939e-02	0.000000e+00	1.066461e-02
3.126595e-02	0.000000e+00	1.703450e-02
6.375031e-02	0.000000e+00	1.787236e-02
1.050105e-01	0.000000e+00	1.417221e-02
1.560448e-01	0.000000e+00	4.777214e-03
2.137742e-01	0.000000e+00	-9.048270e-03
2.782849e-01	0.000000e+00	-2.799567e-02
3.468570e-01	0.000000e+00	-5.051783e-02
4.187060e-01	0.000000e+00	-7.662000e-02
4.916930e-01	0.000000e+00	-1.047585e-01
5.642168e-01	0.000000e+00	-1.343226e-01
6.348639e-01	0.000000e+00	-1.641238e-01
7.013280e-01	0.000000e+00	-1.931337e-01
7.630418e-01	0.000000e+00	-2.206893e-01
8.172084e-01	0.000000e+00	-2.454799e-01
8.641863e-01	0.000000e+00	-2.673591e-01
9.009752e-01	0.000000e+00	-2.848204e-01
9.288372e-01	0.000000e+00	-2.982085e-01
9.448555e-01	0.000000e+00	-3.059908e-01
9.510565e-01	0.000000e+00	-3.090170e-01
9.510565e-01	1.052632e+00	-3.090170e-01
9.442611e-01	1.052632e+00	-3.078203e-01
9.267277e-01	1.052632e+00	-3.047010e-01
8.963175e-01	1.052632e+00	-2.991555e-01
8.562911e-01	1.052632e+00	-2.916579e-01
8.054250e-01	1.052632e+00	-2.817457e-01
7.470317e-01	1.052632e+00	-2.699633e-01
6.809074e-01	1.052632e+00	-2.559818e-01
6.100852e-01	1.052632e+00	-2.403847e-01
5.354138e-01	1.052632e+00	-2.229691e-01
4.593635e-01	1.052632e+00	-2.042585e-01
3.837764e-01	1.052632e+00	-1.841224e-01
3.103069e-01	1.052632e+00	-1.630077e-01
2.415927e-01	1.052632e+00	-1.409228e-01
1.782654e-01	1.052632e+00	-1.183331e-01
1.234349e-01	1.052632e+00	-9.558566e-02
7.662509e-02	1.052632e+00	-7.318920e-02
4.106998e-02	1.052632e+00	-5.193053e-02
1.528206e-02	1.052632e+00	-3.215886e-02
2.347037e-03	1.052632e+00	-1.488740e-02
0.000000e+00	1.052632e+00	0.000000e+00
1.064939e-02	1.052632e+00	1.066461e-02
3.126595e-02	1.052632e+00	1.703450e-02
6.375031e-02	1.052632e+00	1.787236e-02
1.050105e-01	1.052632e+00	1.417221e-02
1.560448e-01	1.052632e+00	4.777214e-03
2.137742e-01	1.052632e+00	-9.048270e-03
2.782849e-01	1.052632e+00	-2.799567e-02
3.468570e-01	1.052632e+00	-5.051783e-02
4.187060e-01	1.052632e+00	-7.662000e-02
4.916930e-01	1.052632e+00	-1.047585e-01
5.642168e-01	1.052632e+00	-1.343226e-01
6.348639e-01	1.052632e+00	-1.641238e-01
7.013280e-01	1.052632e+00	-1.931337e-01
7.630418e-01	1.052632e+00	-2.206893e-01
8.172084e-01	1.052632e+00	-2.454799e-01
8.641863e-01	1.052632e+00	-2.673591e-01
9.009752e-01	1.052632e+00	-2.848204e-01
9.288372e-01	1.052632e+00	-2.982085e-01
9.448555e-01	1.052632e+00	-3.059908e-01
9.510565e-01	1.052632e+00	-3.090170e-01
9.510565e-01	2.105263e+00	-3.090170e-01
9.442611e-01	2.105263e+00	-3.078203e-01
9.267277e-01	2.105263e+00	-3.047010e-01
8.963175e-01	2.105263e+00	-2.991555e-01
8.562911e-01	2.105263e+00	-2.916579e-01
8.054250e-01	2.105263e+00	-2.817457e-01
7.470317e-01	2.105263e+00	-2.699633e-01
6.809074e-01	2.105263e+00	-2.559818e-01
6.100852e-01	2.105263e+00	-2.403847e-01
5.354138e-01	2.105263e+00	-2.229691e-01
4.593635e-01	2.105263e+00	-2.042585e-01
3.837764e-01	2.105263e+00	-1.841224e-01
3.103069e-01	2.105263e+00	-1.630077e-01
2.415927e-01	2.105263e+00	-1.409228e-01
1.782654e-01	2.105263e+00	-1.183331e-01
1.234349e-01	2.105263e+00	-9.558566e-02
7.662509e-02	2.105263e+00	-7.318920e-02
4.106998e-02	2.105263e+00	-5.193053e-02
1.528206e-02	2.105263e+00	-3.215886e-02
2.347037e-03	2.105263e+00	-1.488740e-02
0.000000e+00	2.105263e+00	0.000000e+00
1.064939e-02	2.105263e+00	1.066461e-02
3.126595e-02	2.105263e+00	1.703450e-02
6.375031e-02	2.105263e+00	1.787236e-02
1.050105e-01	2.105263e+00	1.417221e-02
1.560448e-01	2.105263e+00	4.777214e-03
2.137742e-01	2.105263e+00	-9.048270e-03
2.782849e-01	2.105263e+00	-2.799567e-02
3.468570e-01	2.105263e+00	-5.051783e-02
4.187060e-01	2.105263e+00	-7.662000e-02
4.916930e-01	2.105263e+00	-1.047585e-01
5.642168e-01	2.105263e+00	-1.343226e-01
6.348639e-01	2.105263e+00	-1.641238e-01
7.013280e-01	2.105263e+00	-1.931337e-01
7.630418e-01	2.105263e+00	-2.206893e-01
8.172084e-01	2.105263e+00	-2.454799e-01
8.641863e-01	2.105263e+00	-2.673591e-01
9.009752e-01	2.105263e+00	-2.848204e-01
9.288372e-01	2.105263e+00	-2.982085e-01
9.448555e-01	2.105263e+00	-3.059908e-01
9.510565e-01	2.105263e+00	-3.090170e-01
9.510565e-01	3.157895e+00	-3.090170e-01
9.442611e-01	3.157895e+00	-3.078203e-01
9.267277e-01	3.157895e+00	-3.047010e-01
8.963175e-01	3.157895e+00	-2.991555e-01
8.562911e-01	3.157895e+00	-2.916579e-01
8.054250e-01	3.157895e+00	-2.817457e-01
7.470317e-01	3.157895e+00	-2.699633e-01
6.809074e-01	3.157895e+00	-2.559818e-01
6.100852e-01	3.157895e+00	-2.403847e-01
5.354138e-01	3.157895e+00	-2.229691e-01
4.593635e-01	3.157895e+00	-2.042585e-01
3.837764e-01	3.157895e+00	-1.841224e-01
3.103069e-01	3.157895e+00	-1.630077e-01
2.415927e-01	3.157895e+00	-1.409228e-01
1.782654e-01	3.157895e+00	-1.183331e-01
1.234349e-01	3.157895e+00	-9.558566e-02
7.662509e-02	3.157895e+00	-7.318920e-02
4.106998e-02	3.157895e+00	-5.193053e-02
1.528206e-02	3.157895e+00	-3.215886e-02
2.347037e-03	3.157895e+00	-1.488740e-02
0.000000e+00	3.157895e+00	0.000000e+00
1.064939e-02	3.157895e+00	1.066461e-02
3.126595e-02	3.157895e+00	1.703450e-02
6.375031e-02	3.157895e+00	1.787236e-02
1.050105e-01	3.157895e+00	1.417221e-02
1.560448e-01	3.157895e+00	4.777214e-03
2.137742e-01	3.157895e+00	-9.048270e-03
2.782849e-01	3.157895e+00	-2.799567e-02
3.468570e-01	3.157895e+00	-5.051783e-02
4.187060e-01	3.157895e+00	-7.662000e-02
4.916930e-01	3.157895e+00	-1.047585e-01
5.642168e-01	3.157895e+00	-1.343226e-01
6.348639e-01	3.157895e+00	-1.641238e-01
7.013280e-01	3.157895e+00	-1.931337e-01
7.630418e-01	3.157895e+00	-2.206893e-01
8.172084e-01	3.157895e+00	-2.454799e-01
8.641863e-01	3.157895e+00	-2.673591e-01
9.009752e-01	3.157895e+00	-2.848204e-01
9.288372e-01	3.157895e+00	-2.982085e-01
9.448555e-01	3.157895e+00	-3.059908e-01
9.510565e-01	3.157895e+00	-3.090170e-01
9.510565e-01	4.210526e+00	-3.090170e-01
9.442611e-01	4.210526e+00	-3.078203e-01
9.267277e-01	4.210526e+00	-3.047010e-01
8.963175e-01	4.210526e+00	-2.991555e-01
8.562911e-01	4.210526e+00	-2.916579e-01
8.054250e-01	4.210526e+00	-2.817457e-01
7.470317e-01	4.210526e+00	-2.699633e-01
6.809074e-01	4.210526e+00	-2.559818e-01
6.100852e-01	4.210526e+00	-2.403847e-01
5.354138e-01	4.210526e+00	-2.229691e-01
4.593635e-01	4.210526e+00	-2.042585e-01
3.837764e-01	4.210526e+00	-1.841224e-01
3.103069e-01	4.210526e+00	-1.630077e-01
2.415927e-01	4.210526e+00	-1.409228e-01
1.782654e-01	4.210526e+00	-1.183331e-01
1.234349e-01	4.210526e+00	-9.558566e-02
7.662509e-02	4.210526e+00	-7.318920e-02
4.106998e-02	4.210526e+00	-5.193053e-02
1.528206e-02	4.210526e+00	-3.215886e-02
2.347037e-03	4.210526e+00	-1.488740e-02
0.000000e+00	4.210526e+00	0.000000e+00
1.064939e-02	4.210526e+00	1.066461e-02
3.126595e-02	4.210526e+00	1.703450e-02
6.375031e-02	4.210526e+00	1.787236e-02
1.050105e-01	4.210526e+00	1.417221e-02
1.560448e-01	4.210526e+00	4.777214e-03
2.137742e-01	4.210526e+00	-9.048270e-03
2.782849e-01	4.210526e+00	-2.799567e-02
3.468570e-01	4.210526e+00	-5.051783e-02
4.187060e-01	4.210526e+00	-7.662000e-02
4.916930e-01	4.210526e+00	-1.047585e-01
5.642168e-01	4.210526e+00	-1.343226e-01
6.348639e-01	4.210526e+00	-1.641238e-01
7.013280e-01	4.210526e+00	-1.931337e-01
7.630418e-01	4.210526e+00	-2.206893e-01
8.172084e-01	4.210526e+00	-2.454799e-01
8.641863e-01	4.210526e+00	-2.673591e-01
9.009752e-01	4.210526e+00	-2.848204e-01
9.288372e-01	4.210526e+00	-2.982085e-01
9.448555e-01	4.210526e+00	-3.059908e-01
9.510565e-01	4.210526e+00	-3.090170e-01
9.510565e-01	5.263158e+00	-3.090170e-01
9.442611e-01	5.263158e+00	-3.078203e-01
9.267277e-01	5.263158e+00	-3.047010e-01
8.963175e-01	5.263158e+00	-2.991555e-01
8.562911e-01	5.263158e+00	-2.916579e-01
8.054250e-01	5.263158e+00	-2.817457e-01
7.470317e-01	5.263158e+00	-2.699633e-01
6.809074e-01	5.263158e+00	-2.559818e-01
6.100852e-01	5.263158e+00	-2.403847e-01
5.354138e-01	5.263158e+00	-2.229691e-01
4.593635e-01	5.263158e+00	-2.042585e-01
3.837764e-01	5.263158e+00	-1.841224e-01
3.103069e-01	5.263158e+00	-1.630077e-01
2.415927e-01	5.263158e+00	-1.409228e-01
1.782654e-01	5.263158e+00	-1.183331e-01
1.234349e-01	5.263158e+00	-9.558566e-02
7.662509e-02	5.263158e+00	-7.318920e-02
4.106998e-02	5.263158e+00	-5.193053e-02
1.528206e-02	5.263158e+00	-3.215886e-02
2.347037e-03	5.263158e+00	-1.488740e-02
0.000000e+00	5.263158e+00	0.000000e+00
1.064939e-02	5.263158e+00	1.066461e-02
3.126595e-02	5.263158e+00	1.703450e-02
6.375031e-02	5.263158e+00	1.787236e-02
1.050105e-01	5.263158e+00	1.417221e-02
1.560448e-01	5.263158e+00	4.777214e-03
2.137742e-01	5.263158e+00	-9.048270e-03
2.782849e-01	5.263158e+00	-2.799567e-02
3.468570e-01	5.263158e+00	-5.051783e-02
4.187060e-01	5.263158e+00	-7.662000e-02
4.916930e-01	5.263158e+00	-1.047585e-01
5.642168e-01	5.263158e+00	-1.343226e-01
6.348639e-01	5.263158e+00	-1.641238e-01
7.013280e-01	5.263158e+00	-1.931337e-01
7.630418e-01	5.263158e+00	-2.206893e-01
8.172084e-01	5.263158e+00	-2.454799e-01
8.641863e-01	5.263158e+00	-2.673591e-01
9.009752e-01	5.263158e+00	-2.848204e-01
9.288372e-01	5.263158e+00	-2.982085e-01
9.448555e-01	5.263158e+00	-3.059908e-01
9.510565e-01	5.263158e+00	-3.090170e-01
9.510565e-01	6.315789e+00	-3.090170e-01
9.442611e-01	6.315789e+00	-3.078203e-01
[...]
CELL_DATA 760
VECTORS V double
8.414232e-01	-6.903428e-02	-1.481716e-01
8.655442e-01	-6.886070e-02	-1.539856e-01
8.835590e-01	-6.841094e-02	-1.611254e-01
8.953247e-01	-6.761655e-02	-1.677081e-01
8.977894e-01	-6.645563e-02	-1.749511e-01
8.991016e-01	-6.491054e-02	-1.814175e-01
8.920635e-01	-6.297096e-02	-1.886202e-01
8.847527e-01	-6.061284e-02	-1.948483e-01
8.704182e-01	-5.780768e-02	-2.030079e-01
8.547779e-01	-5.452290e-02	-2.103000e-01
8.294727e-01	-5.073301e-02	-2.209688e-01
7.985505e-01	-4.642379e-02	-2.294985e-01
7.512008e-01	-4.162821e-02	-2.414372e-01
6.891757e-01	-3.639745e-02	-2.458384e-01
6.025241e-01	-3.076946e-02	-2.499682e-01
4.718443e-01	-2.486705e-02	-2.257570e-01
2.701309e-01	-1.869840e-02	-1.615133e-01
-1.744376e-02	-1.242922e-02	1.337418e-02
-4.218362e-01	-5.861179e-03	5.632559e-01
-3.427085e-01	7.196780e-04	2.173821e+00
2.327119e+00	8.433157e-03	2.330445e+00
2.541778e+00	1.519822e-02	7.853318e-01
2.210612e+00	2.214476e-02	5.701769e-02
1.925567e+00	2.899241e-02	-1.726817e-01
1.720216e+00	3.598245e-02	-3.166779e-01
1.570430e+00	4.294933e-02	-3.760986e-01
1.435574e+00	4.988763e-02	-4.216412e-01
1.336753e+00	5.661885e-02	-4.390500e-01
1.250653e+00	6.302483e-02	-4.543521e-01
1.181709e+00	6.890774e-02	-4.555815e-01
1.121878e+00	7.415207e-02	-4.573299e-01
1.071619e+00	7.862068e-02	-4.520435e-01
1.027479e+00	8.225137e-02	-4.484687e-01
9.872036e-01	8.503640e-02	-4.407930e-01
9.499818e-01	8.702713e-02	-4.347799e-01
9.115293e-01	8.832151e-02	-4.245309e-01
8.743619e-01	8.904782e-02	-4.150011e-01
8.341872e-01	8.935514e-02	-4.008422e-01
7.910586e-01	8.939911e-02	-3.843268e-01
7.483073e-01	8.935344e-02	-3.651811e-01
8.268577e-01	-4.834406e-02	-1.456066e-01
8.473456e-01	-4.821976e-02	-1.507480e-01
8.618083e-01	-4.790123e-02	-1.571589e-01
8.704946e-01	-4.733742e-02	-1.630570e-01
8.702461e-01	-4.650568e-02	-1.695838e-01
8.688620e-01	-4.538720e-02	-1.753158e-01
8.588632e-01	-4.397130e-02	-1.816003e-01
8.479938e-01	-4.224297e-02	-1.867529e-01
8.293237e-01	-4.018740e-02	-1.934234e-01
8.083355e-01	-3.778942e-02	-1.988738e-01
7.765476e-01	-3.501924e-02	-2.068697e-01
7.378875e-01	-3.192734e-02	-2.120643e-01
6.815826e-01	-2.849107e-02	-2.190618e-01
6.085300e-01	-2.476552e-02	-2.170709e-01
5.087289e-01	-2.077664e-02	-2.110555e-01
3.607264e-01	-1.660749e-02	-1.725919e-01
1.373161e-01	-1.225995e-02	-8.210233e-02
-1.815710e-01	-7.847256e-03	1.392110e-01
-6.032746e-01	-3.229657e-03	8.055210e-01
-4.198776e-01	1.389967e-03	2.663309e+00
2.682644e+00	6.790252e-03	2.686478e+00
2.844217e+00	1.150638e-02	8.787763e-01
2.433348e+00	1.632059e-02	6.276266e-02
2.097406e+00	2.102994e-02	-1.880919e-01
1.860541e+00	2.579326e-02	-3.425107e-01
1.689691e+00	3.049068e-02	-4.046601e-01
1.539099e+00	3.511653e-02	-4.520475e-01
1.427838e+00	3.955265e-02	-4.689662e-01
1.330742e+00	4.372721e-02	-4.834479e-01
1.251924e+00	4.753257e-02	-4.826511e-01
1.182685e+00	5.085839e-02	-4.821179e-01
1.123352e+00	5.367591e-02	-4.738659e-01
1.070404e+00	5.593536e-02	-4.672046e-01
1.021751e+00	5.764121e-02	-4.562185e-01
9.765975e-01	5.883467e-02	-4.469612e-01
9.307659e-01	5.958659e-02	-4.334900e-01
8.867531e-01	5.998536e-02	-4.208824e-01
8.402949e-01	6.013178e-02	-4.037770e-01
7.917018e-01	6.012816e-02	-3.846393e-01
7.448103e-01	6.008486e-02	-3.634745e-01
8.205617e-01	-2.041102e-02	-1.444979e-01
8.397200e-01	-2.035918e-02	-1.493914e-01
8.527028e-01	-2.022881e-02	-1.554985e-01
8.598612e-01	-1.999276e-02	-1.610652e-01
8.580702e-01	-1.963413e-02	-1.672111e-01
8.551034e-01	-1.913624e-02	-1.725397e-01
8.434796e-01	-1.848934e-02	-1.783475e-01
8.308756e-01	-1.768810e-02	-1.829830e-01
8.103157e-01	-1.670540e-02	-1.889901e-01
7.869239e-01	-1.558511e-02	-1.936059e-01
7.528549e-01	-1.431298e-02	-2.005580e-01
7.115581e-01	-1.290379e-02	-2.044974e-01
6.517346e-01	-1.134759e-02	-2.094686e-01
5.745753e-01	-9.680546e-03	-2.049588e-01
4.697850e-01	-7.912746e-03	-1.948989e-01
3.150312e-01	-6.076656e-03	-1.507288e-01
8.302796e-02	-4.169006e-03	-4.964304e-02
-2.483751e-01	-2.237716e-03	1.904299e-01
-6.767998e-01	-2.219287e-04	9.036955e-01
-4.509206e-01	1.786433e-03	2.860217e+00
2.823755e+00	4.115637e-03	2.827790e+00
2.961950e+00	6.123698e-03	9.151522e-01
2.517977e+00	8.137258e-03	6.494548e-02
2.160709e+00	1.006118e-02	-1.937688e-01
1.910366e+00	1.195170e-02	-3.516831e-01
1.730298e+00	1.375527e-02	-4.143850e-01
1.572796e+00	1.546729e-02	-4.619445e-01
1.456133e+00	1.704714e-02	-4.782597e-01
1.354659e+00	1.847730e-02	-4.921366e-01
1.271701e+00	1.974336e-02	-4.902760e-01
1.198799e+00	2.080862e-02	-4.886866e-01
1.136483e+00	2.166894e-02	-4.794052e-01
1.080553e+00	2.230596e-02	-4.716342e-01
1.029171e+00	2.277756e-02	-4.595316e-01
9.815352e-01	2.307963e-02	-4.492211e-01
9.334890e-01	2.324428e-02	-4.347583e-01
8.875245e-01	2.330674e-02	-4.212486e-01
8.394018e-01	2.330450e-02	-4.033479e-01
7.894765e-01	2.327403e-02	-3.835582e-01
7.416757e-01	2.324723e-02	-3.619448e-01
8.181577e-01	-1.021952e-02	-1.440746e-01
8.367429e-01	-1.019847e-02	-1.488617e-01
8.489702e-01	-1.014218e-02	-1.548178e-01
8.553562e-01	-1.003636e-02	-1.602213e-01
8.527770e-01	-9.871162e-03	-1.661796e-01
8.489712e-01	-9.623258e-03	-1.713023e-01
8.364791e-01	-9.310561e-03	-1.768673e-01
8.225809e-01	-8.913086e-03	-1.811562e-01
8.009491e-01	-8.439745e-03	-1.868055e-01
7.769262e-01	-7.875855e-03	-1.911462e-01
7.415018e-01	-7.236462e-03	-1.975336e-01
6.983692e-01	-6.498899e-03	-2.007070e-01
6.368082e-01	-5.693395e-03	-2.046712e-01
5.574924e-01	-4.817223e-03	-1.988651e-01
4.500782e-01	-3.882432e-03	-1.867232e-01
2.917838e-01	-2.906457e-03	-1.396059e-01
5.531105e-02	-1.892620e-03	-3.307089e-02
-2.825304e-01	-8.590113e-04	2.166169e-01
-7.143951e-01	2.211062e-04	9.538944e-01
-4.667550e-01	1.281224e-03	2.960655e+00
2.895326e+00	2.539827e-03	2.899464e+00
3.021198e+00	3.603478e-03	9.334582e-01
2.560187e+00	4.662544e-03	6.603418e-02
2.191934e+00	5.665564e-03	-1.965690e-01
1.934679e+00	6.645147e-03	-3.561590e-01
1.749902e+00	7.565216e-03	-4.190799e-01
1.588900e+00	8.429608e-03	-4.666746e-01
1.469543e+00	9.226655e-03	-4.826642e-01
1.365873e+00	9.935378e-03	-4.962106e-01
1.281341e+00	1.055448e-02	-4.939921e-01
1.206799e+00	1.109301e-02	-4.919476e-01
1.142496e+00	1.152439e-02	-4.819416e-01
1.085247e+00	1.186252e-02	-4.736831e-01
1.032972e+00	1.210072e-02	-4.612290e-01
9.842008e-01	1.226083e-02	-4.504410e-01
9.351558e-01	1.234183e-02	-4.355346e-01
8.883140e-01	1.238580e-02	-4.216233e-01
8.394631e-01	1.239600e-02	-4.033773e-01
7.889777e-01	1.238917e-02	-3.833158e-01
7.407063e-01	1.238051e-02	-3.614717e-01
8.170300e-01	-5.651465e-03	-1.438760e-01
8.351879e-01	-5.640344e-03	-1.485851e-01
8.470053e-01	-5.608838e-03	-1.544595e-01
8.529509e-01	-5.549461e-03	-1.597708e-01
8.496160e-01	-5.453272e-03	-1.655637e-01
8.453722e-01	-5.312984e-03	-1.705761e-01
8.324957e-01	-5.141638e-03	-1.760250e-01
8.184762e-01	-4.921959e-03	-1.802522e-01
7.963150e-01	-4.657063e-03	-1.857247e-01
7.711264e-01	-4.321304e-03	-1.897193e-01
7.348597e-01	-3.930434e-03	-1.957642e-01
6.909921e-01	-3.494164e-03	-1.985869e-01
6.283800e-01	-3.022701e-03	-2.019624e-01
5.476705e-01	-2.602416e-03	-1.953615e-01
4.386938e-01	-2.059175e-03	-1.820002e-01
2.783877e-01	-1.451671e-03	-1.331964e-01
3.930948e-02	-8.423399e-04	-2.350343e-02
-3.024353e-01	-2.228508e-04	2.318780e-01
-7.359897e-01	4.248441e-04	9.827286e-01
-4.759279e-01	1.069399e-03	3.018839e+00
2.937428e+00	1.812509e-03	2.941626e+00
3.055298e+00	2.447168e-03	9.439939e-01
2.584356e+00	3.075472e-03	6.665758e-02
2.209823e+00	3.666150e-03	-1.981733e-01
1.948465e+00	4.235675e-03	-3.586968e-01
1.760850e+00	4.758869e-03	-4.217019e-01
1.597930e+00	5.244530e-03	-4.693268e-01
1.476990e+00	5.788315e-03	-4.851102e-01
1.371958e+00	6.192592e-03	-4.984211e-01
1.286310e+00	6.530974e-03	-4.959080e-01
1.210945e+00	6.811863e-03	-4.936379e-01
1.146317e+00	7.041299e-03	-4.835533e-01
1.088275e+00	7.238786e-03	-4.750047e-01
1.034942e+00	7.381211e-03	-4.621083e-01
9.854717e-01	7.479340e-03	-4.510227e-01
9.358717e-01	7.527813e-03	-4.358680e-01
8.888578e-01	7.551149e-03	-4.218814e-01
8.396032e-01	7.557573e-03	-4.034446e-01
7.887825e-01	7.553729e-03	-3.832210e-01
7.403485e-01	7.549469e-03	-3.612971e-01
8.162913e-01	-3.275307e-03	-1.437459e-01
8.342288e-01	-3.268289e-03	-1.484145e-01
8.457755e-01	-3.249425e-03	-1.542352e-01
8.513810e-01	-3.213021e-03	-1.594767e-01
8.479435e-01	-3.151380e-03	-1.652377e-01
8.435674e-01	-3.098838e-03	-1.702120e-01
8.304301e-01	-2.981781e-03	-1.755883e-01
8.156798e-01	-2.837987e-03	-1.796364e-01
7.928367e-01	-2.653895e-03	-1.849135e-01
7.673859e-01	-2.421683e-03	-1.887990e-01
7.306910e-01	-2.182443e-03	-1.946536e-01
6.862696e-01	-1.956878e-03	-1.972297e-01
6.243845e-01	-1.642937e-03	-2.006782e-01
5.432436e-01	-1.424953e-03	-1.937824e-01
4.313952e-01	-1.060647e-03	-1.789722e-01
2.693404e-01	-6.831469e-04	-1.288677e-01
2.906820e-02	-2.876306e-04	-1.738009e-02
-3.149383e-01	1.070583e-04	2.414641e-01
-7.500828e-01	5.185501e-04	1.001546e+00
-4.817597e-01	9.421907e-04	3.055831e+00
2.962831e+00	1.396572e-03	2.967065e+00
3.076705e+00	1.798598e-03	9.506082e-01
2.599403e+00	2.194702e-03	6.704566e-02
2.220654e+00	2.564764e-03	-1.991446e-01
1.956573e+00	2.914688e-03	-3.601894e-01
1.767168e+00	3.241148e-03	-4.232149e-01
1.604547e+00	3.654660e-03	-4.712702e-01
1.482638e+00	3.904254e-03	-4.869651e-01
1.375544e+00	4.154507e-03	-4.997241e-01
1.289154e+00	4.373213e-03	-4.970045e-01
1.213189e+00	4.538181e-03	-4.945526e-01
1.147947e+00	4.643795e-03	-4.842410e-01
1.089800e+00	4.738308e-03	-4.756703e-01
1.036456e+00	4.813215e-03	-4.627843e-01
9.865959e-01	4.859221e-03	-4.515372e-01
9.365315e-01	4.920732e-03	-4.361753e-01
8.890416e-01	4.929836e-03	-4.219686e-01
8.396011e-01	4.931732e-03	-4.034436e-01
7.886064e-01	4.928783e-03	-3.831355e-01
7.400539e-01	4.925676e-03	-3.611533e-01
8.158522e-01	-2.027307e-03	-1.436686e-01
8.336704e-01	-2.023276e-03	-1.483151e-01
8.450587e-01	-2.013102e-03	-1.541045e-01
8.504392e-01	-1.994524e-03	-1.593003e-01
8.473385e-01	-1.964446e-03	-1.651199e-01
8.423771e-01	-2.008479e-03	-1.699718e-01
8.284644e-01	-1.886370e-03	-1.751727e-01
8.138022e-01	-1.781712e-03	-1.792229e-01
7.906927e-01	-1.682922e-03	-1.844134e-01
7.649384e-01	-1.542097e-03	-1.881969e-01
7.287816e-01	-1.386587e-03	-1.941450e-01
6.838188e-01	-1.217354e-03	-1.965253e-01
6.209403e-01	-1.019619e-03	-1.995712e-01
5.391113e-01	-7.418690e-04	-1.923084e-01
4.266206e-01	-5.064448e-04	-1.769914e-01
2.641575e-01	-2.989374e-04	-1.263879e-01
2.241546e-02	-5.532517e-05	-1.340237e-02
-3.230579e-01	1.671117e-04	2.476894e-01
-7.589732e-01	4.282469e-04	1.013417e+00
-4.854826e-01	6.870081e-04	3.079446e+00
2.979519e+00	9.837958e-04	2.983777e+00
3.090358e+00	1.234595e-03	9.548265e-01
2.608992e+00	1.506446e-03	6.729301e-02
2.227626e+00	1.735453e-03	-1.997698e-01
1.962026e+00	1.955528e-03	-3.611933e-01
1.773641e+00	2.168891e-03	-4.247652e-01
1.607862e+00	2.395011e-03	-4.722437e-01
1.483927e+00	2.467106e-03	-4.873886e-01
1.378067e+00	2.610679e-03	-5.006407e-01
1.291150e+00	2.746107e-03	-4.977738e-01
1.214335e+00	2.858172e-03	-4.950199e-01
1.148871e+00	2.947976e-03	-4.846308e-01
1.090541e+00	3.046014e-03	-4.759937e-01
1.036697e+00	3.111080e-03	-4.628921e-01
9.871735e-01	3.231536e-03	-4.518015e-01
9.372720e-01	3.222935e-03	-4.365202e-01
8.891295e-01	3.216931e-03	-4.220103e-01
8.395992e-01	3.213952e-03	-4.034427e-01
7.885028e-01	3.210694e-03	-3.830851e-01
7.398726e-01	3.208403e-03	-3.610649e-01
8.156148e-01	-1.125735e-03	-1.436268e-01
8.334019e-01	-1.122895e-03	-1.482673e-01
8.447674e-01	-1.114188e-03	-1.540514e-01
8.501378e-01	-1.123388e-03	-1.592439e-01
8.483615e-01	-1.103520e-03	-1.653192e-01
8.420333e-01	-1.052449e-03	-1.699024e-01
8.269559e-01	-1.011591e-03	-1.748537e-01
8.127935e-01	-9.834085e-04	-1.790007e-01
7.895969e-01	-9.908007e-04	-1.841579e-01
7.634957e-01	-9.110088e-04	-1.878419e-01
7.264462e-01	-8.083088e-04	-1.935229e-01
6.813820e-01	-6.536169e-04	-1.958250e-01
6.178078e-01	-5.740008e-04	-1.985644e-01
5.355772e-01	-3.397895e-04	-1.910477e-01
4.241487e-01	-2.499946e-04	-1.759659e-01
2.610776e-01	-1.221196e-04	-1.249143e-01
1.905299e-02	1.492510e-05	-1.139193e-02
-3.271904e-01	1.567760e-04	2.508578e-01
-7.644469e-01	3.060457e-04	1.020726e+00
-4.877696e-01	4.548051e-04	3.093952e+00
2.989635e+00	6.260253e-04	2.993907e+00
3.099889e+00	7.714820e-04	9.577712e-01
2.615374e+00	9.144541e-04	6.745760e-02
2.231768e+00	1.047929e-03	-2.001413e-01
1.965278e+00	1.175303e-03	-3.617920e-01
1.774722e+00	1.294803e-03	-4.250240e-01
1.608954e+00	1.321152e-03	-4.725647e-01
1.485663e+00	1.431341e-03	-4.879586e-01
1.379182e+00	1.537800e-03	-5.010456e-01
1.292277e+00	1.597706e-03	-4.982084e-01
1.215717e+00	1.665442e-03	-4.955831e-01
1.150340e+00	1.810660e-03	-4.852503e-01
1.091987e+00	1.831085e-03	-4.766250e-01
1.039080e+00	1.872726e-03	-4.639560e-01
9.885196e-01	1.884502e-03	-4.524176e-01
9.362560e-01	1.869659e-03	-4.360470e-01
8.888280e-01	1.872647e-03	-4.218672e-01
8.394129e-01	1.894339e-03	-4.033532e-01
7.883331e-01	1.890800e-03	-3.830027e-01
7.397029e-01	1.889229e-03	-3.609821e-01
8.153755e-01	-1.355775e-03	-1.435846e-01
8.329836e-01	-1.355818e-03	-1.481929e-01
8.451883e-01	-1.356462e-03	-1.541281e-01
8.500827e-01	-1.338616e-03	-1.592335e-01
8.458552e-01	-1.297129e-03	-1.648308e-01
8.408051e-01	-1.219825e-03	-1.696546e-01
8.274122e-01	-1.123567e-03	-1.749502e-01
8.135229e-01	-1.187225e-03	-1.791614e-01
7.896947e-01	-9.684070e-04	-1.841807e-01
7.625418e-01	-1.018382e-03	-1.876072e-01
7.254205e-01	-6.624126e-04	-1.932496e-01
6.806731e-01	-7.510531e-04	-1.956213e-01
6.166448e-01	-3.163932e-04	-1.981906e-01
5.341863e-01	-3.808805e-04	-1.905515e-01
4.231138e-01	7.762368e-05	-1.755365e-01
2.592856e-01	4.165617e-04	-1.240569e-01
1.646554e-02	6.113948e-04	-9.844867e-03
-3.304994e-01	6.586737e-04	2.533948e-01
-7.672026e-01	7.045453e-04	1.024406e+00
-4.889431e-01	7.636831e-04	3.101396e+00
2.995028e+00	8.427915e-04	2.999308e+00
3.103026e+00	9.202117e-04	9.587403e-01
2.617881e+00	9.850983e-04	6.752227e-02
2.234079e+00	1.095661e-03	-2.003485e-01
1.966977e+00	1.029146e-03	-3.621048e-01
1.776040e+00	8.452524e-04	-4.253397e-01
1.609993e+00	4.637822e-04	-4.728696e-01
1.486932e+00	6.240159e-04	-4.883755e-01
1.380225e+00	3.059075e-04	-5.014247e-01
1.292762e+00	4.346982e-04	-4.983953e-01
1.216996e+00	1.390712e-04	-4.961045e-01
1.151013e+00	2.890405e-04	-4.855344e-01
1.091359e+00	2.939534e-05	-4.763508e-01
1.037484e+00	8.484902e-05	-4.632437e-01
9.871526e-01	-1.330405e-04	-4.517919e-01
9.370214e-01	-7.527749e-05	-4.364035e-01
8.896379e-01	-8.968175e-05	-4.222516e-01
8.402978e-01	-9.562091e-05	-4.037784e-01
7.882347e-01	-9.051728e-05	-3.829549e-01
7.396320e-01	-8.943096e-05	-3.609475e-01
8.156219e-01	4.088648e-05	-1.436280e-01
8.334469e-01	2.322513e-05	-1.482754e-01
8.440792e-01	2.157603e-05	-1.539259e-01
8.485913e-01	4.288376e-05	-1.589542e-01
8.459081e-01	4.033178e-05	-1.648411e-01
8.390217e-01	3.892210e-05	-1.692948e-01
8.265737e-01	3.701538e-05	-1.747729e-01
8.104642e-01	3.732612e-05	-1.784878e-01
7.873907e-01	7.927405e-05	-1.836433e-01
7.594533e-01	6.696393e-05	-1.868474e-01
7.229161e-01	5.814566e-05	-1.925824e-01
6.769058e-01	2.461900e-05	-1.945386e-01
6.124382e-01	-2.496937e-06	-1.968386e-01
5.300905e-01	1.329009e-06	-1.890905e-01
4.110293e-01	3.343504e-05	-1.705231e-01
2.509968e-01	1.373531e-06	-1.200911e-01
1.351078e-02	5.180422e-06	-8.078195e-03
-3.295870e-01	8.089766e-06	2.526953e-01
-7.672705e-01	9.610722e-06	1.024496e+00
-4.892449e-01	1.012280e-05	3.103310e+00
2.997397e+00	9.997489e-06	3.001680e+00
3.106037e+00	9.458065e-06	9.596708e-01
2.621283e+00	8.464219e-06	6.761003e-02
2.232350e+00	6.623040e-06	-2.001935e-01
1.960034e+00	3.952432e-05	-3.608265e-01
1.764804e+00	3.625820e-05	-4.226488e-01
1.605998e+00	3.205843e-06	-4.716963e-01
1.483260e+00	5.632289e-05	-4.871693e-01
1.376829e+00	4.430019e-05	-5.001907e-01
1.290138e+00	3.301144e-05	-4.973840e-01
1.213866e+00	2.471668e-05	-4.948287e-01
1.149041e+00	-1.956266e-05	-4.847025e-01
1.089134e+00	-1.677645e-05	-4.753798e-01
1.036938e+00	-1.831282e-05	-4.629999e-01
9.856697e-01	-1.759497e-05	-4.511133e-01
9.371844e-01	-1.785180e-05	-4.364794e-01
8.883396e-01	-1.685065e-05	-4.216354e-01
8.393235e-01	-3.934572e-05	-4.033102e-01
7.886828e-01	-3.824675e-05	-3.831725e-01
7.398693e-01	-2.070494e-05	-3.610633e-01
8.183395e-01	1.466813e-03	-1.441066e-01
8.337014e-01	1.466948e-03	-1.483206e-01
8.443902e-01	1.468061e-03	-1.539826e-01
8.496928e-01	1.451753e-03	-1.591605e-01
8.459326e-01	1.412338e-03	-1.648459e-01
8.408628e-01	1.424648e-03	-1.696662e-01
8.274351e-01	1.284904e-03	-1.749550e-01
8.129042e-01	1.345755e-03	-1.790251e-01
7.893092e-01	1.076358e-03	-1.840908e-01
7.628188e-01	1.129124e-03	-1.876754e-01
7.259721e-01	7.811195e-04	-1.933966e-01
6.814838e-01	7.950238e-04	-1.958542e-01
6.169824e-01	3.645829e-04	-1.982991e-01
5.336720e-01	4.554726e-04	-1.903681e-01
4.230457e-01	-3.927050e-05	-1.755083e-01
2.598652e-01	-3.799087e-04	-1.243342e-01
1.631974e-02	-5.773145e-04	-9.757691e-03
-3.306188e-01	-6.026752e-04	2.534864e-01
-7.672644e-01	-6.540086e-04	1.024488e+00
-4.889485e-01	-7.478865e-04	3.101430e+00
2.994991e+00	-8.348391e-04	2.999271e+00
3.102954e+00	-8.903323e-04	9.587182e-01
2.617785e+00	-9.878324e-04	6.751980e-02
2.234949e+00	-1.103338e-03	-2.004266e-01
1.967509e+00	-1.042871e-03	-3.622027e-01
1.775384e+00	-8.325240e-04	-4.251826e-01
1.610360e+00	-4.887289e-04	-4.729775e-01
1.487474e+00	-6.578514e-04	-4.885533e-01
1.379921e+00	-3.525617e-04	-5.013143e-01
1.292515e+00	-4.158705e-04	-4.983001e-01
1.216340e+00	-1.348458e-04	-4.958371e-01
1.150473e+00	-2.337704e-04	-4.853064e-01
1.091377e+00	-2.182971e-05	-4.763589e-01
1.037471e+00	-1.230850e-04	-4.632378e-01
9.871610e-01	-1.392252e-05	-4.517958e-01
9.370331e-01	-4.763456e-05	-4.364089e-01
8.892160e-01	-2.201986e-05	-4.220514e-01
8.395100e-01	-1.347265e-05	-4.033999e-01
7.888528e-01	-1.793524e-05	-3.832551e-01
7.423184e-01	-1.891429e-05	-3.622585e-01
8.155993e-01	1.273981e-03	-1.436241e-01
8.333670e-01	1.288796e-03	-1.482611e-01
8.446940e-01	1.281779e-03	-1.540380e-01
8.500465e-01	1.276474e-03	-1.592268e-01
8.463567e-01	1.165654e-03	-1.649285e-01
8.413901e-01	1.141989e-03	-1.697727e-01
8.276375e-01	1.101948e-03	-1.749978e-01
8.135729e-01	1.043419e-03	-1.791724e-01
7.902272e-01	1.011685e-03	-1.843049e-01
7.633542e-01	9.261502e-04	-1.878071e-01
7.273127e-01	8.309322e-04	-1.937537e-01
6.823437e-01	7.541223e-04	-1.961014e-01
6.173919e-01	6.672801e-04	-1.984307e-01
5.356785e-01	5.119599e-04	-1.910838e-01
4.248032e-01	3.712067e-04	-1.762374e-01
2.611550e-01	2.581818e-04	-1.249513e-01
1.870031e-02	1.036390e-04	-1.118105e-02
-3.277256e-01	-5.278415e-05	2.512682e-01
-7.635026e-01	-2.148634e-04	1.019465e+00
-4.872516e-01	-3.751108e-04	3.090667e+00
2.990594e+00	-5.589734e-04	2.994868e+00
3.098928e+00	-7.150882e-04	9.574743e-01
2.614303e+00	-8.685326e-04	6.742999e-02
2.231492e+00	-1.011298e-03	-2.001166e-01
1.965746e+00	-1.182134e-03	-3.618781e-01
1.774458e+00	-1.306336e-03	-4.249609e-01
1.608270e+00	-1.421456e-03	-4.723636e-01
1.485360e+00	-1.558595e-03	-4.878590e-01
1.379889e+00	-1.649797e-03	-5.013026e-01
1.292913e+00	-1.720886e-03	-4.984537e-01
1.216169e+00	-1.780844e-03	-4.957674e-01
1.150407e+00	-1.864797e-03	-4.852784e-01
1.090740e+00	-1.895555e-03	-4.760808e-01
1.036906e+00	-1.911096e-03	-4.629853e-01
9.870263e-01	-1.929332e-03	-4.517341e-01
9.369324e-01	-1.947316e-03	-4.363620e-01
8.891681e-01	-1.863660e-03	-4.220286e-01
8.395232e-01	-1.873461e-03	-4.034062e-01
7.883761e-01	-1.872936e-03	-3.830236e-01
7.397194e-01	-1.889415e-03	-3.609901e-01
8.158531e-01	2.132979e-03	-1.436687e-01
8.336679e-01	2.128718e-03	-1.483147e-01
8.447887e-01	2.122320e-03	-1.540552e-01
8.529067e-01	2.023507e-03	-1.597625e-01
8.484731e-01	1.991775e-03	-1.653409e-01
8.419789e-01	1.955718e-03	-1.698914e-01
8.289647e-01	1.877009e-03	-1.752784e-01
8.141740e-01	1.782765e-03	-1.793048e-01
7.909033e-01	1.685274e-03	-1.844626e-01
7.651918e-01	1.541088e-03	-1.882592e-01
7.282228e-01	1.373783e-03	-1.939961e-01
6.836642e-01	1.271011e-03	-1.964809e-01
6.203196e-01	1.049221e-03	-1.993717e-01
5.380880e-01	8.397771e-04	-1.919433e-01