# vtk DataFile Version 2.0
OUTPUT by 3D-VPM
ASCII
DATASET UNSTRUCTURED_GRID
POINTS 820 double
9.510565e-01	0.000000e+00	-3.090170e-01
9.442611e-01	0.000000e+00	-3.078203e-01
9.267277e-01	0.000000e+00	-3.047010e-01
8.963175e-01	0.000000e+00	-2.991555e-01
8.562911e-01	0.000000e+00	-2.916579e-01
8.054250e-01	0.000000e+00	-2.817457e-01
7.470317e-01	0.000000e+00	-2.699633e-01
6.809074e-01	0.000000e+00	-2.559818e-01
6.100852e-01	0.000000e+00	-2.403847e-01
5.354138e-01	0.000000e+00	-2.229691e-01
4.593635e-01	0.000000e+00	-2.042585e-01
3.837764e-01	0.000000e+00	-1.841224e-01
3.103069e-01	0.000000e+00	-1.630077e-01
2.415927e-01	0.000000e+00	-1.409228e-01
1.782654e-01	0.000000e+00	-1.183331e-01
1.234349e-01	0.000000e+00	-9.558566e-02
7.662509e-02	0.000000e+00	-7.318920e-02
4.106998e-02	0.000000e+00	-5.193053e-02
1.528206e-02	0.000000e+00	-3.215886e-02
2.347037e-03	0.000000e+00	-1.488740e-02
0.000000e+00	0.000000e+00	0.000000e+00
1.064939e-02	0.000000e+00	1.066461e-02
3.126595e-02	0.000000e+00	1.703450e-02
6.375031e-02	0.000000e+00	1.787236e-02
1.050105e-01	0.000000e+00	1.417221e-02
1.560448e-01	0.000000e+00	4.777214e-03
2.137742e-01	0.000000e+00	-9.048270e-03
2.782849e-01	0.000000e+00	-2.799567e-02
3.468570e-01	0.000000e+00	-5.051783e-02
4.187060e-01	0.000000e+00	-7.662000e-02
4.916930e-01	0.000000e+00	-1.047585e-01
5.642168e-01	0.000000e+00	-1.343226e-01
6.348639e-01	0.000000e+00	-1.641238e-01
7.013280e-01	0.000000e+00	-1.931337e-01
7.630418e-01	0.000000e+00	-2.206893e-01
8.172084e-01	0.000000e+00	-2.454799e-01
8.641863e-01	0.000000e+00	-2.673591e-01
9.009752e-01	0.000000e+00	-2.848204e-01
9.288372e-01	0.000000e+00	-2.982085e-01
9.448555e-01	0.000000e+00	-3.059908e-01
9.510565e-01	0.000000e+00	-3.090170e-01
9.510565e-01	1.052632e+00	-3.090170e-01
9.442611e-01	1.052632e+00	-3.078203e-01
9.267277e-01	1.052632e+00	-3.047010e-01
8.963175e-01	1.052632e+00	-2.991555e-01
8.562911e-01	1.052632e+00	-2.916579e-01
8.054250e-01	1.052632e+00	-2.817457e-01
7.470317e-01	1.052632e+00	-2.699633e-01
6.809074e-01	1.052632e+00	-2.559818e-01
6.100852e-01	1.052632e+00	-2.403847e-01
5.354138e-01	1.052632e+00	-2.229691e-01
4.593635e-01	1.052632e+00	-2.042585e-01
3.837764e-01	1.052632e+00	-1.841224e-01
3.103069e-01	1.052632e+00	-1.630077e-01
2.415927e-01	1.052632e+00	-1.409228e-01
1.782654e-01	1.052632e+00	-1.183331e-01
1.234349e-01	1.052632e+00	-9.558566e-02
7.662509e-02	1.052632e+00	-7.318920e-02
4.106998e-02	1.052632e+00	-5.193053e-02
1.528206e-02	1.052632e+00	-3.215886e-02
2.347037e-03	1.052632e+00	-1.488740e-02
0.000000e+00	1.052632e+00	0.000000e+00
1.064939e-02	1.052632e+00	1.066461e-02
3.126595e-02	1.052632e+00	1.703450e-02
6.375031e-02	1.052632e+00	1.787236e-02
1.050105e-01	1.052632e+00	1.417221e-02
1.560448e-01	1.052632e+00	4.777214e-03
2.137742e-01	1.052632e+00	-9.048270e-03
2.782849e-01	1.052632e+00	-2.799567e-02
3.468570e-01	1.052632e+00	-5.051783e-02
4.187060e-01	1.052632e+00	-7.662000e-02
4.916930e-01	1.052632e+00	-1.047585e-01
5.642168e-01	1.052632e+00	-1.343226e-01
6.348639e-01	1.052632e+00	-1.641238e-01
7.013280e-01	1.052632e+00	-1.931337e-01
7.630418e-01	1.052632e+00	-2.206893e-01
8.172084e-01	1.052632e+00	-2.454799e-01
8.641863e-01	1.052632e+00	-2.673591e-01
9.009752e-01	1.052632e+00	-2.848204e-01
9.288372e-01	1.052632e+00	-2.982085e-01
9.448555e-01	1.052632e+00	-3.059908e-01
9.510565e-01	1.052632e+00	-3.090170e-01
9.510565e-01	2.105263e+00	-3.090170e-01
9.442611e-01	2.105263e+00	-3.078203e-01
9.267277e-01	2.105263e+00	-3.047010e-01
8.963175e-01	2.105263e+00	-2.991555e-01
8.562911e-01	2.105263e+00	-2.916579e-01
8.054250e-01	2.105263e+00	-2.817457e-01
7.470317e-01	2.105263e+00	-2.699633e-01
6.809074e-01	2.105263e+00	-2.559818e-01
6.100852e-01	2.105263e+00	-2.403847e-01
5.354138e-01	2.105263e+00	-2.229691e-01
4.593635e-01	2.105263e+00	-2.042585e-01
3.837764e-01	2.105263e+00	-1.841224e-01
3.103069e-01	2.105263e+00	-1.630077e-01
2.415927e-01	2.105263e+00	-1.409228e-01
1.782654e-01	2.105263e+00	-1.183331e-01
1.234349e-01	2.105263e+00	-9.558566e-02
7.662509e-02	2.105263e+00	-7.318920e-02
4.106998e-02	2.105263e+00	-5.193053e-02
1.528206e-02	2.105263e+00	-3.215886e-02
2.347037e-03	2.105263e+00	-1.488740e-02
0.000000e+00	2.105263e+00	0.000000e+00
1.064939e-02	2.105263e+00	1.066461e-02
3.126595e-02	2.105263e+00	1.703450e-02
6.375031e-02	2.105263e+00	1.787236e-02
1.050105e-01	2.105263e+00	1.417221e-02
1.560448e-01	2.105263e+00	4.777214e-03
2.137742e-01	2.105263e+00	-9.048270e-03
2.782849e-01	2.105263e+00	-2.799567e-02
3.468570e-01	2.105263e+00	-5.051783e-02
4.187060e-01	2.105263e+00	-7.662000e-02
4.916930e-01	2.105263e+00	-1.047585e-01
5.642168e-01	2.105263e+00	-1.343226e-01
6.348639e-01	2.105263e+00	-1.641238e-01
7.013280e-01	2.105263e+00	-1.931337e-01
7.630418e-01	2.105263e+00	-2.206893e-01
8.172084e-01	2.105263e+00	-2.454799e-01
8.641863e-01	2.105263e+00	-2.673591e-01
9.009752e-01	2.105263e+00	-2.848204e-01
9.288372e-01	2.105263e+00	-2.982085e-01
9.448555e-01	2.105263e+00	-3.059908e-01
9.510565e-01	2.105263e+00	-3.090170e-01
9.510565e-01	3.157895e+00	-3.090170e-01
9.442611e-01	3.157895e+00	-3.078203e-01
9.267277e-01	3.157895e+00	-3.047010e-01
8.963175e-01	3.157895e+00	-2.991555e-01
8.562911e-01	3.157895e+00	-2.916579e-01
8.054250e-01	3.157895e+00	-2.817457e-01
7.470317e-01	3.157895e+00	-2.699633e-01
6.809074e-01	3.157895e+00	-2.559818e-01
6.100852e-01	3.157895e+00	-2.403847e-01
5.354138e-01	3.157895e+00	-2.229691e-01
4.593635e-01	3.157895e+00	-2.042585e-01
3.837764e-01	3.157895e+00	-1.841224e-01
3.103069e-01	3.157895e+00	-1.630077e-01
2.415927e-01	3.157895e+00	-1.409228e-01
1.782654e-01	3.157895e+00	-1.183331e-01
1.234349e-01	3.157895e+00	-9.558566e-02
7.662509e-02	3.157895e+00	-7.318920e-02
4.106998e-02	3.157895e+00	-5.193053e-02
1.528206e-02	3.157895e+00	-3.215886e-02
2.347037e-03	3.157895e+00	-1.488740e-02
0.000000e+00	3.157895e+00	0.000000e+00
1.064939e-02	3.157895e+00	1.066461e-02
3.126595e-02	3.157895e+00	1.703450e-02
6.375031e-02	3.157895e+00	1.787236e-02
1.050105e-01	3.157895e+00	1.417221e-02
1.560448e-01	3.157895e+00	4.777214e-03
2.137742e-01	3.157895e+00	-9.048270e-03
2.782849e-01	3.157895e+00	-2.799567e-02
3.468570e-01	3.157895e+00	-5.051783e-02
4.187060e-01	3.157895e+00	-7.662000e-02
4.916930e-01	3.157895e+00	-1.047585e-01
5.642168e-01	3.157895e+00	-1.343226e-01
6.348639e-01	3.157895e+00	-1.641238e-01
7.013280e-01	3.157895e+00	-1.931337e-01
7.630418e-01	3.157895e+00	-2.206893e-01
8.172084e-01	3.157895e+00	-2.454799e-01
8.641863e-01	3.157895e+00	-2.673591e-01
9.009752e-01	3.157895e+00	-2.848204e-01
9.288372e-01	3.157895e+00	-2.982085e-01
9.448555e-01	3.157895e+00	-3.059908e-01
9.510565e-01	3.157895e+00	-3.090170e-01
9.510565e-01	4.210526e+00	-3.090170e-01
9.442611e-01	4.210526e+00	-3.078203e-01
9.267277e-01	4.210526e+00	-3.047010e-01
8.963175e-01	4.210526e+00	-2.991555e-01
8.562911e-01	4.210526e+00	-2.916579e-01
8.054250e-01	4.210526e+00	-2.817457e-01
7.470317e-01	4.210526e+00	-2.699633e-01
6.809074e-01	4.210526e+00	-2.559818e-01
6.100852e-01	4.210526e+00	-2.403847e-01
5.354138e-01	4.210526e+00	-2.229691e-01
4.593635e-01	4.210526e+00	-2.042585e-01
3.837764e-01	4.210526e+00	-1.841224e-01
3.103069e-01	4.210526e+00	-1.630077e-01
2.415927e-01	4.210526e+00	-1.409228e-01
1.782654e-01	4.210526e+00	-1.183331e-01
1.234349e-01	4.210526e+00	-9.558566e-02
7.662509e-02	4.210526e+00	-7.318920e-02
4.106998e-02	4.210526e+00	-5.193053e-02
1.528206e-02	4.210526e+00	-3.215886e-02
2.347037e-03	4.210526e+00	-1.488740e-02
0.000000e+00	4.210526e+00	0.000000e+00
1.064939e-02	4.210526e+00	1.066461e-02
3.126595e-02	4.210526e+00	1.703450e-02
6.375031e-02	4.210526e+00	1.787236e-02
1.050105e-01	4.210526e+00	1.417221e-02
1.560448e-01	4.210526e+00	4.777214e-03
2.137742e-01	4.210526e+00	-9.048270e-03
2.782849e-01	4.210526e+00	-2.799567e-02
3.468570e-01	4.210526e+00	-5.051783e-02
4.187060e-01	4.210526e+00	-7.662000e-02
4.916930e-01	4.210526e+00	-1.047585e-01
5.642168e-01	4.210526e+00	-1.343226e-01
6.348639e-01	4.210526e+00	-1.641238e-01
7.013280e-01	4.210526e+00	-1.931337e-01
7.630418e-01	4.210526e+00	-2.206893e-01
8.172084e-01	4.210526e+00	-2.454799e-01
8.641863e-01	4.210526e+00	-2.673591e-01
9.009752e-01	4.210526e+00	-2.848204e-01
9.288372e-01	4.210526e+00	-2.982085e-01
9.448555e-01	4.210526e+00	-3.059908e-01
9.510565e-01	4.210526e+00	-3.090170e-01
9.510565e-01	5.263158e+00	-3.090170e-01
9.442611e-01	5.263158e+00	-3.078203e-01
9.267277e-01	5.263158e+00	-3.047010e-01
8.963175e-01	5.263158e+00	-2.991555e-01
8.562911e-01	5.263158e+00	-2.916579e-01
8.054250e-01	5.263158e+00	-2.817457e-01
7.470317e-01	5.263158e+00	-2.699633e-01
6.809074e-01	5.263158e+00	-2.559818e-01
6.100852e-01	5.263158e+00	-2.403847e-01
5.354138e-01	5.263158e+00	-2.229691e-01
4.593635e-01	5.263158e+00	-2.042585e-01
3.837764e-01	5.263158e+00	-1.841224e-01
3.103069e-01	5.263158e+00	-1.630077e-01
2.415927e-01	5.263158e+00	-1.409228e-01
1.782654e-01	5.263158e+00	-1.183331e-01
1.234349e-01	5.263158e+00	-9.558566e-02
7.662509e-02	5.263158e+00	-7.318920e-02
4.106998e-02	5.263158e+00	-5.193053e-02
1.528206e-02	5.263158e+00	-3.215886e-02
2.347037e-03	5.263158e+00	-1.488740e-02
0.000000e+00	5.263158e+00	0.000000e+00
1.064939e-02	5.263158e+00	1.066461e-02
3.126595e-02	5.263158e+00	1.703450e-02
6.375031e-02	5.263158e+00	1.787236e-02
1.050105e-01	5.263158e+00	1.417221e-02
1.560448e-01	5.263158e+00	4.777214e-03
2.137742e-01	5.263158e+00	-9.048270e-03
2.782849e-01	5.263158e+00	-2.799567e-02
3.468570e-01	5.263158e+00	-5.051783e-02
4.187060e-01	5.263158e+00	-7.662000e-02
4.916930e-01	5.263158e+00	-1.047585e-01
5.642168e-01	5.263158e+00	-1.343226e-01
6.348639e-01	5.263158e+00	-1.641238e-01
7.013280e-01	5.263158e+00	-1.931337e-01
7.630418e-01	5.263158e+00	-2.206893e-01
8.172084e-01	5.263158e+00	-2.454799e-01
8.641863e-01	5.263158e+00	-2.673591e-01
9.009752e-01	5.263158e+00	-2.848204e-01
9.288372e-01	5.263158e+00	-2.982085e-01
9.448555e-01	5.263158e+00	-3.059908e-01
9.510565e-01	5.263158e+00	-3.090170e-01
9.510565e-01	6.315789e+00	-3.090170e-01
9.442611e-01	6.315789e+00	-3.078203e-01
[...]
CELL_DATA 760
VECTORS V double
8.414220e-01	-6.903706e-02	-1.481713e-01
8.655427e-01	-6.886347e-02	-1.539854e-01
8.835570e-01	-6.841370e-02	-1.611250e-01
8.953221e-01	-6.761928e-02	-1.677076e-01
8.977862e-01	-6.645833e-02	-1.749505e-01
8.990977e-01	-6.491319e-02	-1.814167e-01
8.920589e-01	-6.297356e-02	-1.886192e-01
8.847473e-01	-6.061537e-02	-1.948471e-01
8.704119e-01	-5.781012e-02	-2.030064e-01
8.547705e-01	-5.452524e-02	-2.102981e-01
8.294639e-01	-5.073522e-02	-2.209664e-01
7.985403e-01	-4.642587e-02	-2.294956e-01
7.511888e-01	-4.163015e-02	-2.414333e-01
6.891616e-01	-3.639924e-02	-2.458333e-01
6.025073e-01	-3.077108e-02	-2.499612e-01
4.718253e-01	-2.486851e-02	-2.257480e-01
2.701084e-01	-1.869952e-02	-1.614998e-01
-1.747361e-02	-1.243016e-02	1.339707e-02
-4.218685e-01	-5.861874e-03	5.632990e-01
-3.427221e-01	7.191981e-04	2.173907e+00
2.327179e+00	8.432932e-03	2.330504e+00
2.541826e+00	1.519822e-02	7.853466e-01
2.210644e+00	2.214495e-02	5.701852e-02
1.925592e+00	2.899283e-02	-1.726839e-01
1.720233e+00	3.598287e-02	-3.166812e-01
1.570442e+00	4.294997e-02	-3.761015e-01
1.435583e+00	4.988848e-02	-4.216438e-01
1.336760e+00	5.661991e-02	-4.390523e-01
1.250658e+00	6.302607e-02	-4.543539e-01
1.181713e+00	6.890913e-02	-4.555830e-01
1.121881e+00	7.415359e-02	-4.573311e-01
1.071621e+00	7.862233e-02	-4.520443e-01
1.027480e+00	8.225311e-02	-4.484693e-01
9.872045e-01	8.503821e-02	-4.407934e-01
9.499823e-01	8.702901e-02	-4.347801e-01
9.115294e-01	8.832342e-02	-4.245309e-01
8.743617e-01	8.904975e-02	-4.150010e-01
8.341868e-01	8.935707e-02	-4.008420e-01
7.910580e-01	8.940104e-02	-3.843265e-01
7.483066e-01	8.935537e-02	-3.651808e-01
8.268560e-01	-4.834616e-02	-1.456063e-01
8.473435e-01	-4.822185e-02	-1.507476e-01
8.618057e-01	-4.790331e-02	-1.571585e-01
8.704913e-01	-4.733948e-02	-1.630564e-01
8.702421e-01	-4.650773e-02	-1.695830e-01
8.688573e-01	-4.538922e-02	-1.753149e-01
8.588576e-01	-4.397328e-02	-1.815991e-01
8.479872e-01	-4.224491e-02	-1.867514e-01
8.293160e-01	-4.018928e-02	-1.934216e-01
8.083266e-01	-3.779123e-02	-1.988716e-01
7.765372e-01	-3.502097e-02	-2.068669e-01
7.378754e-01	-3.192899e-02	-2.120608e-01
6.815686e-01	-2.849262e-02	-2.190573e-01
6.085135e-01	-2.476697e-02	-2.170651e-01
5.087094e-01	-2.077798e-02	-2.110475e-01
3.607029e-01	-1.660872e-02	-1.725807e-01
1.372878e-01	-1.226097e-02	-8.208537e-02
-1.816061e-01	-7.848154e-03	1.392380e-01
-6.033132e-01	-3.230401e-03	8.055727e-01
-4.198938e-01	1.389364e-03	2.663412e+00
2.682715e+00	6.789816e-03	2.686549e+00
2.844274e+00	1.150609e-02	8.787939e-01
2.433387e+00	1.632043e-02	6.276367e-02
2.097434e+00	2.102991e-02	-1.880944e-01
1.860561e+00	2.579327e-02	-3.425144e-01
1.689706e+00	3.049083e-02	-4.046638e-01
1.539111e+00	3.511680e-02	-4.520510e-01
1.427847e+00	3.955304e-02	-4.689693e-01
1.330749e+00	4.372771e-02	-4.834505e-01
1.251929e+00	4.753316e-02	-4.826533e-01
1.182690e+00	5.085904e-02	-4.821197e-01
1.123355e+00	5.367661e-02	-4.738674e-01
1.070407e+00	5.593612e-02	-4.672057e-01
1.021753e+00	5.764200e-02	-4.562193e-01
9.765987e-01	5.883547e-02	-4.469617e-01
9.307665e-01	5.958740e-02	-4.334903e-01
8.867532e-01	5.998618e-02	-4.208825e-01
8.402946e-01	6.013260e-02	-4.037769e-01
7.917012e-01	6.012897e-02	-3.846390e-01
7.448095e-01	6.008567e-02	-3.634741e-01
8.205598e-01	-2.041229e-02	-1.444976e-01
8.397177e-01	-2.036045e-02	-1.493910e-01
8.526999e-01	-2.023008e-02	-1.554979e-01
8.598578e-01	-1.999403e-02	-1.610646e-01
8.580660e-01	-1.963540e-02	-1.672103e-01
8.550984e-01	-1.913750e-02	-1.725387e-01
8.434738e-01	-1.849059e-02	-1.783463e-01
8.308687e-01	-1.768935e-02	-1.829814e-01
8.103076e-01	-1.670662e-02	-1.889882e-01
7.869145e-01	-1.558632e-02	-1.936036e-01
7.528440e-01	-1.431415e-02	-2.005551e-01
7.115455e-01	-1.290495e-02	-2.044938e-01
6.517199e-01	-1.134870e-02	-2.094638e-01
5.745579e-01	-9.681616e-03	-2.049526e-01
4.697645e-01	-7.913773e-03	-1.948904e-01
3.150066e-01	-6.077633e-03	-1.507170e-01
8.299819e-02	-4.169929e-03	-4.962523e-02
-2.484120e-01	-2.238583e-03	1.904582e-01
-6.768404e-01	-2.227389e-04	9.037496e-01
-4.509375e-01	1.785679e-03	2.860324e+00
2.823829e+00	4.114947e-03	2.827865e+00
2.962010e+00	6.123061e-03	9.151707e-01
2.518018e+00	8.136672e-03	6.494653e-02
2.160738e+00	1.006063e-02	-1.937714e-01
1.910388e+00	1.195120e-02	-3.516871e-01
1.730314e+00	1.375481e-02	-4.143889e-01
1.572808e+00	1.546686e-02	-4.619482e-01
1.456143e+00	1.704673e-02	-4.782629e-01
1.354666e+00	1.847692e-02	-4.921394e-01
1.271707e+00	1.974298e-02	-4.902782e-01
1.198804e+00	2.080826e-02	-4.886884e-01
1.136487e+00	2.166857e-02	-4.794066e-01
1.080555e+00	2.230558e-02	-4.716353e-01
1.029172e+00	2.277717e-02	-4.595323e-01
9.815361e-01	2.307922e-02	-4.492215e-01
9.334893e-01	2.324385e-02	-4.347584e-01
8.875243e-01	2.330631e-02	-4.212485e-01
8.394012e-01	2.330406e-02	-4.033476e-01
7.894757e-01	2.327359e-02	-3.835578e-01
7.416747e-01	2.324679e-02	-3.619443e-01
8.181559e-01	-1.022069e-02	-1.440743e-01
8.367407e-01	-1.019965e-02	-1.488613e-01
8.489675e-01	-1.014336e-02	-1.548173e-01
8.553528e-01	-1.003754e-02	-1.602207e-01
8.527729e-01	-9.872343e-03	-1.661788e-01
8.489663e-01	-9.624436e-03	-1.713013e-01
8.364732e-01	-9.311738e-03	-1.768661e-01
8.225739e-01	-8.914256e-03	-1.811547e-01
8.009409e-01	-8.440903e-03	-1.868036e-01
7.769167e-01	-7.876994e-03	-1.911439e-01
7.414907e-01	-7.237578e-03	-1.975306e-01
6.983562e-01	-6.499976e-03	-2.007033e-01
6.367931e-01	-5.694431e-03	-2.046663e-01
5.574746e-01	-4.818210e-03	-1.988588e-01
4.500572e-01	-3.883369e-03	-1.867145e-01
2.917584e-01	-2.907349e-03	-1.395938e-01
5.528033e-02	-1.893505e-03	-3.305252e-02
-2.825684e-01	-8.599669e-04	2.166460e-01
-7.144369e-01	2.197618e-04	9.539502e-01
-4.667724e-01	1.294447e-03	2.960766e+00
2.895403e+00	2.536611e-03	2.899541e+00
3.021260e+00	3.601377e-03	9.334772e-01
2.560229e+00	4.661028e-03	6.603526e-02
2.191964e+00	5.664442e-03	-1.965717e-01
1.934701e+00	6.644242e-03	-3.561630e-01
1.749919e+00	7.564453e-03	-4.190839e-01
1.588913e+00	8.428944e-03	-4.666783e-01
1.469553e+00	9.226059e-03	-4.826674e-01
1.365881e+00	9.934826e-03	-4.962134e-01
1.281346e+00	1.055396e-02	-4.939944e-01
1.206803e+00	1.109251e-02	-4.919494e-01
1.142500e+00	1.152391e-02	-4.819430e-01
1.085249e+00	1.186204e-02	-4.736841e-01
1.032974e+00	1.210023e-02	-4.612296e-01
9.842015e-01	1.226033e-02	-4.504413e-01
9.351559e-01	1.234133e-02	-4.355346e-01
8.883137e-01	1.238529e-02	-4.216231e-01
8.394624e-01	1.239550e-02	-4.033770e-01
7.889769e-01	1.238867e-02	-3.833154e-01
7.407052e-01	1.238000e-02	-3.614712e-01
8.170283e-01	-5.652725e-03	-1.438757e-01
8.351858e-01	-5.641606e-03	-1.485847e-01
8.470026e-01	-5.610103e-03	-1.544590e-01
8.529476e-01	-5.550733e-03	-1.597702e-01
8.496118e-01	-5.454551e-03	-1.655628e-01
8.453671e-01	-5.314270e-03	-1.705751e-01
8.324896e-01	-5.142932e-03	-1.760238e-01
8.184690e-01	-4.923242e-03	-1.802507e-01
7.963066e-01	-4.658343e-03	-1.857228e-01
7.711165e-01	-4.322568e-03	-1.897169e-01
7.348481e-01	-3.931640e-03	-1.957611e-01
6.909784e-01	-3.495377e-03	-1.985829e-01
6.283640e-01	-3.023880e-03	-2.019572e-01
5.476517e-01	-2.603558e-03	-1.953548e-01
4.386718e-01	-2.060267e-03	-1.819911e-01
2.783620e-01	-1.452702e-03	-1.331842e-01
3.928088e-02	-8.433181e-04	-2.348633e-02
-3.024617e-01	-2.237692e-04	2.318983e-01
-7.363371e-01	4.239887e-04	9.831925e-01
-4.759839e-01	1.068605e-03	3.019195e+00
2.936895e+00	1.811788e-03	2.941092e+00
3.055428e+00	2.446506e-03	9.440340e-01
2.584428e+00	3.074869e-03	6.665942e-02
2.209867e+00	3.665603e-03	-1.981772e-01
1.948494e+00	4.235179e-03	-3.587021e-01
1.760870e+00	4.758407e-03	-4.217067e-01
1.597945e+00	5.244103e-03	-4.693313e-01
1.477002e+00	5.787924e-03	-4.851139e-01
1.371966e+00	6.192224e-03	-4.984243e-01
1.286317e+00	6.530620e-03	-4.959105e-01
1.210950e+00	6.811521e-03	-4.936398e-01
1.146320e+00	7.040961e-03	-4.835548e-01
1.088277e+00	7.238450e-03	-4.750057e-01
1.034943e+00	7.380853e-03	-4.621090e-01
9.854724e-01	7.478981e-03	-4.510230e-01
9.358717e-01	7.527449e-03	-4.358680e-01
8.888574e-01	7.550781e-03	-4.218812e-01
8.396025e-01	7.557204e-03	-4.034443e-01
7.887817e-01	7.553359e-03	-3.832206e-01
7.403475e-01	7.549100e-03	-3.612966e-01
8.162898e-01	-3.263837e-03	-1.437457e-01
8.342270e-01	-3.270817e-03	-1.484141e-01
8.457731e-01	-3.251564e-03	-1.542348e-01
8.513780e-01	-3.215105e-03	-1.594762e-01
8.479396e-01	-3.153446e-03	-1.652370e-01
8.435627e-01	-3.100903e-03	-1.702110e-01
8.304241e-01	-2.983834e-03	-1.755870e-01
8.156726e-01	-2.840021e-03	-1.796348e-01
7.928282e-01	-2.655900e-03	-1.849115e-01
7.673754e-01	-2.423641e-03	-1.887964e-01
7.306792e-01	-2.184326e-03	-1.946505e-01
6.862563e-01	-1.958710e-03	-1.972258e-01
6.243684e-01	-1.644694e-03	-2.006730e-01
5.432246e-01	-1.426627e-03	-1.937756e-01
4.313724e-01	-1.062217e-03	-1.789628e-01
2.693129e-01	-6.845924e-04	-1.288545e-01
2.903509e-02	-2.889009e-04	-1.736030e-02
-3.149794e-01	1.060429e-04	2.414956e-01
-7.501280e-01	5.181176e-04	1.001607e+00
-4.817786e-01	9.273838e-04	3.055951e+00
2.962914e+00	1.398426e-03	2.967148e+00
3.076772e+00	1.799525e-03	9.506288e-01
2.599448e+00	2.195228e-03	6.704684e-02
2.220686e+00	2.565071e-03	-1.991475e-01
1.956597e+00	2.914927e-03	-3.601938e-01
1.767186e+00	3.241390e-03	-4.232192e-01
1.604561e+00	3.654939e-03	-4.712743e-01
1.482649e+00	3.904573e-03	-4.869687e-01
1.375552e+00	4.154872e-03	-4.997270e-01
1.289161e+00	4.373575e-03	-4.970069e-01
1.213194e+00	4.538584e-03	-4.945545e-01
1.147950e+00	4.644218e-03	-4.842424e-01
1.089802e+00	4.738750e-03	-4.756712e-01
1.036457e+00	4.813664e-03	-4.627848e-01
9.865965e-01	4.859670e-03	-4.515374e-01
9.365314e-01	4.921182e-03	-4.361753e-01
8.890412e-01	4.930267e-03	-4.219684e-01
8.396004e-01	4.932105e-03	-4.034433e-01
7.886056e-01	4.928767e-03	-3.831350e-01
7.400530e-01	4.939662e-03	-3.611529e-01
8.181996e-01	-2.032426e-03	-1.440820e-01
8.341223e-01	-2.028395e-03	-1.483955e-01
8.450434e-01	-2.018219e-03	-1.541017e-01
8.504342e-01	-1.999630e-03	-1.592994e-01
8.473340e-01	-1.969523e-03	-1.651190e-01
8.423718e-01	-2.013502e-03	-1.699707e-01
8.284579e-01	-1.891298e-03	-1.751713e-01
8.137944e-01	-1.786537e-03	-1.792212e-01
7.906832e-01	-1.687578e-03	-1.844112e-01
7.649268e-01	-1.546542e-03	-1.881940e-01
7.287683e-01	-1.390814e-03	-1.941414e-01
6.838035e-01	-1.221251e-03	-1.965209e-01
6.209221e-01	-1.023184e-03	-1.995654e-01
5.390897e-01	-7.450232e-04	-1.923007e-01
4.265948e-01	-5.092111e-04	-1.769807e-01
2.641264e-01	-3.013085e-04	-1.263730e-01
2.237786e-02	-5.726708e-05	-1.337989e-02
-3.231044e-01	1.656115e-04	2.477251e-01
-7.590245e-01	4.272002e-04	1.013486e+00
-4.855040e-01	6.864121e-04	3.079582e+00
2.979614e+00	9.837183e-04	2.983872e+00
3.090435e+00	1.234960e-03	9.548501e-01
2.609045e+00	1.507242e-03	6.729436e-02
2.227663e+00	1.736665e-03	-1.997731e-01
1.962054e+00	1.957137e-03	-3.611984e-01
1.773662e+00	2.170876e-03	-4.247702e-01
1.607878e+00	2.397267e-03	-4.722485e-01
1.483940e+00	2.469679e-03	-4.873927e-01
1.378076e+00	2.613538e-03	-5.006440e-01
1.291157e+00	2.749212e-03	-4.977765e-01
1.214341e+00	2.861477e-03	-4.950222e-01
1.148875e+00	2.951437e-03	-4.846325e-01
1.090543e+00	3.049596e-03	-4.759949e-01
1.036699e+00	3.114787e-03	-4.628928e-01
9.871741e-01	3.235293e-03	-4.518018e-01
9.372717e-01	3.226723e-03	-4.365200e-01
8.891275e-01	3.220736e-03	-4.220094e-01
8.395869e-01	3.217766e-03	-4.034368e-01
7.889169e-01	3.214514e-03	-3.832863e-01
7.420159e-01	3.212224e-03	-3.621108e-01
8.156134e-01	-1.154035e-03	-1.436265e-01
8.333999e-01	-1.137146e-03	-1.482670e-01
8.447645e-01	-1.128699e-03	-1.540508e-01
8.501336e-01	-1.137727e-03	-1.592431e-01
8.483560e-01	-1.117535e-03	-1.653181e-01
8.420259e-01	-1.066005e-03	-1.699009e-01
8.269469e-01	-1.024581e-03	-1.748518e-01
8.127824e-01	-9.957389e-04	-1.789983e-01
7.895833e-01	-1.002357e-03	-1.841547e-01
7.634796e-01	-9.217238e-04	-1.878380e-01
7.264273e-01	-8.181274e-04	-1.935178e-01
6.813599e-01	-6.624661e-04	-1.958186e-01
6.177814e-01	-5.818254e-04	-1.985559e-01
5.355462e-01	-3.465604e-04	-1.910366e-01
4.241131e-01	-2.557088e-04	-1.759511e-01
2.610349e-01	-1.266568e-04	-1.248939e-01
1.900130e-02	1.145616e-05	-1.136102e-02
-3.272544e-01	1.543703e-04	2.509069e-01
-7.645171e-01	3.047309e-04	1.020820e+00
-4.877989e-01	4.545618e-04	3.094138e+00
2.989765e+00	6.270097e-04	2.994038e+00
3.099994e+00	7.735165e-04	9.578037e-01
2.615447e+00	9.175383e-04	6.745948e-02
2.231821e+00	1.052023e-03	-2.001460e-01
1.965317e+00	1.180246e-03	-3.617992e-01
1.774751e+00	1.300698e-03	-4.250309e-01
1.608977e+00	1.327954e-03	-4.725714e-01
1.485682e+00	1.438971e-03	-4.879648e-01
1.379197e+00	1.546167e-03	-5.010511e-01
1.292289e+00	1.606790e-03	-4.982130e-01
1.215726e+00	1.675035e-03	-4.955868e-01
1.150347e+00	1.820652e-03	-4.852532e-01
1.091992e+00	1.841345e-03	-4.766273e-01
1.039083e+00	1.883172e-03	-4.639576e-01
9.885215e-01	1.895037e-03	-4.524185e-01
9.362569e-01	1.880216e-03	-4.360474e-01
8.888282e-01	1.883201e-03	-4.218673e-01
8.394127e-01	1.904907e-03	-4.033531e-01
7.883327e-01	1.901709e-03	-3.830025e-01
7.397023e-01	1.886106e-03	-3.609818e-01
8.153651e-01	-1.386651e-03	-1.435828e-01
8.329710e-01	-1.386708e-03	-1.481907e-01
8.451732e-01	-1.387361e-03	-1.541254e-01
8.500649e-01	-1.369437e-03	-1.592302e-01
8.458347e-01	-1.327671e-03	-1.648268e-01
8.407820e-01	-1.249784e-03	-1.696499e-01
8.273868e-01	-1.152603e-03	-1.749448e-01
8.134947e-01	-1.214933e-03	-1.791552e-01
7.896634e-01	-9.944529e-04	-1.841734e-01
7.625074e-01	-1.042479e-03	-1.875988e-01
7.253827e-01	-6.843325e-04	-1.932395e-01
6.806312e-01	-7.706305e-04	-1.956092e-01
6.165977e-01	-3.335278e-04	-1.981755e-01
5.341333e-01	-3.956363e-04	-1.905326e-01
4.230518e-01	6.538132e-05	-1.755108e-01
2.592129e-01	4.068070e-04	-1.240221e-01
1.638236e-02	6.041126e-04	-9.795135e-03
-3.306011e-01	6.538101e-04	2.534728e-01
-7.673137e-01	7.021637e-04	1.024554e+00
-4.889893e-01	7.637537e-04	3.101689e+00
2.995234e+00	8.457199e-04	2.999515e+00
3.103194e+00	9.256495e-04	9.587924e-01
2.618000e+00	9.931366e-04	6.752533e-02
2.234161e+00	1.106279e-03	-2.003559e-01
1.967041e+00	1.042428e-03	-3.621165e-01
1.776093e+00	8.612357e-04	-4.253524e-01
1.610035e+00	4.826820e-04	-4.728821e-01
1.486966e+00	6.456209e-04	-4.883868e-01
1.380254e+00	3.301454e-04	-5.014350e-01
1.292784e+00	4.614168e-04	-4.984039e-01
1.217013e+00	1.680234e-04	-4.961114e-01
1.151026e+00	3.198704e-04	-4.855397e-01
1.091368e+00	6.166891e-05	-4.763547e-01
1.037490e+00	1.180655e-04	-4.632462e-01
9.871551e-01	-9.930031e-05	-4.517931e-01
9.370215e-01	-4.139048e-05	-4.364035e-01
8.896361e-01	-5.586064e-05	-4.222508e-01
8.402944e-01	-6.192026e-05	-4.037768e-01
7.882299e-01	-5.689283e-05	-3.829525e-01
7.396263e-01	-5.582506e-05	-3.609447e-01
8.156230e-01	-2.066188e-04	-1.436282e-01
8.334461e-01	-2.347319e-04	-1.482752e-01
8.440734e-01	-1.802621e-04	-1.539248e-01
8.485777e-01	-1.274166e-04	-1.589516e-01
8.458846e-01	-1.047611e-04	-1.648365e-01
8.389881e-01	-8.451119e-05	-1.692880e-01
8.265298e-01	-6.754974e-05	-1.747636e-01
8.104106e-01	-5.085711e-05	-1.784760e-01
7.873284e-01	5.194610e-06	-1.836288e-01
7.593830e-01	4.967071e-06	-1.868301e-01
7.228381e-01	6.462816e-06	-1.925616e-01
6.768199e-01	-1.825986e-05	-1.945139e-01
6.123447e-01	-3.781536e-05	-1.968086e-01
5.299868e-01	-2.744528e-05	-1.890535e-01
4.109122e-01	1.045916e-05	-1.704745e-01
2.508626e-01	-1.674794e-05	-1.200269e-01
1.335439e-02	-8.142864e-06	-7.984691e-03
-3.297766e-01	-7.758571e-07	2.528407e-01
-7.674771e-01	5.149143e-06	1.024772e+00
-4.893316e-01	9.938087e-06	3.103860e+00
2.997791e+00	1.481007e-05	3.002075e+00
3.106368e+00	1.875137e-05	9.597730e-01
2.621524e+00	2.255419e-05	6.761623e-02
2.232533e+00	2.575184e-05	-2.002099e-01
1.960181e+00	6.468694e-05	-3.608536e-01
1.764929e+00	6.765597e-05	-4.226788e-01
1.606106e+00	4.175432e-05	-4.717280e-01
1.483353e+00	1.031486e-04	-4.871999e-01
1.376910e+00	1.008385e-04	-5.002204e-01
1.290210e+00	1.008823e-04	-4.974115e-01
1.213927e+00	1.059580e-04	-4.948534e-01
1.149091e+00	7.729962e-05	-4.847233e-01
1.089171e+00	9.819394e-05	-4.753960e-01
1.036963e+00	1.173350e-04	-4.630111e-01
9.856828e-01	1.413751e-04	-4.511192e-01
9.371871e-01	1.670661e-04	-4.364806e-01
8.883358e-01	1.970232e-04	-4.216336e-01
8.393170e-01	2.082716e-04	-4.033071e-01
7.886770e-01	2.868038e-04	-3.831697e-01
7.398659e-01	2.762561e-04	-3.610616e-01
8.200832e-01	1.463704e-03	-1.444136e-01
8.302494e-01	1.464063e-03	-1.477065e-01
8.416192e-01	1.465752e-03	-1.534773e-01
8.482875e-01	1.450397e-03	-1.588973e-01
8.449770e-01	1.412255e-03	-1.646597e-01
8.401447e-01	1.426114e-03	-1.695214e-01
8.268695e-01	1.288193e-03	-1.748354e-01
8.124441e-01	1.350836e-03	-1.789238e-01
7.889256e-01	1.109629e-03	-1.840013e-01
7.624906e-01	1.134548e-03	-1.875946e-01
7.256844e-01	7.854894e-04	-1.933199e-01
6.812233e-01	7.984123e-04	-1.957794e-01
6.167387e-01	3.671958e-04	-1.982208e-01
5.334348e-01	4.574754e-04	-1.902835e-01
4.228091e-01	-3.777583e-05	-1.754101e-01
2.596143e-01	-3.788495e-04	-1.242142e-01
1.603785e-02	-5.766435e-04	-9.589152e-03
-3.309482e-01	-6.023565e-04	2.537389e-01
-7.676158e-01	-6.540318e-04	1.024957e+00
-4.890950e-01	-7.482505e-04	3.102359e+00
2.995664e+00	-8.355805e-04	2.999945e+00
3.103534e+00	-8.913949e-04	9.588973e-01
2.618223e+00	-9.892500e-04	6.753109e-02
2.235310e+00	-1.105127e-03	-2.004589e-01
1.967820e+00	-1.045074e-03	-3.622599e-01
1.775668e+00	-8.351992e-04	-4.252505e-01
1.610637e+00	-4.919694e-04	-4.730589e-01
1.487758e+00	-6.617915e-04	-4.886468e-01
1.380225e+00	-3.574508e-04	-5.014245e-01
1.292849e+00	-4.222460e-04	-4.984290e-01
1.216720e+00	-1.439800e-04	-4.959919e-01
1.150915e+00	-2.456585e-04	-4.854929e-01
1.091902e+00	-3.031343e-05	-4.765879e-01
1.038106e+00	-1.278729e-04	-4.635214e-01
9.879480e-01	-1.654171e-05	-4.521560e-01
9.380469e-01	-4.871502e-05	-4.368811e-01
8.906298e-01	-2.203703e-05	-4.227224e-01
8.426366e-01	-1.288811e-05	-4.049023e-01
7.927548e-01	-1.715037e-05	-3.851509e-01
7.380109e-01	-1.813944e-05	-3.601564e-01
8.155627e-01	1.520789e-03	-1.436176e-01
8.333194e-01	1.546058e-03	-1.482527e-01
8.446351e-01	1.482926e-03	-1.540272e-01
8.499767e-01	1.446102e-03	-1.592137e-01
8.462760e-01	1.310095e-03	-1.649128e-01
8.412980e-01	1.264811e-03	-1.697541e-01
8.275380e-01	1.205951e-03	-1.749768e-01
8.130817e-01	1.131111e-03	-1.790642e-01
7.901747e-01	1.085311e-03	-1.842926e-01
7.636615e-01	9.877286e-04	-1.878827e-01
7.272613e-01	8.821845e-04	-1.937400e-01
6.822813e-01	7.965919e-04	-1.960834e-01
6.173177e-01	7.021763e-04	-1.984069e-01
5.355915e-01	5.402689e-04	-1.910528e-01
4.247015e-01	3.936768e-04	-1.761952e-01
2.610361e-01	2.757449e-04	-1.248944e-01
1.855984e-02	1.163352e-04	-1.109707e-02
-3.278973e-01	-4.463519e-05	2.513998e-01
-7.636903e-01	-2.111992e-04	1.019716e+00
-4.873305e-01	-3.758070e-04	3.091167e+00
2.990954e+00	-5.647661e-04	2.995228e+00
3.099229e+00	-7.254481e-04	9.575672e-01
2.614520e+00	-8.837756e-04	6.743558e-02
2.231656e+00	-1.031629e-03	-2.001312e-01
1.965876e+00	-1.208584e-03	-3.619019e-01
1.774566e+00	-1.339086e-03	-4.249866e-01
1.608358e+00	-1.461423e-03	-4.723896e-01
1.485430e+00	-1.606868e-03	-4.878821e-01
1.379939e+00	-1.707807e-03	-5.013207e-01
1.292931e+00	-1.790218e-03	-4.984605e-01
1.216161e+00	-1.863527e-03	-4.957639e-01
1.150463e+00	-1.963062e-03	-4.853021e-01
1.090872e+00	-2.011870e-03	-4.761383e-01
1.037016e+00	-2.048053e-03	-4.630345e-01
9.870992e-01	-2.089564e-03	-4.517675e-01
9.369842e-01	-2.133463e-03	-4.363861e-01
8.892035e-01	-2.078735e-03	-4.220454e-01
8.395434e-01	-2.122273e-03	-4.034159e-01
7.883825e-01	-2.199178e-03	-3.830266e-01
7.397144e-01	-2.187566e-03	-3.609877e-01
8.158425e-01	2.165089e-03	-1.436669e-01
8.336548e-01	2.160619e-03	-1.483123e-01
8.447727e-01	2.153659e-03	-1.540523e-01
8.528880e-01	2.053817e-03	-1.597590e-01
8.484513e-01	2.020543e-03	-1.653367e-01
8.419542e-01	1.982367e-03	-1.698865e-01
8.289374e-01	1.900934e-03	-1.752727e-01
8.141443e-01	1.803601e-03	-1.792982e-01
7.908711e-01	1.676293e-03	-1.844550e-01
7.651571e-01	1.558042e-03	-1.882507e-01
7.281849e-01	1.389625e-03	-1.939860e-01
6.836222e-01	1.285574e-03	-1.964688e-01
6.202733e-01	1.062167e-03	-1.993568e-01
5.380362e-01	8.510227e-04	-1.919249e-01