# vtk DataFile Version 2.0
OUTPUT by 3D-VPM
ASCII
DATASET UNSTRUCTURED_GRID
POINTS 820 double
1.000000e+00	0.000000e+00	3.302691e-03
9.931674e-01	0.000000e+00	2.340866e-03
9.755282e-01	0.000000e+00	-1.106189e-04
9.448927e-01	0.000000e+00	-4.233719e-03
9.045085e-01	0.000000e+00	-9.471949e-03
8.530688e-01	0.000000e+00	-1.576337e-02
7.938926e-01	0.000000e+00	-2.260217e-02
7.266841e-01	0.000000e+00	-2.973851e-02
6.545085e-01	0.000000e+00	-3.679004e-02
5.781101e-01	0.000000e+00	-4.330152e-02
5.000000e-01	0.000000e+00	-4.900756e-02
4.218900e-01	0.000000e+00	-5.321464e-02
3.454915e-01	0.000000e+00	-5.583671e-02
2.733159e-01	0.000000e+00	-5.606662e-02
2.061074e-01	0.000000e+00	-5.415174e-02
1.469312e-01	0.000000e+00	-4.946119e-02
9.549150e-02	0.000000e+00	-4.262592e-02
5.510729e-02	0.000000e+00	-3.339486e-02
2.447174e-02	0.000000e+00	-2.255979e-02
6.832625e-03	0.000000e+00	-1.013079e-02
0.000000e+00	0.000000e+00	3.302691e-03
6.832625e-03	0.000000e+00	1.673618e-02
2.447174e-02	0.000000e+00	2.916517e-02
5.510728e-02	0.000000e+00	4.000024e-02
9.549150e-02	0.000000e+00	4.923130e-02
1.469312e-01	0.000000e+00	5.606658e-02
2.061074e-01	0.000000e+00	6.075713e-02
2.733159e-01	0.000000e+00	6.267200e-02
3.454915e-01	0.000000e+00	6.244209e-02
4.218900e-01	0.000000e+00	5.982002e-02
5.000000e-01	0.000000e+00	5.561294e-02
5.781101e-01	0.000000e+00	4.990691e-02
6.545085e-01	0.000000e+00	4.339542e-02
7.266841e-01	0.000000e+00	3.634389e-02
7.938926e-01	0.000000e+00	2.920755e-02
8.530688e-01	0.000000e+00	2.236875e-02
9.045085e-01	0.000000e+00	1.607733e-02
9.448927e-01	0.000000e+00	1.083910e-02
9.755282e-01	0.000000e+00	6.716001e-03
9.931674e-01	0.000000e+00	4.264516e-03
1.000000e+00	0.000000e+00	3.302691e-03
1.000000e+00	1.052632e+00	3.302691e-03
9.931674e-01	1.052632e+00	2.340866e-03
9.755282e-01	1.052632e+00	-1.106189e-04
9.448927e-01	1.052632e+00	-4.233719e-03
9.045085e-01	1.052632e+00	-9.471949e-03
8.530689e-01	1.052632e+00	-1.576337e-02
7.938926e-01	1.052632e+00	-2.260217e-02
7.266841e-01	1.052632e+00	-2.973851e-02
6.545085e-01	1.052632e+00	-3.679004e-02
5.781101e-01	1.052632e+00	-4.330152e-02
5.000000e-01	1.052632e+00	-4.900756e-02
4.218900e-01	1.052632e+00	-5.321464e-02
3.454915e-01	1.052632e+00	-5.583671e-02
2.733158e-01	1.052632e+00	-5.606662e-02
2.061074e-01	1.052632e+00	-5.415174e-02
1.469311e-01	1.052632e+00	-4.946119e-02
9.549150e-02	1.052632e+00	-4.262592e-02
5.510729e-02	1.052632e+00	-3.339486e-02
2.447174e-02	1.052632e+00	-2.255979e-02
6.832625e-03	1.052632e+00	-1.013079e-02
0.000000e+00	1.052632e+00	3.302691e-03
6.832625e-03	1.052632e+00	1.673618e-02
2.447174e-02	1.052632e+00	2.916517e-02
5.510728e-02	1.052632e+00	4.000024e-02
9.549150e-02	1.052632e+00	4.923130e-02
1.469311e-01	1.052632e+00	5.606658e-02
2.061074e-01	1.052632e+00	6.075713e-02
2.733158e-01	1.052632e+00	6.267200e-02
3.454915e-01	1.052632e+00	6.244209e-02
4.218900e-01	1.052632e+00	5.982002e-02
5.000000e-01	1.052632e+00	5.561294e-02
5.781101e-01	1.052632e+00	4.990691e-02
6.545085e-01	1.052632e+00	4.339542e-02
7.266841e-01	1.052632e+00	3.634389e-02
7.938926e-01	1.052632e+00	2.920755e-02
8.530689e-01	1.052632e+00	2.236875e-02
9.045085e-01	1.052632e+00	1.607733e-02
9.448927e-01	1.052632e+00	1.083910e-02
9.755282e-01	1.052632e+00	6.716001e-03
9.931674e-01	1.052632e+00	4.264516e-03
1.000000e+00	1.052632e+00	3.302691e-03
1.000000e+00	2.105263e+00	3.302691e-03
9.931674e-01	2.105263e+00	2.340866e-03
9.755282e-01	2.105263e+00	-1.106189e-04
9.448927e-01	2.105263e+00	-4.233719e-03
9.045085e-01	2.105263e+00	-9.471949e-03
8.530689e-01	2.105263e+00	-1.576337e-02
7.938926e-01	2.105263e+00	-2.260217e-02
7.266841e-01	2.105263e+00	-2.973851e-02
6.545085e-01	2.105263e+00	-3.679004e-02
5.781101e-01	2.105263e+00	-4.330152e-02
5.000000e-01	2.105263e+00	-4.900756e-02
4.218900e-01	2.105263e+00	-5.321464e-02
3.454915e-01	2.105263e+00	-5.583671e-02
2.733158e-01	2.105263e+00	-5.606662e-02
2.061074e-01	2.105263e+00	-5.415174e-02
1.469312e-01	2.105263e+00	-4.946119e-02
9.549150e-02	2.105263e+00	-4.262592e-02
5.510729e-02	2.105263e+00	-3.339486e-02
2.447174e-02	2.105263e+00	-2.255979e-02
6.832625e-03	2.105263e+00	-1.013079e-02
0.000000e+00	2.105263e+00	3.302691e-03
6.832625e-03	2.105263e+00	1.673618e-02
2.447174e-02	2.105263e+00	2.916517e-02
5.510728e-02	2.105263e+00	4.000024e-02
9.549150e-02	2.105263e+00	4.923130e-02
1.469312e-01	2.105263e+00	5.606658e-02
2.061074e-01	2.105263e+00	6.075713e-02
2.733158e-01	2.105263e+00	6.267200e-02
3.454915e-01	2.105263e+00	6.244209e-02
4.218900e-01	2.105263e+00	5.982002e-02
5.000000e-01	2.105263e+00	5.561294e-02
5.781101e-01	2.105263e+00	4.990691e-02
6.545085e-01	2.105263e+00	4.339542e-02
7.266841e-01	2.105263e+00	3.634389e-02
7.938926e-01	2.105263e+00	2.920755e-02
8.530689e-01	2.105263e+00	2.236875e-02
9.045085e-01	2.105263e+00	1.607733e-02
9.448927e-01	2.105263e+00	1.083910e-02
9.755282e-01	2.105263e+00	6.716001e-03
9.931674e-01	2.105263e+00	4.264516e-03
1.000000e+00	2.105263e+00	3.302691e-03
1.000000e+00	3.157895e+00	3.302691e-03
9.931674e-01	3.157895e+00	2.340866e-03
9.755282e-01	3.157895e+00	-1.106189e-04
9.448927e-01	3.157895e+00	-4.233719e-03
9.045085e-01	3.157895e+00	-9.471949e-03
8.530689e-01	3.157895e+00	-1.576337e-02
7.938926e-01	3.157895e+00	-2.260217e-02
7.266842e-01	3.157895e+00	-2.973851e-02
6.545085e-01	3.157895e+00	-3.679004e-02
5.781101e-01	3.157895e+00	-4.330152e-02
5.000000e-01	3.157895e+00	-4.900756e-02
4.218900e-01	3.157895e+00	-5.321464e-02
3.454915e-01	3.157895e+00	-5.583671e-02
2.733158e-01	3.157895e+00	-5.606662e-02
2.061074e-01	3.157895e+00	-5.415174e-02
1.469312e-01	3.157895e+00	-4.946119e-02
9.549150e-02	3.157895e+00	-4.262592e-02
5.510729e-02	3.157895e+00	-3.339486e-02
2.447174e-02	3.157895e+00	-2.255979e-02
6.832625e-03	3.157895e+00	-1.013079e-02
0.000000e+00	3.157895e+00	3.302691e-03
6.832625e-03	3.157895e+00	1.673618e-02
2.447174e-02	3.157895e+00	2.916517e-02
5.510728e-02	3.157895e+00	4.000024e-02
9.549150e-02	3.157895e+00	4.923130e-02
1.469312e-01	3.157895e+00	5.606658e-02
2.061074e-01	3.157895e+00	6.075713e-02
2.733158e-01	3.157895e+00	6.267200e-02
3.454915e-01	3.157895e+00	6.244209e-02
4.218900e-01	3.157895e+00	5.982002e-02
5.000000e-01	3.157895e+00	5.561294e-02
5.781101e-01	3.157895e+00	4.990691e-02
6.545085e-01	3.157895e+00	4.339542e-02
7.266842e-01	3.157895e+00	3.634389e-02
7.938926e-01	3.157895e+00	2.920755e-02
8.530689e-01	3.157895e+00	2.236875e-02
9.045085e-01	3.157895e+00	1.607733e-02
9.448927e-01	3.157895e+00	1.083910e-02
9.755282e-01	3.157895e+00	6.716001e-03
9.931674e-01	3.157895e+00	4.264516e-03
1.000000e+00	3.157895e+00	3.302691e-03
1.000000e+00	4.210526e+00	3.302691e-03
9.931674e-01	4.210526e+00	2.340866e-03
9.755282e-01	4.210526e+00	-1.106189e-04
9.448927e-01	4.210526e+00	-4.233719e-03
9.045085e-01	4.210526e+00	-9.471949e-03
8.530689e-01	4.210526e+00	-1.576337e-02
7.938926e-01	4.210526e+00	-2.260217e-02
7.266841e-01	4.210526e+00	-2.973851e-02
6.545085e-01	4.210526e+00	-3.679004e-02
5.781101e-01	4.210526e+00	-4.330152e-02
5.000000e-01	4.210526e+00	-4.900756e-02
4.218900e-01	4.210526e+00	-5.321464e-02
3.454915e-01	4.210526e+00	-5.583671e-02
2.733158e-01	4.210526e+00	-5.606662e-02
2.061074e-01	4.210526e+00	-5.415174e-02
1.469311e-01	4.210526e+00	-4.946119e-02
9.549150e-02	4.210526e+00	-4.262592e-02
5.510729e-02	4.210526e+00	-3.339486e-02
2.447174e-02	4.210526e+00	-2.255979e-02
6.832625e-03	4.210526e+00	-1.013079e-02
0.000000e+00	4.210526e+00	3.302691e-03
6.832625e-03	4.210526e+00	1.673618e-02
2.447174e-02	4.210526e+00	2.916517e-02
5.510728e-02	4.210526e+00	4.000024e-02
9.549150e-02	4.210526e+00	4.923130e-02
1.469311e-01	4.210526e+00	5.606658e-02
2.061074e-01	4.210526e+00	6.075713e-02
2.733158e-01	4.210526e+00	6.267200e-02
3.454915e-01	4.210526e+00	6.244209e-02
4.218900e-01	4.210526e+00	5.982002e-02
5.000000e-01	4.210526e+00	5.561294e-02
5.781101e-01	4.210526e+00	4.990691e-02
6.545085e-01	4.210526e+00	4.339542e-02
7.266841e-01	4.210526e+00	3.634389e-02
7.938926e-01	4.210526e+00	2.920755e-02
8.530689e-01	4.210526e+00	2.236875e-02
9.045085e-01	4.210526e+00	1.607733e-02
9.448927e-01	4.210526e+00	1.083910e-02
9.755282e-01	4.210526e+00	6.716001e-03
9.931674e-01	4.210526e+00	4.264516e-03
1.000000e+00	4.210526e+00	3.302691e-03
1.000000e+00	5.263158e+00	3.302691e-03
9.931674e-01	5.263158e+00	2.340866e-03
9.755282e-01	5.263158e+00	-1.106189e-04
9.448927e-01	5.263158e+00	-4.233719e-03
9.045085e-01	5.263158e+00	-9.471949e-03
8.530689e-01	5.263158e+00	-1.576337e-02
7.938926e-01	5.263158e+00	-2.260217e-02
7.266842e-01	5.263158e+00	-2.973851e-02
6.545085e-01	5.263158e+00	-3.679004e-02
5.781101e-01	5.263158e+00	-4.330152e-02
5.000000e-01	5.263158e+00	-4.900756e-02
4.218900e-01	5.263158e+00	-5.321464e-02
3.454915e-01	5.263158e+00	-5.583671e-02
2.733158e-01	5.263158e+00	-5.606662e-02
2.061074e-01	5.263158e+00	-5.415174e-02
1.469311e-01	5.263158e+00	-4.946119e-02
9.549150e-02	5.263158e+00	-4.262592e-02
5.510729e-02	5.263158e+00	-3.339486e-02
2.447174e-02	5.263158e+00	-2.255979e-02
6.832625e-03	5.263158e+00	-1.013079e-02
0.000000e+00	5.263158e+00	3.302691e-03
6.832625e-03	5.263158e+00	1.673618e-02
2.447174e-02	5.263158e+00	2.916517e-02
5.510728e-02	5.263158e+00	4.000024e-02
9.549150e-02	5.263158e+00	4.923130e-02
1.469311e-01	5.263158e+00	5.606658e-02
2.061074e-01	5.263158e+00	6.075713e-02
2.733158e-01	5.263158e+00	6.267200e-02
3.454915e-01	5.263158e+00	6.244209e-02
4.218900e-01	5.263158e+00	5.982002e-02
5.000000e-01	5.263158e+00	5.561294e-02
5.781101e-01	5.263158e+00	4.990691e-02
6.545085e-01	5.263158e+00	4.339542e-02
7.266842e-01	5.263158e+00	3.634389e-02
7.938926e-01	5.263158e+00	2.920755e-02
8.530689e-01	5.263158e+00	2.236875e-02
9.045085e-01	5.263158e+00	1.607733e-02
9.448927e-01	5.263158e+00	1.083910e-02
9.755282e-01	5.263158e+00	6.716001e-03
9.931674e-01	5.263158e+00	4.264516e-03
1.000000e+00	5.263158e+00	3.302691e-03
1.000000e+00	6.315789e+00	3.302691e-03
9.931673e-01	6.315789e+00	2.340866e-03
9.755282e-01	6.315789e+00	-1.106189e-04
9.448927e-01	6.315789e+00	-4.233719e-03
9.045085e-01	6.315789e+00	-9.471949e-03
[...]
CELL_DATA 760
VECTORS V double
3.143121e-01	1.300666e-03	4.424539e-02
3.235669e-01	1.278342e-03	4.496925e-02
3.331056e-01	1.255809e-03	4.483125e-02
3.425712e-01	1.238193e-03	4.443487e-02
3.509065e-01	1.217661e-03	4.291826e-02
3.599597e-01	1.182718e-03	4.159933e-02
3.674385e-01	1.121702e-03	3.901542e-02
3.755662e-01	1.024932e-03	3.669265e-02
3.830188e-01	8.871824e-04	3.264492e-02
3.913178e-01	7.090342e-04	2.858625e-02
3.994024e-01	4.977038e-04	2.151220e-02
4.079486e-01	2.663844e-04	1.400119e-02
4.160546e-01	3.089319e-05	1.325310e-03
4.233943e-01	-1.917288e-04	-1.206320e-02
4.314432e-01	-3.899958e-04	-3.419790e-02
4.321673e-01	-5.555330e-04	-5.742617e-02
4.236115e-01	-6.892017e-04	-9.682949e-02
4.036269e-01	-7.920997e-04	-1.427533e-01
3.209238e-01	-8.727122e-04	-2.261316e-01
1.111137e-01	-9.320000e-04	-2.184584e-01
7.559006e-02	-9.785998e-04	1.486161e-01
2.819335e-01	-9.996947e-04	1.986579e-01
3.744025e-01	-9.997087e-04	1.324173e-01
4.023193e-01	-9.736438e-04	9.196251e-02
4.165153e-01	-9.146488e-04	5.534634e-02
4.198425e-01	-8.184069e-04	3.327846e-02
4.150255e-01	-6.823305e-04	1.182470e-02
4.101909e-01	-5.114307e-04	-1.306632e-03
4.042354e-01	-3.147440e-04	-1.387375e-02
3.974618e-01	-1.070832e-04	-2.140767e-02
3.909814e-01	9.659681e-05	-2.856167e-02
3.840787e-01	2.826201e-04	-3.273526e-02
3.779198e-01	4.417554e-04	-3.692260e-02
3.708939e-01	5.699586e-04	-3.938233e-02
3.642715e-01	6.677585e-04	-4.209763e-02
3.555036e-01	7.389732e-04	-4.348051e-02
3.463629e-01	7.883100e-04	-4.492669e-02
3.339377e-01	8.194596e-04	-4.494324e-02
3.184883e-01	8.334426e-04	-4.426343e-02
3.009884e-01	8.335321e-04	-4.236982e-02
3.161956e-01	7.576483e-04	4.451053e-02
3.247195e-01	7.450483e-04	4.512944e-02
3.337616e-01	7.311867e-04	4.491953e-02
3.430532e-01	7.187629e-04	4.449739e-02
3.514837e-01	7.038028e-04	4.298885e-02
3.608123e-01	6.804332e-04	4.169787e-02
3.686851e-01	6.426601e-04	3.914779e-02
3.772724e-01	5.855027e-04	3.685935e-02
3.852018e-01	5.063298e-04	3.283098e-02
3.939440e-01	4.055292e-04	2.877809e-02
4.023918e-01	2.869499e-04	2.167321e-02
4.111857e-01	1.575690e-04	1.411229e-02
4.194034e-01	2.572339e-05	1.335977e-03
4.267269e-01	-9.951481e-05	-1.215816e-02
4.346606e-01	-2.119891e-04	-3.445293e-02
4.352284e-01	-3.069900e-04	-5.783293e-02
4.265268e-01	-3.847708e-04	-9.749589e-02
4.064791e-01	-4.454998e-04	-1.437621e-01
3.236390e-01	-4.936296e-04	-2.280447e-01
1.128368e-01	-5.292469e-04	-2.218462e-01
7.458251e-02	-5.572278e-04	1.466352e-01
2.816174e-01	-5.698335e-04	1.984352e-01
3.748635e-01	-5.699562e-04	1.325804e-01
4.033984e-01	-5.550439e-04	9.220918e-02
4.181220e-01	-5.215973e-04	5.555985e-02
4.219079e-01	-4.675473e-04	3.344217e-02
4.174627e-01	-3.916700e-04	1.189414e-02
4.128816e-01	-2.967752e-04	-1.315203e-03
4.070414e-01	-1.876842e-04	-1.397005e-02
4.002404e-01	-7.227083e-05	-2.155733e-02
3.936086e-01	4.153618e-05	-2.875359e-02
3.864617e-01	1.464089e-04	-3.293836e-02
3.800059e-01	2.372953e-04	-3.712642e-02
3.726716e-01	3.118101e-04	-3.957109e-02
3.657621e-01	3.699215e-04	-4.226990e-02
3.567489e-01	4.133417e-04	-4.363283e-02
3.473990e-01	4.442944e-04	-4.506109e-02
3.347475e-01	4.644651e-04	-4.505222e-02
3.189659e-01	4.742039e-04	-4.432981e-02
3.009959e-01	4.753739e-04	-4.237088e-02
3.164383e-01	1.399034e-04	4.454469e-02
3.249458e-01	1.380123e-04	4.516089e-02
3.339759e-01	1.346190e-04	4.494838e-02
3.432646e-01	1.299003e-04	4.452481e-02
3.517012e-01	1.237540e-04	4.301545e-02
3.610437e-01	1.159875e-04	4.172460e-02
3.689369e-01	1.063948e-04	3.917453e-02
3.775491e-01	9.482315e-05	3.688638e-02
3.855059e-01	8.128952e-05	3.285689e-02
3.942763e-01	6.595296e-05	2.880236e-02
4.027516e-01	4.913889e-05	2.169259e-02
4.115715e-01	3.133368e-05	1.412553e-02
4.198129e-01	1.307057e-05	1.337282e-03
4.271580e-01	-4.963459e-06	-1.217044e-02
4.351116e-01	-2.225712e-05	-3.448867e-02
4.357005e-01	-3.814781e-05	-5.789567e-02
4.270226e-01	-5.240543e-05	-9.760922e-02
4.070078e-01	-6.452176e-05	-1.439491e-01
3.241726e-01	-7.475124e-05	-2.284207e-01
1.131837e-01	-8.255851e-05	-2.225281e-01
7.438237e-02	-8.865308e-05	1.462417e-01
2.815505e-01	-9.129819e-05	1.983881e-01
3.749271e-01	-9.138801e-05	1.326029e-01
4.035458e-01	-8.887254e-05	9.224286e-02
4.183258e-01	-8.367447e-05	5.558692e-02
4.221521e-01	-7.592931e-05	3.346153e-02
4.177369e-01	-6.573716e-05	1.190195e-02
4.131772e-01	-5.349091e-05	-1.316144e-03
4.073514e-01	-3.956812e-05	-1.398069e-02
4.005586e-01	-2.454877e-05	-2.157447e-02
3.939299e-01	-8.985258e-06	-2.877706e-02
3.867814e-01	6.517938e-06	-3.296561e-02
3.803208e-01	2.141101e-05	-3.715718e-02
3.729793e-01	3.521096e-05	-3.960375e-02
3.660609e-01	4.749034e-05	-4.230443e-02
3.570382e-01	5.794332e-05	-4.366821e-02
3.476767e-01	6.634883e-05	-4.509711e-02
3.350049e-01	7.249232e-05	-4.508687e-02
3.191918e-01	7.618478e-05	-4.436120e-02
3.011858e-01	7.770022e-05	-4.239761e-02
3.165147e-01	4.627612e-05	4.455545e-02
3.250158e-01	4.561861e-05	4.517062e-02
3.340414e-01	4.445953e-05	4.495720e-02
3.433296e-01	4.285787e-05	4.453325e-02
3.517694e-01	4.075362e-05	4.302380e-02
3.611175e-01	3.805991e-05	4.173313e-02
3.690174e-01	3.472397e-05	3.918307e-02
3.776366e-01	3.072953e-05	3.689493e-02
3.856004e-01	2.612461e-05	3.286495e-02
3.943775e-01	2.099308e-05	2.880976e-02
4.028595e-01	1.545345e-05	2.169840e-02
4.116859e-01	9.654738e-06	1.412946e-02
4.199337e-01	3.745404e-06	1.337667e-03
4.272854e-01	-2.083645e-06	-1.217407e-02
4.352458e-01	-7.695001e-06	-3.449931e-02
4.358424e-01	-1.288974e-05	-5.791453e-02
4.271733e-01	-1.759220e-05	-9.764364e-02
4.071697e-01	-2.161876e-05	-1.440063e-01
3.243366e-01	-2.502894e-05	-2.285363e-01
1.132895e-01	-2.761882e-05	-2.227362e-01
7.432323e-02	-2.959704e-05	1.461254e-01
2.815341e-01	-3.039361e-05	1.983765e-01
3.749502e-01	-3.031002e-05	1.326110e-01
4.035933e-01	-2.935543e-05	9.225372e-02
4.183889e-01	-2.752617e-05	5.559531e-02
4.222261e-01	-2.489205e-05	3.346739e-02
4.178186e-01	-2.149751e-05	1.190428e-02
4.132646e-01	-1.746879e-05	-1.316423e-03
4.074432e-01	-1.291078e-05	-1.398384e-02
4.006536e-01	-7.982776e-06	-2.157959e-02
3.940274e-01	-2.829868e-06	-2.878419e-02
3.868809e-01	2.381325e-06	-3.297409e-02
3.804216e-01	7.484342e-06	-3.716703e-02
3.730804e-01	1.231009e-05	-3.961449e-02
3.661611e-01	1.668034e-05	-4.231600e-02
3.571360e-01	2.044846e-05	-4.368016e-02
3.477704e-01	2.348721e-05	-4.510925e-02
3.350922e-01	2.571305e-05	-4.509861e-02
3.192696e-01	2.707638e-05	-4.437202e-02
3.012516e-01	2.763826e-05	-4.240688e-02
3.165492e-01	2.069951e-05	4.456030e-02
3.250474e-01	2.038566e-05	4.517502e-02
3.340711e-01	1.983004e-05	4.496119e-02
3.433589e-01	1.906012e-05	4.453705e-02
3.517998e-01	1.805537e-05	4.302751e-02
3.611497e-01	1.678745e-05	4.173686e-02
3.690520e-01	1.524342e-05	3.918675e-02
3.776738e-01	1.342069e-05	3.689857e-02
3.856403e-01	1.133982e-05	3.286835e-02
3.944201e-01	9.033836e-06	2.881288e-02
4.029048e-01	6.552433e-06	2.170084e-02
4.117339e-01	3.959859e-06	1.413110e-02
4.199844e-01	1.320278e-06	1.337828e-03
4.273388e-01	-1.282896e-06	-1.217559e-02
4.353021e-01	-3.789753e-06	-3.450377e-02
4.359021e-01	-6.111688e-06	-5.792245e-02
4.272365e-01	-8.213113e-06	-9.765810e-02
4.072376e-01	-1.000843e-05	-1.440303e-01
3.244048e-01	-1.151938e-05	-2.285843e-01
1.133327e-01	-1.265101e-05	-2.228211e-01
7.430054e-02	-1.348576e-05	1.460808e-01
2.815305e-01	-1.378157e-05	1.983739e-01
3.749630e-01	-1.366854e-05	1.326156e-01
4.036159e-01	-1.315777e-05	9.225888e-02
4.184177e-01	-1.224950e-05	5.559914e-02
4.222590e-01	-1.098114e-05	3.347000e-02
4.178546e-01	-9.375085e-06	1.190531e-02
4.133028e-01	-7.490324e-06	-1.316545e-03
4.074831e-01	-5.374086e-06	-1.398521e-02
4.006948e-01	-3.099026e-06	-2.158181e-02
3.940696e-01	-7.323773e-07	-2.878726e-02
3.869236e-01	1.647670e-06	-3.297773e-02
3.804646e-01	3.963197e-06	-3.717123e-02
3.731233e-01	6.142464e-06	-3.961905e-02
3.662037e-01	8.116015e-06	-4.232093e-02
3.571779e-01	9.827717e-06	-4.368530e-02
3.478111e-01	1.122185e-05	-4.511453e-02
3.351305e-01	1.225393e-05	-4.510378e-02
3.193040e-01	1.289100e-05	-4.437680e-02
3.012806e-01	1.315246e-05	-4.241096e-02
3.165677e-01	1.110838e-05	4.456290e-02
3.250645e-01	1.093333e-05	4.517739e-02
3.340872e-01	1.062033e-05	4.496335e-02
3.433748e-01	1.018385e-05	4.453911e-02
3.518161e-01	9.615117e-06	4.302951e-02
3.611669e-01	8.902864e-06	4.173884e-02
3.690702e-01	8.044172e-06	3.918868e-02
3.776932e-01	7.041246e-06	3.690046e-02
3.856609e-01	5.907081e-06	3.287011e-02
3.944421e-01	4.659879e-06	2.881448e-02
4.029280e-01	3.324607e-06	2.170209e-02
4.117585e-01	1.933892e-06	1.413195e-02
4.200103e-01	5.202831e-07	1.337911e-03
4.273661e-01	-8.726720e-07	-1.217637e-02
4.353309e-01	-2.213236e-06	-3.450606e-02
4.359325e-01	-3.453494e-06	-5.792649e-02
4.272687e-01	-4.573337e-06	-9.766547e-02
4.072719e-01	-5.525594e-06	-1.440425e-01
3.244390e-01	-6.319884e-06	-2.286084e-01
1.133539e-01	-6.904601e-06	-2.228627e-01
7.429021e-02	-7.317920e-06	1.460605e-01
2.815304e-01	-7.439330e-06	1.983739e-01
3.749712e-01	-7.334694e-06	1.326185e-01
4.036289e-01	-7.013264e-06	9.226185e-02
4.184337e-01	-6.475463e-06	5.560126e-02
4.222770e-01	-5.744443e-06	3.347143e-02
4.178739e-01	-4.834006e-06	1.190586e-02
4.133232e-01	-3.778846e-06	-1.316609e-03
4.075041e-01	-2.606598e-06	-1.398593e-02
4.007163e-01	-1.358087e-06	-2.158297e-02
3.940914e-01	-6.988627e-08	-2.878886e-02
3.869457e-01	1.217073e-06	-3.297961e-02
3.804868e-01	2.464925e-06	-3.717339e-02
3.731455e-01	3.638173e-06	-3.962140e-02
3.662257e-01	4.702305e-06	-4.232347e-02
3.571997e-01	5.627570e-06	-4.368796e-02
3.478322e-01	6.383453e-06	-4.511728e-02
3.351506e-01	6.944861e-06	-4.510647e-02
3.193220e-01	7.292613e-06	-4.437930e-02
3.012958e-01	7.435599e-06	-4.241309e-02
3.165788e-01	6.682834e-06	4.456446e-02
3.250748e-01	6.575705e-06	4.517882e-02
3.340970e-01	6.381541e-06	4.496467e-02
3.433845e-01	6.108611e-06	4.454037e-02
3.518261e-01	5.752983e-06	4.303073e-02
3.611773e-01	5.309989e-06	4.174004e-02
3.690812e-01	4.780044e-06	3.918985e-02
3.777048e-01	4.166153e-06	3.690159e-02
3.856731e-01	3.477099e-06	3.287115e-02
3.944550e-01	2.724481e-06	2.881542e-02
4.029416e-01	1.923173e-06	2.170283e-02
4.117728e-01	1.091872e-06	1.413244e-02
4.200254e-01	2.492336e-07	1.337959e-03
4.273820e-01	-5.795557e-07	-1.217682e-02
4.353476e-01	-1.375946e-06	-3.450738e-02
4.359501e-01	-2.111391e-06	-5.792883e-02
4.272873e-01	-2.773352e-06	-9.766971e-02
4.072916e-01	-3.333008e-06	-1.440494e-01
3.244583e-01	-3.794829e-06	-2.286220e-01
1.133655e-01	-4.127767e-06	-2.228855e-01
7.428513e-02	-4.350650e-06	1.460505e-01
2.815316e-01	-4.398212e-06	1.983747e-01
3.749770e-01	-4.307238e-06	1.326205e-01
4.036373e-01	-4.085641e-06	9.226378e-02
4.184438e-01	-3.734158e-06	5.560260e-02
4.222881e-01	-3.268882e-06	3.347231e-02
4.178857e-01	-2.699353e-06	1.190619e-02
4.133354e-01	-2.047616e-06	-1.316648e-03
4.075167e-01	-1.330771e-06	-1.398636e-02
4.007291e-01	-5.732409e-07	-2.158366e-02
3.941043e-01	2.038367e-07	-2.878980e-02
3.869586e-01	9.773910e-07	-3.298071e-02
3.804997e-01	1.726152e-06	-3.717466e-02
3.731584e-01	2.429843e-06	-3.962277e-02
3.662386e-01	3.068421e-06	-4.232496e-02
3.572124e-01	3.624251e-06	-4.368951e-02
3.478447e-01	4.078983e-06	-4.511889e-02
3.351623e-01	4.417500e-06	-4.510805e-02
3.193327e-01	4.628111e-06	-4.438078e-02
3.013047e-01	4.715409e-06	-4.241435e-02
3.165858e-01	4.129433e-06	4.456545e-02
3.250814e-01	4.089334e-06	4.517974e-02
3.341033e-01	4.020795e-06	4.496552e-02
3.433908e-01	3.933689e-06	4.454118e-02
3.518325e-01	3.831604e-06	4.303151e-02
3.611840e-01	3.711319e-06	4.174082e-02
3.690882e-01	3.561020e-06	3.919059e-02
3.777121e-01	3.359070e-06	3.690231e-02
3.856808e-01	3.080622e-06	3.287180e-02
3.944630e-01	2.708293e-06	2.881601e-02
4.029501e-01	2.244347e-06	2.170328e-02
4.117817e-01	1.714156e-06	1.413274e-02
4.200347e-01	1.157024e-06	1.337988e-03
4.273918e-01	6.155783e-07	-1.217710e-02
4.353579e-01	1.153827e-07	-3.450820e-02
4.359610e-01	-3.267451e-07	-5.793028e-02
4.272987e-01	-7.120009e-07	-9.767231e-02
4.073036e-01	-1.032071e-06	-1.440537e-01
3.244699e-01	-1.293996e-06	-2.286302e-01
1.133722e-01	-1.481212e-06	-2.228988e-01
7.428257e-02	-1.603583e-06	1.460455e-01
2.815331e-01	-1.625224e-06	1.983758e-01
3.749813e-01	-1.566732e-06	1.326221e-01
4.036432e-01	-1.431976e-06	9.226511e-02
4.184505e-01	-1.216823e-06	5.560349e-02
4.222953e-01	-9.227697e-07	3.347288e-02
4.178933e-01	-5.472317e-07	1.190641e-02
4.133432e-01	-1.037359e-07	-1.316673e-03
4.075246e-01	3.825615e-07	-1.398664e-02
4.007371e-01	8.690827e-07	-2.158409e-02
3.941123e-01	1.315068e-06	-2.879039e-02
3.869667e-01	1.692829e-06	-3.298140e-02
3.805078e-01	1.996530e-06	-3.717545e-02
3.731665e-01	2.238764e-06	-3.962363e-02
3.662467e-01	2.438160e-06	-4.232590e-02
3.572204e-01	2.608496e-06	-4.369049e-02
3.478525e-01	2.752358e-06	-4.511990e-02
3.351697e-01	2.863985e-06	-4.510905e-02
3.193394e-01	2.934878e-06	-4.438172e-02
3.013105e-01	2.964108e-06	-4.241516e-02
3.165855e-01	-3.331720e-04	4.456542e-02
3.250808e-01	-3.337811e-04	4.517966e-02
3.341023e-01	-3.356856e-04	4.496539e-02
3.433893e-01	-3.322996e-04	4.454099e-02
3.518306e-01	-3.218686e-04	4.303128e-02
3.611821e-01	-3.338666e-04	4.174059e-02
3.690867e-01	-2.808862e-04	3.919044e-02
3.777118e-01	-3.039946e-04	3.690228e-02
3.856821e-01	-2.176599e-04	3.287191e-02
3.944662e-01	-2.502819e-04	2.881624e-02
4.029551e-01	-1.317299e-04	2.170355e-02
4.117879e-01	-1.716407e-04	1.413296e-02
4.200415e-01	-2.837016e-05	1.338010e-03
4.273985e-01	-7.477890e-05	-1.217729e-02
4.353642e-01	8.710089e-05	-3.450870e-02
4.359670e-01	1.893785e-04	-5.793108e-02
4.273046e-01	2.368317e-04	-9.767367e-02
4.073096e-01	2.190386e-04	-1.440558e-01
3.244758e-01	2.103214e-04	-2.286344e-01
1.133757e-01	2.068255e-04	-2.229057e-01
7.428110e-02	2.067704e-04	1.460426e-01
2.815336e-01	2.101723e-04	1.983761e-01
3.749833e-01	2.187979e-04	1.326227e-01
4.036461e-01	2.365075e-04	9.226578e-02
4.184542e-01	1.889781e-04	5.560399e-02
4.223000e-01	8.663351e-05	3.347325e-02
4.178987e-01	-7.530282e-05	1.190656e-02
4.133490e-01	-2.893947e-05	-1.316692e-03
4.075302e-01	-1.722442e-04	-1.398683e-02
4.007417e-01	-1.323563e-04	-2.158433e-02
3.941154e-01	-2.509210e-04	-2.879061e-02
3.869680e-01	-2.183024e-04	-3.298151e-02
3.805076e-01	-3.046333e-04	-3.717543e-02
3.731653e-01	-2.815157e-04	-3.962351e-02
3.662451e-01	-3.344849e-04	-4.232571e-02
3.572188e-01	-3.224766e-04	-4.369030e-02
3.478511e-01	-3.329022e-04	-4.511973e-02
3.351687e-01	-3.362899e-04	-4.510891e-02
3.193385e-01	-3.343932e-04	-4.438159e-02
3.013097e-01	-3.337920e-04	-4.241505e-02
3.166886e-01	-1.586222e-08	4.457992e-02
3.252321e-01	-1.801495e-08	4.520068e-02
3.340200e-01	-1.875637e-08	4.495432e-02
3.430225e-01	-1.774812e-08	4.449342e-02
3.519065e-01	-1.574949e-08	4.304056e-02
3.603936e-01	-1.341094e-08	4.164947e-02
3.686789e-01	-1.105853e-08	3.914713e-02
3.767474e-01	-8.946887e-09	3.680806e-02
3.849715e-01	-7.168243e-09	3.281135e-02
3.932946e-01	-5.747259e-09	2.873065e-02
4.018747e-01	-4.810168e-09	2.164536e-02
4.103988e-01	-4.352486e-09	1.408528e-02
4.185313e-01	-4.298609e-09	1.333199e-03
4.257273e-01	-4.562900e-09	-1.212968e-02
4.306449e-01	-5.089464e-09	-3.413463e-02
4.328277e-01	-5.735134e-09	-5.751393e-02
4.263944e-01	-6.388710e-09	-9.746561e-02
4.081563e-01	-6.902105e-09	-1.443553e-01
3.249698e-01	-7.175268e-09	-2.289825e-01
1.135046e-01	-7.098878e-09	-2.231592e-01
7.440860e-02	-6.490810e-09	1.462932e-01
2.820261e-01	-5.465379e-09	1.987231e-01
3.758288e-01	-3.934773e-09	1.329218e-01
4.027350e-01	-1.982506e-09	9.205753e-02
4.153143e-01	4.012015e-10	5.518676e-02
4.175802e-01	3.058375e-09	3.309914e-02
4.162272e-01	5.887140e-09	1.185894e-02
4.118386e-01	8.679710e-09	-1.311880e-03
4.061409e-01	1.139941e-08	-1.393915e-02
3.996612e-01	1.394615e-08	-2.152614e-02
3.929437e-01	1.620483e-08	-2.870502e-02
3.862574e-01	1.817796e-08	-3.292094e-02
3.795433e-01	1.997080e-08	-3.708121e-02
3.727575e-01	2.164414e-08	-3.958021e-02
3.654566e-01	2.328676e-08	-4.223459e-02
3.572947e-01	2.504742e-08	-4.369958e-02
3.474843e-01	2.691001e-08	-4.507215e-02
3.350862e-01	2.860608e-08	-4.509781e-02
3.194893e-01	2.900921e-08	-4.440255e-02
3.014119e-01	2.760179e-08	-4.242944e-02
3.165859e-01	3.331885e-04	4.456547e-02
3.250810e-01	3.337996e-04	4.517968e-02
3.341023e-01	3.357048e-04	4.496539e-02
3.433892e-01	3.323177e-04	4.454098e-02
3.518305e-01	3.218852e-04	4.303127e-02
3.611820e-01	3.338817e-04	4.174058e-02
3.690867e-01	2.809002e-04	3.919043e-02
3.777117e-01	3.040075e-04	3.690227e-02
3.856821e-01	2.176720e-04	3.287191e-02
3.944662e-01	2.502928e-04	2.881624e-02
4.029550e-01	1.317392e-04	2.170355e-02
4.117879e-01	1.716480e-04	1.413296e-02
4.200415e-01	2.837481e-05	1.338010e-03
4.273985e-01	7.478049e-05	-1.217729e-02
4.353642e-01	-8.710274e-05	-3.450870e-02
4.359670e-01	-1.893839e-04	-5.793108e-02
4.273046e-01	-2.368405e-04	-9.767367e-02
4.073096e-01	-2.190505e-04	-1.440558e-01
3.244758e-01	-2.103359e-04	-2.286344e-01
1.133757e-01	-2.068417e-04	-2.229056e-01
7.428115e-02	-2.067875e-04	1.460427e-01
2.815337e-01	-2.101890e-04	1.983762e-01
3.749834e-01	-2.188132e-04	1.326228e-01
4.036462e-01	-2.365205e-04	9.226580e-02
4.184544e-01	-1.889879e-04	5.560401e-02
4.223001e-01	-8.663949e-05	3.347325e-02
4.178988e-01	7.530097e-05	1.190657e-02
4.133491e-01	2.894157e-05	-1.316692e-03
4.075303e-01	1.722496e-04	-1.398683e-02
4.007417e-01	1.323642e-04	-2.158434e-02
3.941154e-01	2.509302e-04	-2.879062e-02
3.869681e-01	2.183115e-04	-3.298152e-02
3.805077e-01	3.046409e-04	-3.717544e-02
3.731654e-01	2.815207e-04	-3.962352e-02
3.662452e-01	3.344857e-04	-4.232572e-02
3.572189e-01	3.224723e-04	-4.369031e-02
3.478512e-01	3.328925e-04	-4.511974e-02
3.351688e-01	3.362751e-04	-4.510892e-02
3.193385e-01	3.343755e-04	-4.438159e-02
3.013094e-01	3.337742e-04	-4.241501e-02
3.165854e-01	-4.086999e-06	4.456540e-02
3.250813e-01	-4.040752e-06	4.517972e-02
3.341033e-01	-3.969561e-06	4.496553e-02
3.433909e-01	-3.884333e-06	4.454119e-02
3.518326e-01	-3.786067e-06	4.303152e-02
3.611840e-01	-3.669861e-06	4.174082e-02
3.690882e-01	-3.523376e-06	3.919059e-02
3.777121e-01	-3.324885e-06	3.690231e-02
3.856808e-01	-3.049847e-06	3.287180e-02
3.944631e-01	-2.681288e-06	2.881601e-02
4.029501e-01	-2.221516e-06	2.170328e-02
4.117818e-01	-1.696173e-06	1.413275e-02
4.200348e-01	-1.144614e-06	1.337989e-03
4.273919e-01	-6.093809e-07	-1.217710e-02
4.353580e-01	-1.157697e-07	-3.450821e-02
4.359611e-01	3.197507e-07	-5.793029e-02
4.272988e-01	6.986502e-07	-9.767235e-02
4.073037e-01	1.013017e-06	-1.440537e-01
3.244701e-01	1.269949e-06	-2.286303e-01
1.133723e-01	1.453282e-06	-2.228990e-01
7.428256e-02	1.572639e-06	1.460454e-01
2.815332e-01	1.593061e-06	1.983758e-01
3.749815e-01	1.534708e-06	1.326221e-01
4.036433e-01	1.401413e-06	9.226514e-02
4.184506e-01	1.188976e-06	5.560351e-02
4.222955e-01	8.986260e-07	3.347289e-02
4.178934e-01	5.274371e-07	1.190641e-02
4.133433e-01	8.849356e-08	-1.316673e-03
4.075247e-01	-3.937771e-07	-1.398664e-02
4.007371e-01	-8.774858e-07	-2.158409e-02
3.941123e-01	-1.322407e-06	-2.879039e-02
3.869666e-01	-1.701048e-06	-3.298140e-02
3.805077e-01	-2.007960e-06	-3.717544e-02
3.731664e-01	-2.255661e-06	-3.962362e-02
3.662465e-01	-2.462594e-06	-4.232588e-02
3.572202e-01	-2.642219e-06	-4.369046e-02
3.478522e-01	-2.796234e-06	-4.511987e-02
3.351695e-01	-2.917036e-06	-4.510901e-02
3.193392e-01	-2.992454e-06	-4.438169e-02
3.013105e-01	-3.019851e-06	-4.241516e-02
3.165781e-01	-6.649577e-06	4.456437e-02
3.250745e-01	-6.536696e-06	4.517878e-02
3.340969e-01	-6.338982e-06	4.496467e-02
3.433846e-01	-6.065616e-06	4.454038e-02
3.518261e-01	-5.710967e-06	4.303074e-02
3.611774e-01	-5.269119e-06	4.174005e-02
3.690812e-01	-4.740350e-06	3.918985e-02
3.777048e-01	-4.127679e-06	3.690160e-02
3.856732e-01	-3.440887e-06	3.287115e-02
3.944550e-01	-2.691646e-06	2.881542e-02
4.029417e-01	-1.895307e-06	2.170283e-02
4.117730e-01	-1.070761e-06	1.413244e-02
4.200256e-01	-2.364286e-07	1.337959e-03
4.273822e-01	5.829798e-07	-1.217683e-02
4.353478e-01	1.369505e-06	-3.450740e-02
4.359504e-01	2.095262e-06	-5.792887e-02
4.272876e-01	2.748131e-06	-9.766978e-02
4.072919e-01	3.299821e-06	-1.440496e-01
3.244586e-01	3.754765e-06	-2.286223e-01