# vtk DataFile Version 2.0
OUTPUT by 3D-VPM
ASCII
DATASET UNSTRUCTURED_GRID
POINTS 820 double
1.000000e+00	0.000000e+00	1.821969e-03
9.931674e-01	0.000000e+00	8.601441e-04
9.755282e-01	0.000000e+00	-1.591341e-03
9.448927e-01	0.000000e+00	-5.714441e-03
9.045085e-01	0.000000e+00	-1.095267e-02
8.530688e-01	0.000000e+00	-1.724409e-02
7.938926e-01	0.000000e+00	-2.408289e-02
7.266841e-01	0.000000e+00	-3.121923e-02
6.545085e-01	0.000000e+00	-3.827076e-02
5.781101e-01	0.000000e+00	-4.478225e-02
5.000000e-01	0.000000e+00	-5.048828e-02
4.218900e-01	0.000000e+00	-5.469536e-02
3.454915e-01	0.000000e+00	-5.731743e-02
2.733159e-01	0.000000e+00	-5.754734e-02
2.061074e-01	0.000000e+00	-5.563246e-02
1.469312e-01	0.000000e+00	-5.094192e-02
9.549150e-02	0.000000e+00	-4.410664e-02
5.510729e-02	0.000000e+00	-3.487558e-02
2.447174e-02	0.000000e+00	-2.404051e-02
6.832625e-03	0.000000e+00	-1.161152e-02
0.000000e+00	0.000000e+00	1.821969e-03
6.832625e-03	0.000000e+00	1.525545e-02
2.447174e-02	0.000000e+00	2.768445e-02
5.510728e-02	0.000000e+00	3.851952e-02
9.549150e-02	0.000000e+00	4.775058e-02
1.469312e-01	0.000000e+00	5.458585e-02
2.061074e-01	0.000000e+00	5.927641e-02
2.733159e-01	0.000000e+00	6.119128e-02
3.454915e-01	0.000000e+00	6.096137e-02
4.218900e-01	0.000000e+00	5.833930e-02
5.000000e-01	0.000000e+00	5.413222e-02
5.781101e-01	0.000000e+00	4.842618e-02
6.545085e-01	0.000000e+00	4.191470e-02
7.266841e-01	0.000000e+00	3.486317e-02
7.938926e-01	0.000000e+00	2.772683e-02
8.530688e-01	0.000000e+00	2.088803e-02
9.045085e-01	0.000000e+00	1.459661e-02
9.448927e-01	0.000000e+00	9.358379e-03
9.755282e-01	0.000000e+00	5.235279e-03
9.931674e-01	0.000000e+00	2.783794e-03
1.000000e+00	0.000000e+00	1.821969e-03
1.000000e+00	1.052632e+00	1.821969e-03
9.931674e-01	1.052632e+00	8.601441e-04
9.755282e-01	1.052632e+00	-1.591341e-03
9.448927e-01	1.052632e+00	-5.714441e-03
9.045085e-01	1.052632e+00	-1.095267e-02
8.530689e-01	1.052632e+00	-1.724409e-02
7.938926e-01	1.052632e+00	-2.408289e-02
7.266841e-01	1.052632e+00	-3.121923e-02
6.545085e-01	1.052632e+00	-3.827076e-02
5.781101e-01	1.052632e+00	-4.478225e-02
5.000000e-01	1.052632e+00	-5.048828e-02
4.218900e-01	1.052632e+00	-5.469536e-02
3.454915e-01	1.052632e+00	-5.731743e-02
2.733158e-01	1.052632e+00	-5.754734e-02
2.061074e-01	1.052632e+00	-5.563246e-02
1.469311e-01	1.052632e+00	-5.094192e-02
9.549150e-02	1.052632e+00	-4.410664e-02
5.510729e-02	1.052632e+00	-3.487558e-02
2.447174e-02	1.052632e+00	-2.404051e-02
6.832625e-03	1.052632e+00	-1.161152e-02
0.000000e+00	1.052632e+00	1.821969e-03
6.832625e-03	1.052632e+00	1.525545e-02
2.447174e-02	1.052632e+00	2.768445e-02
5.510728e-02	1.052632e+00	3.851952e-02
9.549150e-02	1.052632e+00	4.775058e-02
1.469311e-01	1.052632e+00	5.458585e-02
2.061074e-01	1.052632e+00	5.927641e-02
2.733158e-01	1.052632e+00	6.119128e-02
3.454915e-01	1.052632e+00	6.096137e-02
4.218900e-01	1.052632e+00	5.833930e-02
5.000000e-01	1.052632e+00	5.413222e-02
5.781101e-01	1.052632e+00	4.842618e-02
6.545085e-01	1.052632e+00	4.191470e-02
7.266841e-01	1.052632e+00	3.486317e-02
7.938926e-01	1.052632e+00	2.772683e-02
8.530689e-01	1.052632e+00	2.088803e-02
9.045085e-01	1.052632e+00	1.459661e-02
9.448927e-01	1.052632e+00	9.358379e-03
9.755282e-01	1.052632e+00	5.235279e-03
9.931674e-01	1.052632e+00	2.783794e-03
1.000000e+00	1.052632e+00	1.821969e-03
1.000000e+00	2.105263e+00	1.821969e-03
9.931674e-01	2.105263e+00	8.601441e-04
9.755282e-01	2.105263e+00	-1.591341e-03
9.448927e-01	2.105263e+00	-5.714441e-03
9.045085e-01	2.105263e+00	-1.095267e-02
8.530689e-01	2.105263e+00	-1.724409e-02
7.938926e-01	2.105263e+00	-2.408289e-02
7.266841e-01	2.105263e+00	-3.121923e-02
6.545085e-01	2.105263e+00	-3.827076e-02
5.781101e-01	2.105263e+00	-4.478225e-02
5.000000e-01	2.105263e+00	-5.048828e-02
4.218900e-01	2.105263e+00	-5.469536e-02
3.454915e-01	2.105263e+00	-5.731743e-02
2.733158e-01	2.105263e+00	-5.754734e-02
2.061074e-01	2.105263e+00	-5.563246e-02
1.469312e-01	2.105263e+00	-5.094192e-02
9.549150e-02	2.105263e+00	-4.410664e-02
5.510729e-02	2.105263e+00	-3.487558e-02
2.447174e-02	2.105263e+00	-2.404051e-02
6.832625e-03	2.105263e+00	-1.161152e-02
0.000000e+00	2.105263e+00	1.821969e-03
6.832625e-03	2.105263e+00	1.525545e-02
2.447174e-02	2.105263e+00	2.768445e-02
5.510728e-02	2.105263e+00	3.851952e-02
9.549150e-02	2.105263e+00	4.775058e-02
1.469312e-01	2.105263e+00	5.458585e-02
2.061074e-01	2.105263e+00	5.927641e-02
2.733158e-01	2.105263e+00	6.119128e-02
3.454915e-01	2.105263e+00	6.096137e-02
4.218900e-01	2.105263e+00	5.833930e-02
5.000000e-01	2.105263e+00	5.413222e-02
5.781101e-01	2.105263e+00	4.842618e-02
6.545085e-01	2.105263e+00	4.191470e-02
7.266841e-01	2.105263e+00	3.486317e-02
7.938926e-01	2.105263e+00	2.772683e-02
8.530689e-01	2.105263e+00	2.088803e-02
9.045085e-01	2.105263e+00	1.459661e-02
9.448927e-01	2.105263e+00	9.358379e-03
9.755282e-01	2.105263e+00	5.235279e-03
9.931674e-01	2.105263e+00	2.783794e-03
1.000000e+00	2.105263e+00	1.821969e-03
1.000000e+00	3.157895e+00	1.821969e-03
9.931674e-01	3.157895e+00	8.601441e-04
9.755282e-01	3.157895e+00	-1.591341e-03
9.448927e-01	3.157895e+00	-5.714441e-03
9.045085e-01	3.157895e+00	-1.095267e-02
8.530689e-01	3.157895e+00	-1.724409e-02
7.938926e-01	3.157895e+00	-2.408289e-02
7.266842e-01	3.157895e+00	-3.121923e-02
6.545085e-01	3.157895e+00	-3.827076e-02
5.781101e-01	3.157895e+00	-4.478225e-02
5.000000e-01	3.157895e+00	-5.048828e-02
4.218900e-01	3.157895e+00	-5.469536e-02
3.454915e-01	3.157895e+00	-5.731743e-02
2.733158e-01	3.157895e+00	-5.754734e-02
2.061074e-01	3.157895e+00	-5.563246e-02
1.469312e-01	3.157895e+00	-5.094192e-02
9.549150e-02	3.157895e+00	-4.410664e-02
5.510729e-02	3.157895e+00	-3.487558e-02
2.447174e-02	3.157895e+00	-2.404051e-02
6.832625e-03	3.157895e+00	-1.161152e-02
0.000000e+00	3.157895e+00	1.821969e-03
6.832625e-03	3.157895e+00	1.525545e-02
2.447174e-02	3.157895e+00	2.768445e-02
5.510728e-02	3.157895e+00	3.851952e-02
9.549150e-02	3.157895e+00	4.775058e-02
1.469312e-01	3.157895e+00	5.458585e-02
2.061074e-01	3.157895e+00	5.927641e-02
2.733158e-01	3.157895e+00	6.119128e-02
3.454915e-01	3.157895e+00	6.096137e-02
4.218900e-01	3.157895e+00	5.833930e-02
5.000000e-01	3.157895e+00	5.413222e-02
5.781101e-01	3.157895e+00	4.842618e-02
6.545085e-01	3.157895e+00	4.191470e-02
7.266842e-01	3.157895e+00	3.486317e-02
7.938926e-01	3.157895e+00	2.772683e-02
8.530689e-01	3.157895e+00	2.088803e-02
9.045085e-01	3.157895e+00	1.459661e-02
9.448927e-01	3.157895e+00	9.358379e-03
9.755282e-01	3.157895e+00	5.235279e-03
9.931674e-01	3.157895e+00	2.783794e-03
1.000000e+00	3.157895e+00	1.821969e-03
1.000000e+00	4.210526e+00	1.821969e-03
9.931674e-01	4.210526e+00	8.601441e-04
9.755282e-01	4.210526e+00	-1.591341e-03
9.448927e-01	4.210526e+00	-5.714441e-03
9.045085e-01	4.210526e+00	-1.095267e-02
8.530689e-01	4.210526e+00	-1.724409e-02
7.938926e-01	4.210526e+00	-2.408289e-02
7.266841e-01	4.210526e+00	-3.121923e-02
6.545085e-01	4.210526e+00	-3.827076e-02
5.781101e-01	4.210526e+00	-4.478225e-02
5.000000e-01	4.210526e+00	-5.048828e-02
4.218900e-01	4.210526e+00	-5.469536e-02
3.454915e-01	4.210526e+00	-5.731743e-02
2.733158e-01	4.210526e+00	-5.754734e-02
2.061074e-01	4.210526e+00	-5.563246e-02
1.469311e-01	4.210526e+00	-5.094192e-02
9.549150e-02	4.210526e+00	-4.410664e-02
5.510729e-02	4.210526e+00	-3.487558e-02
2.447174e-02	4.210526e+00	-2.404051e-02
6.832625e-03	4.210526e+00	-1.161152e-02
0.000000e+00	4.210526e+00	1.821969e-03
6.832625e-03	4.210526e+00	1.525545e-02
2.447174e-02	4.210526e+00	2.768445e-02
5.510728e-02	4.210526e+00	3.851952e-02
9.549150e-02	4.210526e+00	4.775058e-02
1.469311e-01	4.210526e+00	5.458585e-02
2.061074e-01	4.210526e+00	5.927641e-02
2.733158e-01	4.210526e+00	6.119128e-02
3.454915e-01	4.210526e+00	6.096137e-02
4.218900e-01	4.210526e+00	5.833930e-02
5.000000e-01	4.210526e+00	5.413222e-02
5.781101e-01	4.210526e+00	4.842618e-02
6.545085e-01	4.210526e+00	4.191470e-02
7.266841e-01	4.210526e+00	3.486317e-02
7.938926e-01	4.210526e+00	2.772683e-02
8.530689e-01	4.210526e+00	2.088803e-02
9.045085e-01	4.210526e+00	1.459661e-02
9.448927e-01	4.210526e+00	9.358379e-03
9.755282e-01	4.210526e+00	5.235279e-03
9.931674e-01	4.210526e+00	2.783794e-03
1.000000e+00	4.210526e+00	1.821969e-03
1.000000e+00	5.263158e+00	1.821969e-03
9.931674e-01	5.263158e+00	8.601441e-04
9.755282e-01	5.263158e+00	-1.591341e-03
9.448927e-01	5.263158e+00	-5.714441e-03
9.045085e-01	5.263158e+00	-1.095267e-02
8.530689e-01	5.263158e+00	-1.724409e-02
7.938926e-01	5.263158e+00	-2.408289e-02
7.266842e-01	5.263158e+00	-3.121923e-02
6.545085e-01	5.263158e+00	-3.827076e-02
5.781101e-01	5.263158e+00	-4.478225e-02
5.000000e-01	5.263158e+00	-5.048828e-02
4.218900e-01	5.263158e+00	-5.469536e-02
3.454915e-01	5.263158e+00	-5.731743e-02
2.733158e-01	5.263158e+00	-5.754734e-02
2.061074e-01	5.263158e+00	-5.563246e-02
1.469311e-01	5.263158e+00	-5.094192e-02
9.549150e-02	5.263158e+00	-4.410664e-02
5.510729e-02	5.263158e+00	-3.487558e-02
2.447174e-02	5.263158e+00	-2.404051e-02
6.832625e-03	5.263158e+00	-1.161152e-02
0.000000e+00	5.263158e+00	1.821969e-03
6.832625e-03	5.263158e+00	1.525545e-02
2.447174e-02	5.263158e+00	2.768445e-02
5.510728e-02	5.263158e+00	3.851952e-02
9.549150e-02	5.263158e+00	4.775058e-02
1.469311e-01	5.263158e+00	5.458585e-02
2.061074e-01	5.263158e+00	5.927641e-02
2.733158e-01	5.263158e+00	6.119128e-02
3.454915e-01	5.263158e+00	6.096137e-02
4.218900e-01	5.263158e+00	5.833930e-02
5.000000e-01	5.263158e+00	5.413222e-02
5.781101e-01	5.263158e+00	4.842618e-02
6.545085e-01	5.263158e+00	4.191470e-02
7.266842e-01	5.263158e+00	3.486317e-02
7.938926e-01	5.263158e+00	2.772683e-02
8.530689e-01	5.263158e+00	2.088803e-02
9.045085e-01	5.263158e+00	1.459661e-02
9.448927e-01	5.263158e+00	9.358379e-03
9.755282e-01	5.263158e+00	5.235279e-03
9.931674e-01	5.263158e+00	2.783794e-03
1.000000e+00	5.263158e+00	1.821969e-03
1.000000e+00	6.315789e+00	1.821969e-03
9.931673e-01	6.315789e+00	8.601441e-04
9.755282e-01	6.315789e+00	-1.591341e-03
9.448927e-01	6.315789e+00	-5.714441e-03
9.045085e-01	6.315789e+00	-1.095267e-02
[...]
CELL_DATA 760
VECTORS V double
2.757378e-01	1.307938e-03	3.881533e-02
2.900156e-01	1.311113e-03	4.030631e-02
3.066056e-01	1.338246e-03	4.126473e-02
3.225622e-01	1.376608e-03	4.183950e-02
3.358436e-01	1.410179e-03	4.107597e-02
3.485673e-01	1.424980e-03	4.028275e-02
3.589277e-01	1.408454e-03	3.811173e-02
3.694084e-01	1.349599e-03	3.609105e-02
3.789437e-01	1.241361e-03	3.229760e-02
3.891380e-01	1.082291e-03	2.842701e-02
3.991271e-01	8.779904e-04	2.149737e-02
4.096043e-01	6.409025e-04	1.405801e-02
4.198985e-01	3.871645e-04	1.337554e-03
4.296775e-01	1.352649e-04	-1.224222e-02
4.407736e-01	-1.014163e-04	-3.493747e-02
4.452287e-01	-3.118903e-04	-5.916177e-02
4.417942e-01	-4.954176e-04	-1.009857e-01
4.289130e-01	-6.505446e-04	-1.516964e-01
3.549532e-01	-7.865664e-04	-2.501096e-01
1.422124e-01	-9.014390e-04	-2.796009e-01
4.449049e-02	-1.012652e-03	8.747185e-02
2.479013e-01	-1.089420e-03	1.746779e-01
3.491127e-01	-1.145022e-03	1.234729e-01
3.841326e-01	-1.171456e-03	8.780537e-02
4.034493e-01	-1.162702e-03	5.361015e-02
4.105071e-01	-1.111903e-03	3.253849e-02
4.087366e-01	-1.014897e-03	1.164552e-02
4.063404e-01	-8.740962e-04	-1.294366e-03
4.025716e-01	-6.966612e-04	-1.381665e-02
3.977268e-01	-4.959522e-04	-2.142195e-02
3.931476e-01	-2.865750e-04	-2.871992e-02
3.881350e-01	-8.289364e-05	-3.308097e-02
3.840516e-01	1.043261e-04	-3.752168e-02
3.793719e-01	2.689776e-04	-4.028254e-02
3.756339e-01	4.094213e-04	-4.341074e-02
3.705787e-01	5.273796e-04	-4.532431e-02
3.665725e-01	6.259661e-04	-4.754807e-02
3.613608e-01	7.075913e-04	-4.863399e-02
3.552206e-01	7.715485e-04	-4.936847e-02
3.473897e-01	8.082367e-04	-4.890168e-02
2.754699e-01	7.605679e-04	3.877761e-02
2.890371e-01	7.623630e-04	4.017031e-02
3.054741e-01	7.771954e-04	4.111245e-02
3.216696e-01	7.977972e-04	4.172373e-02
3.353698e-01	8.151128e-04	4.101801e-02
3.486004e-01	8.214603e-04	4.028658e-02
3.595329e-01	8.101231e-04	3.817599e-02
3.706287e-01	7.752969e-04	3.621026e-02
3.807931e-01	7.133418e-04	3.245522e-02
3.915886e-01	6.235709e-04	2.860603e-02
4.021075e-01	5.090004e-04	2.165790e-02
4.130062e-01	3.762398e-04	1.417477e-02
4.235918e-01	2.338307e-04	1.349319e-03
4.335411e-01	9.166161e-05	-1.235230e-02
4.447202e-01	-4.306041e-05	-3.525030e-02
4.492462e-01	-1.641609e-04	-5.969562e-02
4.459456e-01	-2.710006e-04	-1.019346e-01
4.333986e-01	-3.622755e-04	-1.532829e-01
3.597567e-01	-4.429052e-04	-2.534942e-01
1.458260e-01	-5.111857e-04	-2.867054e-01
4.159085e-02	-5.771509e-04	8.177092e-02
2.454915e-01	-6.224438e-04	1.729799e-01
3.479334e-01	-6.551137e-04	1.230559e-01
3.839676e-01	-6.708159e-04	8.776766e-02
4.040905e-01	-6.665201e-04	5.369535e-02
4.118329e-01	-6.386834e-04	3.264358e-02
4.106310e-01	-5.851909e-04	1.169950e-02
4.086732e-01	-5.073867e-04	-1.301797e-03
4.051976e-01	-4.090440e-04	-1.390677e-02
4.004974e-01	-2.972226e-04	-2.157118e-02
3.959318e-01	-1.796535e-04	-2.892331e-02
3.908319e-01	-6.405115e-05	-3.331083e-02
3.866028e-01	4.365896e-05	-3.777093e-02
3.817654e-01	1.399086e-04	-4.053668e-02
3.779024e-01	2.234155e-04	-4.367291e-02
3.727970e-01	2.946610e-04	-4.559562e-02
3.688546e-01	3.548947e-04	-4.784409e-02
3.638526e-01	4.049873e-04	-4.896935e-02
3.580314e-01	4.441270e-04	-4.975912e-02
3.504851e-01	4.666430e-04	-4.933742e-02
2.754349e-01	1.388206e-04	3.877269e-02
2.889438e-01	1.390869e-04	4.015734e-02
3.053832e-01	1.406184e-04	4.110022e-02
3.216237e-01	1.422208e-04	4.171777e-02
3.353834e-01	1.425917e-04	4.101967e-02
3.486748e-01	1.408903e-04	4.029518e-02
3.596671e-01	1.365937e-04	3.819023e-02
3.708213e-01	1.293419e-04	3.622908e-02
3.810429e-01	1.190162e-04	3.247651e-02
3.918941e-01	1.056791e-04	2.862835e-02
4.024672e-01	8.960672e-05	2.167727e-02
4.134186e-01	7.128280e-05	1.418893e-02
4.240554e-01	5.129001e-05	1.350796e-03
4.340558e-01	3.042655e-05	-1.236697e-02
4.452879e-01	9.330797e-06	-3.529529e-02
4.498748e-01	-1.113717e-05	-5.977914e-02
4.466484e-01	-3.063067e-05	-1.020953e-01
4.342067e-01	-4.838936e-05	-1.535687e-01
3.606535e-01	-6.474188e-05	-2.541262e-01
1.465045e-01	-7.877881e-05	-2.880396e-01
4.105973e-02	-9.213691e-05	8.072671e-02
2.450639e-01	-1.009799e-04	1.726786e-01
3.477209e-01	-1.071285e-04	1.229807e-01
3.839121e-01	-1.101578e-04	8.775496e-02
4.041428e-01	-1.100562e-04	5.370230e-02
4.119664e-01	-1.067038e-04	3.265416e-02
4.108286e-01	-1.000768e-04	1.170512e-02
4.089229e-01	-9.036948e-05	-1.302593e-03
4.054907e-01	-7.783438e-05	-1.391683e-02
4.008265e-01	-6.295813e-05	-2.158890e-02
3.962909e-01	-4.627904e-05	-2.894954e-02
3.912159e-01	-2.846095e-05	-3.334357e-02
3.870084e-01	-1.018301e-05	-3.781056e-02
3.821911e-01	7.905568e-06	-4.058189e-02
3.783496e-01	2.521105e-05	-4.372460e-02
3.732711e-01	4.123580e-05	-4.565360e-02
3.693659e-01	5.555698e-05	-4.791041e-02
3.644162e-01	6.771820e-05	-4.904520e-02
3.586630e-01	7.710347e-05	-4.984690e-02
3.511891e-01	8.256207e-05	-4.943652e-02
2.754250e-01	4.574711e-05	3.877129e-02
2.889237e-01	4.582157e-05	4.015454e-02
3.053688e-01	4.615291e-05	4.109827e-02
3.216242e-01	4.633389e-05	4.171784e-02
3.354007e-01	4.601435e-05	4.102179e-02
3.487081e-01	4.499055e-05	4.029903e-02
3.597156e-01	4.315562e-05	3.819539e-02
3.708845e-01	4.044391e-05	3.623525e-02
3.811202e-01	3.685164e-05	3.248310e-02
3.919852e-01	3.241566e-05	2.863500e-02
4.025720e-01	2.722299e-05	2.168292e-02
4.135373e-01	2.140716e-05	1.419300e-02
4.241882e-01	1.511911e-05	1.351219e-03
4.342036e-01	8.571380e-06	-1.237118e-02
4.454519e-01	1.930515e-06	-3.530829e-02
4.500581e-01	-4.552817e-06	-5.980349e-02
4.468550e-01	-1.077019e-05	-1.021425e-01
4.344455e-01	-1.646186e-05	-1.536531e-01
3.609184e-01	-2.170357e-05	-2.543128e-01
1.467030e-01	-2.617145e-05	-2.884298e-01
4.090844e-02	-3.034365e-05	8.042925e-02
2.449480e-01	-3.300468e-05	1.725969e-01
3.476689e-01	-3.472683e-05	1.229623e-01
3.839053e-01	-3.540226e-05	8.775343e-02
4.041664e-01	-3.504578e-05	5.370543e-02
4.120121e-01	-3.365669e-05	3.265779e-02
4.108913e-01	-3.125343e-05	1.170691e-02
4.089994e-01	-2.792109e-05	-1.302836e-03
4.055785e-01	-2.374727e-05	-1.391984e-02
4.009239e-01	-1.888300e-05	-2.159415e-02
3.963968e-01	-1.348227e-05	-2.895727e-02
3.913294e-01	-7.728745e-06	-3.335324e-02
3.871291e-01	-1.810926e-06	-3.782235e-02
3.823192e-01	4.085426e-06	-4.059549e-02
3.784858e-01	9.778531e-06	-4.374032e-02
3.734168e-01	1.509970e-05	-4.567143e-02
3.695242e-01	1.988515e-05	-4.793095e-02
3.645912e-01	2.396120e-05	-4.906876e-02
3.588589e-01	2.710242e-05	-4.987412e-02
3.514062e-01	2.891340e-05	-4.946708e-02
2.754224e-01	2.045933e-05	3.877092e-02
2.889186e-01	2.047532e-05	4.015385e-02
3.053671e-01	2.055303e-05	4.109804e-02
3.216287e-01	2.051921e-05	4.171843e-02
3.354120e-01	2.023803e-05	4.102318e-02
3.487257e-01	1.963059e-05	4.030105e-02
3.597388e-01	1.866562e-05	3.819785e-02
3.709129e-01	1.733117e-05	3.623804e-02
3.811538e-01	1.563603e-05	3.248597e-02
3.920240e-01	1.360022e-05	2.863783e-02
4.026159e-01	1.126171e-05	2.168528e-02
4.135864e-01	8.677314e-06	1.419468e-02
4.242428e-01	5.908617e-06	1.351393e-03
4.342640e-01	3.042778e-06	-1.237290e-02
4.455189e-01	1.468902e-07	-3.531360e-02
4.501328e-01	-2.673371e-06	-5.981342e-02
4.469390e-01	-5.371220e-06	-1.021617e-01
4.345423e-01	-7.831227e-06	-1.536874e-01
3.610250e-01	-1.008088e-05	-2.543879e-01
1.467816e-01	-1.197536e-05	-2.885843e-01
4.085038e-02	-1.370525e-05	8.031509e-02
2.449062e-01	-1.476307e-05	1.725675e-01
3.476529e-01	-1.538784e-05	1.229566e-01
3.839072e-01	-1.554250e-05	8.775386e-02
4.041801e-01	-1.523563e-05	5.370724e-02
4.120342e-01	-1.447773e-05	3.265954e-02
4.109199e-01	-1.328341e-05	1.170773e-02
4.090330e-01	-1.169799e-05	-1.302943e-03
4.056162e-01	-9.763716e-06	-1.392114e-02
4.009652e-01	-7.548565e-06	-2.159637e-02
3.964412e-01	-5.118182e-06	-2.896052e-02
3.913768e-01	-2.550427e-06	-3.335728e-02
3.871794e-01	7.834765e-08	-3.782726e-02
3.823724e-01	2.691504e-06	-4.060114e-02
3.785424e-01	5.211470e-06	-4.374687e-02
3.734774e-01	7.564219e-06	-4.567884e-02
3.695900e-01	9.676637e-06	-4.793947e-02
3.646636e-01	1.147065e-05	-4.907850e-02
3.589394e-01	1.284444e-05	-4.988532e-02
3.514947e-01	1.362752e-05	-4.947954e-02
2.754223e-01	1.099088e-05	3.877091e-02
2.889178e-01	1.098611e-05	4.015373e-02
3.053681e-01	1.099126e-05	4.109817e-02
3.216329e-01	1.091954e-05	4.171896e-02
3.354194e-01	1.070662e-05	4.102408e-02
3.487360e-01	1.031687e-05	4.030225e-02
3.597518e-01	9.737546e-06	3.819923e-02
3.709285e-01	8.965098e-06	3.623955e-02
3.811717e-01	8.010028e-06	3.248749e-02
3.920442e-01	6.886890e-06	2.863931e-02
4.026385e-01	5.616306e-06	2.168650e-02
4.136115e-01	4.227193e-06	1.419554e-02
4.242704e-01	2.750924e-06	1.351481e-03
4.342945e-01	1.232497e-06	-1.237377e-02
4.455525e-01	-2.937552e-07	-3.531626e-02
4.501701e-01	-1.772870e-06	-5.981838e-02
4.469809e-01	-3.180240e-06	-1.021713e-01
4.345902e-01	-4.454869e-06	-1.537043e-01
3.610771e-01	-5.609442e-06	-2.544247e-01
1.468194e-01	-6.568022e-06	-2.886587e-01
4.082334e-02	-7.421900e-06	8.026193e-02
2.448880e-01	-7.919712e-06	1.725547e-01
3.476474e-01	-8.180753e-06	1.229547e-01
3.839103e-01	-8.190408e-06	8.775457e-02
4.041888e-01	-7.953357e-06	5.370840e-02
4.120469e-01	-7.479620e-06	3.266055e-02
4.109355e-01	-6.779212e-06	1.170817e-02
4.090510e-01	-5.879285e-06	-1.303000e-03
4.056361e-01	-4.803883e-06	-1.392182e-02
4.009867e-01	-3.590359e-06	-2.159753e-02
3.964641e-01	-2.273199e-06	-2.896219e-02
3.914011e-01	-8.917050e-07	-3.335934e-02
3.872050e-01	5.148284e-07	-3.782976e-02
3.823995e-01	1.906519e-06	-4.060401e-02
3.785710e-01	3.242335e-06	-4.375018e-02
3.735080e-01	4.485697e-06	-4.568258e-02
3.696230e-01	5.597501e-06	-4.794376e-02
3.646998e-01	6.536493e-06	-4.908338e-02
3.589795e-01	7.250224e-06	-4.989088e-02
3.515383e-01	7.653021e-06	-4.948569e-02
2.754232e-01	6.623315e-06	3.877103e-02
2.889184e-01	6.610852e-06	4.015382e-02
3.053698e-01	6.591114e-06	4.109840e-02
3.216363e-01	6.516660e-06	4.171941e-02
3.354246e-01	6.353832e-06	4.102471e-02
3.487428e-01	6.084965e-06	4.030303e-02
3.597601e-01	5.705194e-06	3.820011e-02
3.709380e-01	5.214057e-06	3.624049e-02
3.811825e-01	4.618474e-06	3.248841e-02
3.920563e-01	3.928944e-06	2.864019e-02
4.026518e-01	3.159443e-06	2.168722e-02
4.136261e-01	2.327114e-06	1.419605e-02
4.242865e-01	1.449525e-06	1.351532e-03
4.343121e-01	5.524325e-07	-1.237427e-02
4.455718e-01	-3.443685e-07	-3.531779e-02
4.501914e-01	-1.208663e-06	-5.982121e-02
4.470045e-01	-2.025740e-06	-1.021767e-01
4.346170e-01	-2.759569e-06	-1.537138e-01
3.611060e-01	-3.416491e-06	-2.544450e-01
1.468400e-01	-3.952422e-06	-2.886991e-01
4.080928e-02	-4.415230e-06	8.023430e-02
2.448794e-01	-4.668413e-06	1.725486e-01
3.476459e-01	-4.777804e-06	1.229541e-01
3.839135e-01	-4.738183e-06	8.775528e-02
4.041949e-01	-4.552498e-06	5.370921e-02
4.120551e-01	-4.229356e-06	3.266120e-02
4.109453e-01	-3.775930e-06	1.170845e-02
4.090619e-01	-3.210022e-06	-1.303035e-03
4.056480e-01	-2.546564e-06	-1.392223e-02
4.009994e-01	-1.807722e-06	-2.159822e-02
3.964776e-01	-1.012961e-06	-2.896318e-02
3.914152e-01	-1.853251e-07	-3.336055e-02
3.872199e-01	6.516316e-07	-3.783122e-02
3.824151e-01	1.475109e-06	-4.060567e-02
3.785875e-01	2.262371e-06	-4.375208e-02
3.735255e-01	2.991928e-06	-4.568472e-02
3.696418e-01	3.640781e-06	-4.794620e-02
3.647203e-01	4.185192e-06	-4.908614e-02
3.590019e-01	4.595601e-06	-4.989400e-02
3.515627e-01	4.824982e-06	-4.948911e-02
2.754244e-01	4.094467e-06	3.877120e-02
2.889196e-01	4.099865e-06	4.015398e-02
3.053716e-01	4.122117e-06	4.109864e-02
3.216391e-01	4.143354e-06	4.171977e-02
3.354283e-01	4.148618e-06	4.102517e-02
3.487475e-01	4.126248e-06	4.030357e-02
3.597655e-01	4.060809e-06	3.820069e-02
3.709442e-01	3.928403e-06	3.624109e-02
3.811894e-01	3.702848e-06	3.248900e-02
3.920639e-01	3.366040e-06	2.864075e-02
4.026602e-01	2.919879e-06	2.168767e-02
4.136352e-01	2.389686e-06	1.419636e-02
4.242964e-01	1.814368e-06	1.351564e-03
4.343229e-01	1.236643e-06	-1.237458e-02
4.455835e-01	6.824914e-07	-3.531872e-02
4.502043e-01	1.706509e-07	-5.982292e-02
4.470187e-01	-2.989333e-07	-1.021799e-01
4.346329e-01	-7.140413e-07	-1.537194e-01
3.611230e-01	-1.082774e-06	-2.544570e-01
1.468517e-01	-1.381446e-06	-2.887221e-01
4.080169e-02	-1.635931e-06	8.021937e-02
2.448755e-01	-1.771087e-06	1.725458e-01
3.476460e-01	-1.823425e-06	1.229542e-01
3.839162e-01	-1.789460e-06	8.775591e-02
4.041993e-01	-1.666182e-06	5.370980e-02
4.120607e-01	-1.450871e-06	3.266164e-02
4.109517e-01	-1.139529e-06	1.170863e-02
4.090690e-01	-7.433488e-07	-1.303058e-03
4.056556e-01	-2.858210e-07	-1.392249e-02
4.010074e-01	1.921069e-07	-2.159865e-02
3.964860e-01	6.501130e-07	-2.896379e-02
3.914240e-01	1.059510e-06	-3.336130e-02
3.872290e-01	1.413775e-06	-3.783211e-02
3.824247e-01	1.724393e-06	-4.060669e-02
3.785976e-01	2.008478e-06	-4.375325e-02
3.735362e-01	2.277521e-06	-4.568602e-02
3.696532e-01	2.531137e-06	-4.794768e-02
3.647326e-01	2.757753e-06	-4.908780e-02
3.590153e-01	2.936855e-06	-4.989587e-02
3.515771e-01	3.039703e-06	-4.949113e-02
2.754223e-01	-3.332119e-04	3.877090e-02
2.889167e-01	-3.337992e-04	4.015358e-02
3.053683e-01	-3.356622e-04	4.109821e-02
3.216357e-01	-3.322250e-04	4.171933e-02
3.354250e-01	-3.217427e-04	4.102476e-02
3.487444e-01	-3.336933e-04	4.030321e-02
3.597632e-01	-2.806722e-04	3.820044e-02
3.709433e-01	-3.037471e-04	3.624100e-02
3.811903e-01	-2.173872e-04	3.248908e-02
3.920668e-01	-2.499919e-04	2.864096e-02
4.026650e-01	-1.314313e-04	2.168793e-02
4.136415e-01	-1.713415e-04	1.419657e-02
4.243033e-01	-2.807835e-05	1.351586e-03
4.343300e-01	-7.450240e-05	-1.237478e-02
4.455906e-01	8.735445e-05	-3.531928e-02
4.502114e-01	1.896018e-04	-5.982386e-02
4.470261e-01	2.370181e-04	-1.021816e-01
4.346411e-01	2.191828e-04	-1.537223e-01
3.611317e-01	2.104179e-04	-2.544631e-01
1.468578e-01	2.068719e-04	-2.887342e-01
4.079753e-02	2.067571e-04	8.021119e-02
2.448730e-01	2.101074e-04	1.725441e-01
3.476457e-01	2.186825e-04	1.229541e-01
3.839175e-01	2.363461e-04	8.775621e-02
4.042019e-01	1.887748e-04	5.371015e-02
4.120645e-01	8.639409e-05	3.266194e-02
4.109565e-01	-7.557159e-05	1.170877e-02
4.090744e-01	-2.922962e-05	-1.303075e-03
4.056610e-01	-1.725467e-04	-1.392268e-02
4.010121e-01	-1.326615e-04	-2.159890e-02
3.964893e-01	-2.512199e-04	-2.896403e-02
3.914258e-01	-2.185855e-04	-3.336145e-02
3.872295e-01	-3.048918e-04	-3.783216e-02
3.824244e-01	-2.817405e-04	-4.060666e-02
3.785972e-01	-3.346683e-04	-4.375320e-02
3.735362e-01	-3.226115e-04	-4.568602e-02
3.696540e-01	-3.329838e-04	-4.794777e-02
3.647342e-01	-3.363163e-04	-4.908801e-02
3.590177e-01	-3.343705e-04	-4.989619e-02
3.515800e-01	-3.337377e-04	-4.949155e-02
2.755235e-01	-2.957709e-08	3.878515e-02
2.890667e-01	-2.174796e-08	4.017442e-02
3.052851e-01	-1.494844e-08	4.108701e-02
3.212683e-01	-1.075971e-08	4.167167e-02
3.355003e-01	-7.943325e-09	4.103398e-02
3.479555e-01	-6.002695e-09	4.021205e-02
3.593551e-01	-4.601179e-09	3.815711e-02
3.699787e-01	-3.645733e-09	3.614676e-02
3.804796e-01	-3.015583e-09	3.242850e-02
3.908951e-01	-2.667584e-09	2.855537e-02
4.015846e-01	-2.535997e-09	2.162974e-02
4.122524e-01	-2.484195e-09	1.414890e-02
4.227933e-01	-2.342408e-09	1.346776e-03
4.326590e-01	-2.004387e-09	-1.232717e-02
4.408714e-01	-1.541087e-09	-3.494522e-02
4.470724e-01	-1.086859e-09	-5.940675e-02
4.461163e-01	-7.079200e-10	-1.019737e-01
4.354884e-01	-4.318070e-10	-1.540220e-01
3.616266e-01	-2.366357e-10	-2.548118e-01
1.469876e-01	-1.081768e-10	-2.889893e-01
4.092421e-02	-1.212735e-11	8.046026e-02
2.453646e-01	3.958079e-11	1.728905e-01
3.484905e-01	6.481146e-11	1.232529e-01
3.830059e-01	5.652388e-11	8.754784e-02
4.010616e-01	1.529144e-11	5.329286e-02
4.073444e-01	-1.443017e-11	3.228781e-02
4.092848e-01	5.168758e-11	1.166114e-02
4.075639e-01	4.373358e-10	-1.298264e-03
4.042717e-01	9.801268e-10	-1.387499e-02
3.999316e-01	1.502017e-09	-2.154070e-02
3.953177e-01	1.953309e-09	-2.887844e-02
3.907153e-01	2.437169e-09	-3.330089e-02
3.862654e-01	3.068573e-09	-3.773796e-02
3.820169e-01	3.914448e-09	-4.056339e-02
3.778091e-01	5.045933e-09	-4.366212e-02
3.736125e-01	6.614963e-09	-4.569536e-02
3.692878e-01	8.709650e-09	-4.790028e-02
3.646526e-01	1.159682e-08	-4.907703e-02
3.591697e-01	1.558397e-08	-4.991732e-02
3.516838e-01	1.980127e-08	-4.950617e-02
2.754209e-01	3.332343e-04	3.877072e-02
2.889160e-01	3.338173e-04	4.015348e-02
3.053680e-01	3.356759e-04	4.109816e-02
3.216355e-01	3.322356e-04	4.171931e-02
3.354249e-01	3.217510e-04	4.102475e-02
3.487443e-01	3.337000e-04	4.030321e-02
3.597632e-01	2.806776e-04	3.820044e-02
3.709432e-01	3.037512e-04	3.624099e-02
3.811903e-01	2.173900e-04	3.248907e-02
3.920668e-01	2.499933e-04	2.864096e-02
4.026650e-01	1.314313e-04	2.168793e-02
4.136415e-01	1.713404e-04	1.419657e-02
4.243033e-01	2.807663e-05	1.351586e-03
4.343300e-01	7.450054e-05	-1.237478e-02
4.455905e-01	-8.735621e-05	-3.531928e-02
4.502114e-01	-1.896034e-04	-5.982386e-02
4.470261e-01	-2.370195e-04	-1.021816e-01
4.346411e-01	-2.191841e-04	-1.537223e-01
3.611317e-01	-2.104190e-04	-2.544631e-01
1.468578e-01	-2.068730e-04	-2.887342e-01
4.079754e-02	-2.067581e-04	8.021120e-02
2.448730e-01	-2.101085e-04	1.725441e-01
3.476457e-01	-2.186836e-04	1.229541e-01
3.839175e-01	-2.363473e-04	8.775621e-02
4.042019e-01	-1.887761e-04	5.371015e-02
4.120645e-01	-8.639554e-05	3.266194e-02
4.109565e-01	7.556993e-05	1.170877e-02
4.090744e-01	2.922777e-05	-1.303075e-03
4.056610e-01	1.725448e-04	-1.392268e-02
4.010121e-01	1.326596e-04	-2.159890e-02
3.964893e-01	2.512177e-04	-2.896403e-02
3.914258e-01	2.185826e-04	-3.336145e-02
3.872295e-01	3.048881e-04	-3.783216e-02
3.824245e-01	2.817359e-04	-4.060666e-02
3.785972e-01	3.346627e-04	-4.375321e-02
3.735363e-01	3.226047e-04	-4.568603e-02
3.696541e-01	3.329756e-04	-4.794779e-02
3.647344e-01	3.363066e-04	-4.908804e-02
3.590181e-01	3.343591e-04	-4.989625e-02
3.515807e-01	3.337258e-04	-4.949165e-02
2.754251e-01	-4.026581e-06	3.877131e-02
2.889200e-01	-4.047030e-06	4.015404e-02
3.053718e-01	-4.083475e-06	4.109868e-02
3.216392e-01	-4.114103e-06	4.171979e-02
3.354284e-01	-4.125630e-06	4.102518e-02
3.487475e-01	-4.107677e-06	4.030358e-02
3.597656e-01	-4.045698e-06	3.820069e-02
3.709443e-01	-3.916243e-06	3.624110e-02
3.811895e-01	-3.693456e-06	3.248900e-02
3.920639e-01	-3.359173e-06	2.864075e-02
4.026602e-01	-2.914855e-06	2.168767e-02
4.136352e-01	-2.385634e-06	1.419636e-02
4.242964e-01	-1.810784e-06	1.351564e-03
4.343229e-01	-1.233480e-06	-1.237458e-02
4.455835e-01	-6.798601e-07	-3.531872e-02
4.502043e-01	-1.686240e-07	-5.982292e-02
4.470187e-01	3.003250e-07	-1.021799e-01
4.346329e-01	7.148064e-07	-1.537194e-01
3.611230e-01	1.082902e-06	-2.544570e-01
1.468517e-01	1.380951e-06	-2.887221e-01
4.080169e-02	1.634726e-06	8.021937e-02
2.448755e-01	1.769286e-06	1.725458e-01
3.476460e-01	1.821052e-06	1.229542e-01
3.839162e-01	1.786581e-06	8.775591e-02
4.041993e-01	1.662843e-06	5.370980e-02
4.120607e-01	1.447064e-06	3.266164e-02
4.109517e-01	1.135120e-06	1.170863e-02
4.090690e-01	7.379498e-07	-1.303058e-03
4.056556e-01	2.792737e-07	-1.392249e-02
4.010074e-01	-1.995950e-07	-2.159865e-02
3.964860e-01	-6.583056e-07	-2.896379e-02
3.914240e-01	-1.068817e-06	-3.336130e-02
3.872290e-01	-1.424828e-06	-3.783211e-02
3.824247e-01	-1.737626e-06	-4.060669e-02
3.785975e-01	-2.024330e-06	-4.375324e-02
3.735361e-01	-2.296593e-06	-4.568602e-02
3.696531e-01	-2.554352e-06	-4.794767e-02
3.647325e-01	-2.786393e-06	-4.908778e-02
3.590152e-01	-2.972084e-06	-4.989585e-02
3.515770e-01	-3.079600e-06	-4.949112e-02
2.754244e-01	-6.575116e-06	3.877120e-02
2.889192e-01	-6.571421e-06	4.015392e-02
3.053702e-01	-6.561141e-06	4.109846e-02
3.216365e-01	-6.492807e-06	4.171944e-02
3.354247e-01	-6.333798e-06	4.102473e-02
3.487429e-01	-6.067577e-06	4.030304e-02
3.597601e-01	-5.690071e-06	3.820012e-02
3.709381e-01	-5.201202e-06	3.624049e-02
3.811826e-01	-4.607803e-06	3.248842e-02
3.920563e-01	-3.919483e-06	2.864019e-02
4.026519e-01	-3.149931e-06	2.168722e-02
4.136261e-01	-2.317095e-06	1.419605e-02
4.242865e-01	-1.439343e-06	1.351532e-03
4.343121e-01	-5.426670e-07	-1.237427e-02
4.455718e-01	3.532413e-07	-3.531779e-02
4.501914e-01	1.216331e-06	-5.982121e-02
4.470045e-01	2.031987e-06	-1.021767e-01
4.346170e-01	2.764277e-06	-1.537138e-01
3.611061e-01	3.419530e-06	-2.544450e-01