# vtk DataFile Version 2.0
OUTPUT by 3D-VPM
ASCII
DATASET UNSTRUCTURED_GRID
POINTS 4280 double
2.088648e+02	3.942145e+00	-6.403802e+00
2.097915e+02	1.844510e+00	-3.186312e+00
2.104978e+02	6.812361e-01	-3.660570e+00
2.083297e+02	1.293471e+00	-4.688255e+00
2.122242e+02	4.766681e+00	-4.755181e+00
2.115515e+02	6.033381e+00	-4.543071e+00
2.120105e+02	7.107209e+00	-4.932721e+00
2.125051e+02	8.013341e+00	-4.466729e+00
2.127468e+02	8.645610e+00	-3.743966e+00
2.121423e+02	9.633789e+00	-4.156624e+00
2.120120e+02	1.040258e+01	-4.232675e+00
2.127208e+02	1.139779e+01	-3.877973e+00
2.125825e+02	1.207093e+01	-4.425775e+00
2.120189e+02	1.299391e+01	-5.015212e+00
2.115580e+02	1.437936e+01	-4.730210e+00
2.117399e+02	1.518775e+01	-4.243274e+00
2.114045e+02	1.850726e+01	-4.707387e+00
2.116743e+02	1.744918e+01	-6.615426e+00
2.104853e+02	1.916893e+01	-4.565021e+00
2.118076e+02	1.876524e+01	-6.271699e+00
2.106188e+02	1.517476e+00	-6.187396e+00
2.115848e+02	2.469820e+00	-5.575348e+00
2.098426e+02	2.079017e+00	-5.902626e+00
2.102778e+02	3.896773e+00	-5.065103e+00
2.110708e+02	4.884967e+00	-3.877023e+00
2.112346e+02	5.762771e+00	-5.587572e+00
2.133543e+02	5.523394e+00	-3.370561e+00
2.121204e+02	7.490449e+00	-2.870150e+00
2.117017e+02	8.541582e+00	-3.519713e+00
2.127749e+02	9.370761e+00	-2.409556e+00
2.127514e+02	1.072824e+01	-2.441488e+00
2.116382e+02	1.159553e+01	-3.571458e+00
2.119308e+02	1.255365e+01	-3.084502e+00
2.132632e+02	1.461916e+01	-3.112128e+00
2.111668e+02	1.464385e+01	-5.781492e+00
2.100373e+02	1.677489e+01	-3.572796e+00
2.107383e+02	1.665770e+01	-2.746009e+00
2.092457e+02	1.613882e+01	-3.605255e+00
2.092480e+02	1.676069e+01	-5.368920e+00
2.120234e+02	1.861823e+01	-5.270718e+00
2.096651e+02	3.232293e+00	-4.959239e+00
2.095331e+02	1.424520e+00	-3.746701e+00
2.106476e+02	8.995967e-01	-4.247785e+00
2.100865e+02	1.084969e+00	-2.713047e+00
2.129299e+02	3.806143e+00	-3.874156e+00
2.125773e+02	5.185257e+00	-2.673246e+00
2.135339e+02	5.463381e+00	-2.714635e+00
2.141585e+02	7.295502e+00	-3.122920e+00
2.138279e+02	8.335865e+00	-2.285985e+00
2.143790e+02	9.384802e+00	-2.615651e+00
2.143478e+02	1.068585e+01	-2.613489e+00
2.137745e+02	1.172315e+01	-2.306318e+00
2.140272e+02	1.280303e+01	-3.031193e+00
2.127295e+02	1.446585e+01	-2.827275e+00
2.122243e+02	1.488638e+01	-2.662423e+00
2.119936e+02	1.604486e+01	-2.887449e+00
2.080482e+02	1.629270e+01	-4.944138e+00
2.096864e+02	1.991657e+01	-6.419274e+00
2.120862e+02	1.938764e+01	-5.550033e+00
2.093810e+02	1.758990e+01	-6.078993e+00
2.079425e+02	3.591589e-02	-5.932646e+00
2.090525e+02	1.016213e-01	-4.296285e+00
2.092468e+02	2.272609e+00	-7.382775e+00
2.108527e+02	2.103255e+00	-2.979466e+00
2.113727e+02	3.734882e+00	-6.053067e+00
2.110107e+02	4.759249e+00	-4.612084e+00
2.118250e+02	6.264669e+00	-2.994221e+00
2.116303e+02	7.187403e+00	-3.266509e+00
2.122779e+02	8.157216e+00	-1.714343e+00
2.120930e+02	9.630596e+00	-2.302527e+00
2.120831e+02	1.040129e+01	-2.344771e+00
2.122343e+02	1.182001e+01	-1.740704e+00
2.114508e+02	1.293040e+01	-3.308500e+00
2.115590e+02	1.368193e+01	-3.441185e+00
2.103859e+02	1.512247e+01	-4.009910e+00
2.107455e+02	1.638955e+01	-4.327166e+00
2.114042e+02	1.843035e+01	-2.573628e+00
2.085906e+02	1.740813e+01	-6.066389e+00
2.100130e+02	1.791267e+01	-4.308841e+00
2.115376e+02	1.848401e+01	-3.215270e+00
2.065794e+02	5.345603e-01	-4.561324e+00
2.069110e+02	2.445669e+00	-3.987793e+00
2.073327e+02	3.259251e+00	-4.938959e+00
2.072973e+02	1.358919e+00	-4.891848e+00
2.123143e+02	1.484547e+00	-6.141496e+00
2.131779e+02	3.624831e+00	-6.676858e+00
2.136439e+02	5.330213e+00	-6.704363e+00
2.139245e+02	6.820914e+00	-6.571665e+00
2.141015e+02	8.139249e+00	-6.430342e+00
2.141763e+02	9.400989e+00	-6.366347e+00
2.141758e+02	1.065129e+01	-6.357327e+00
2.141002e+02	1.192168e+01	-6.399034e+00
2.139186e+02	1.324769e+01	-6.502127e+00
2.136354e+02	1.471947e+01	-6.589733e+00
2.132125e+02	1.636245e+01	-6.564208e+00
2.125100e+02	1.860821e+01	-6.337289e+00
2.091503e+02	1.853405e+01	-3.282189e+00
2.072915e+02	1.708590e+01	-4.459302e+00
2.070591e+02	1.779076e+01	-3.680384e+00
2.075087e+02	1.969764e+01	-5.101700e+00
2.062082e+02	2.106138e-02	-4.855543e+00
2.058400e+02	-7.455843e-02	-6.000112e+00
2.065428e+02	3.055003e+00	-3.513519e+00
2.083262e+02	1.301294e+00	-3.142435e+00
2.102148e+02	4.412152e-01	-7.404008e+00
2.105185e+02	3.469615e+00	-8.504947e+00
2.107594e+02	5.380895e+00	-8.513473e+00
2.109448e+02	6.890845e+00	-8.408005e+00
2.110672e+02	8.205136e+00	-8.301497e+00
2.111279e+02	9.425880e+00	-8.239709e+00
2.111294e+02	1.062081e+01	-8.238650e+00
2.110719e+02	1.184914e+01	-8.296306e+00
2.109516e+02	1.317751e+01	-8.391972e+00
2.107574e+02	1.470928e+01	-8.474390e+00
2.104654e+02	1.666013e+01	-8.371110e+00
2.101093e+02	1.946064e+01	-7.167899e+00
2.084018e+02	1.916683e+01	-3.195441e+00
2.066003e+02	1.706956e+01	-3.385785e+00
2.061558e+02	2.033533e+01	-5.835643e+00
2.060478e+02	1.904576e+01	-5.486685e+00
2.061233e+02	-6.192217e-01	-4.205081e+00
2.060007e+02	2.364528e+00	-2.913767e+00
2.052591e+02	1.005358e+00	-4.322014e+00
2.080411e+02	-4.772058e-01	-3.261717e+00
2.084473e+02	5.417675e-02	-7.878603e+00
2.083565e+02	3.267879e+00	-8.954304e+00
2.085194e+02	5.304886e+00	-8.928652e+00
2.086619e+02	6.850280e+00	-8.807228e+00
2.087605e+02	8.183256e+00	-8.704149e+00
2.088113e+02	9.419022e+00	-8.647398e+00
2.088127e+02	1.062857e+01	-8.646085e+00
2.087655e+02	1.187231e+01	-8.698322e+00
2.086727e+02	1.322346e+01	-8.789126e+00
2.085437e+02	1.480108e+01	-8.873231e+00
2.084270e+02	1.684507e+01	-8.790706e+00
2.085117e+02	1.984507e+01	-7.692762e+00
2.078622e+02	2.040284e+01	-3.275760e+00
2.058581e+02	1.818589e+01	-4.527582e+00
2.059517e+02	1.743833e+01	-3.263873e+00
2.061237e+02	2.000802e+01	-4.331796e+00
2.047901e+02	-8.281919e-01	-4.373311e+00
2.051556e+02	1.574708e+00	-3.408234e+00
2.044352e+02	1.025159e+00	-4.583209e+00
2.068756e+02	-1.241339e+00	-3.211108e+00
2.068119e+02	-4.683880e-02	-8.102856e+00
2.066639e+02	3.102464e+00	-8.960216e+00
2.067808e+02	5.185915e+00	-8.947068e+00
2.068993e+02	6.775577e+00	-8.826283e+00
2.069825e+02	8.140375e+00	-8.723674e+00
2.070259e+02	9.403863e+00	-8.668010e+00
2.070289e+02	1.063990e+01	-8.666542e+00
2.069927e+02	1.190964e+01	-8.717690e+00
2.069223e+02	1.328730e+01	-8.809629e+00
2.068311e+02	1.489218e+01	-8.904350e+00
2.067659e+02	1.695921e+01	-8.866139e+00
2.069204e+02	1.997388e+01	-7.985298e+00
2.068105e+02	2.114326e+01	-3.218640e+00
2.044948e+02	1.887799e+01	-4.561892e+00
2.053457e+02	1.829042e+01	-3.566795e+00
2.051432e+02	2.084439e+01	-4.349887e+00
2.040862e+02	-3.168723e-01	-3.286102e+00
2.038159e+02	2.046152e+00	-3.961351e+00
2.037163e+02	9.670971e-01	-4.184103e+00
2.058327e+02	-1.499793e+00	-2.965579e+00
2.053474e+02	-1.424565e-01	-8.039208e+00
2.052466e+02	2.962376e+00	-8.827903e+00
2.053393e+02	5.070070e+00	-8.831931e+00
2.054362e+02	6.697018e+00	-8.717537e+00
2.055058e+02	8.094420e+00	-8.616027e+00
2.055427e+02	9.386822e+00	-8.560587e+00
2.055465e+02	1.065001e+01	-8.559432e+00
2.055186e+02	1.194603e+01	-8.611526e+00
2.054630e+02	1.334958e+01	-8.706100e+00
2.053903e+02	1.497934e+01	-8.806464e+00
2.053328e+02	1.706647e+01	-8.780975e+00
2.054428e+02	2.009184e+01	-7.988182e+00
2.057803e+02	2.125456e+01	-2.942434e+00
2.037486e+02	1.892203e+01	-4.131648e+00
2.038326e+02	1.788957e+01	-3.942879e+00
2.041919e+02	2.045426e+01	-3.542166e+00
2.032106e+02	-4.450949e-01	-3.460961e+00
2.032475e+02	1.693901e+00	-3.831571e+00
2.029591e+02	5.998788e-01	-4.301541e+00
2.048073e+02	-2.109780e+00	-2.725469e+00
2.040514e+02	-2.596404e-01	-7.839522e+00
2.039957e+02	2.835598e+00	-8.648372e+00
2.040745e+02	4.967074e+00	-8.673878e+00
2.041534e+02	6.625596e+00	-8.566058e+00
2.042098e+02	8.052112e+00	-8.464732e+00
2.042405e+02	9.370712e+00	-8.408955e+00
2.042444e+02	1.065869e+01	-8.408104e+00
2.042222e+02	1.197900e+01	-8.461302e+00
2.041769e+02	1.340708e+01	-8.557360e+00
2.041154e+02	1.506243e+01	-8.657751e+00
2.040580e+02	1.717549e+01	-8.623791e+00
2.041168e+02	2.022377e+01	-7.820165e+00
2.048525e+02	2.197442e+01	-2.721994e+00
2.029504e+02	1.941946e+01	-4.315586e+00
2.032306e+02	1.831976e+01	-3.870841e+00
2.033947e+02	2.019482e+01	-3.516770e+00
2.026159e+02	-7.381788e-01	-2.680909e+00
2.025074e+02	1.856276e+00	-3.080082e+00
2.021183e+02	2.878824e-01	-4.113697e+00
2.035646e+02	-2.433465e+00	-2.439489e+00
2.028822e+02	-3.697728e-01	-7.595304e+00
2.028507e+02	2.723604e+00	-8.457830e+00
2.029148e+02	4.880010e+00	-8.498896e+00
2.029785e+02	6.564744e+00	-8.396783e+00
2.030263e+02	8.015327e+00	-8.302224e+00
2.030513e+02	9.356623e+00	-8.246571e+00
2.030547e+02	1.066610e+01	-8.245866e+00
2.030370e+02	1.200770e+01	-8.299814e+00
2.030001e+02	1.345803e+01	-8.397002e+00
2.029480e+02	1.513803e+01	-8.494568e+00
2.028944e+02	1.727907e+01	-8.443819e+00
2.029248e+02	2.034316e+01	-7.586835e+00
2.035994e+02	2.241753e+01	-2.470103e+00
2.021463e+02	1.974215e+01	-4.122470e+00
2.024988e+02	1.814725e+01	-3.126504e+00
2.028436e+02	2.063824e+01	-2.728658e+00
2.016077e+02	-4.289487e-01	-2.692750e+00
2.015758e+02	1.716532e+00	-3.523495e+00
2.015293e+02	7.781911e-02	-3.865942e+00
2.023949e+02	-2.478248e+00	-2.120993e+00
2.017948e+02	-4.629059e-01	-7.352003e+00
2.017738e+02	2.629795e+00	-8.274393e+00
2.018256e+02	4.808609e+00	-8.333579e+00
2.018761e+02	6.514528e+00	-8.235123e+00
2.019143e+02	7.984763e+00	-8.142657e+00
2.019343e+02	9.344889e+00	-8.087493e+00
2.019372e+02	1.067220e+01	-8.086920e+00
2.019231e+02	1.203159e+01	-8.141544e+00
2.018937e+02	1.350101e+01	-8.240491e+00
2.018511e+02	1.520303e+01	-8.335194e+00
2.018050e+02	1.736972e+01	-8.266383e+00
2.018239e+02	2.044185e+01	-7.347245e+00
2.023908e+02	2.247083e+01	-2.131833e+00
2.015590e+02	1.988922e+01	-3.879020e+00
2.015972e+02	1.824142e+01	-3.539225e+00
2.017904e+02	2.053667e+01	-2.663380e+00
2.007970e+02	1.473436e-01	-2.373299e+00
2.003583e+02	-7.204746e-01	-3.446435e+00
2.002967e+02	1.462592e+00	-4.424645e+00
2.012527e+02	-2.473523e+00	-1.859710e+00
2.007564e+02	-5.370702e-01	-7.125173e+00
2.007397e+02	2.554368e+00	-8.105580e+00
2.007813e+02	4.751084e+00	-8.186469e+00
[...]
CELL_DATA 4047
SCALARS Mu double 1
LOOKUP_TABLE default
-0.388429
-0.434839
-0.445113
-0.448285
-0.449531
-0.450112
-0.450415
-0.45058
-0.450664
-0.450691
-0.450664
-0.45058
-0.450415
-0.450112
-0.449531
-0.448285
-0.445113
-0.434839
-0.388429
-0.510131
-0.594683
-0.616974
-0.624665
-0.627855
-0.629376
-0.630171
-0.630603
-0.630824
-0.630893
-0.630827
-0.630608
-0.630178
-0.629383
-0.627864
-0.624669
-0.616953
-0.594531
-0.509768
-0.565402
-0.676259
-0.708906
-0.721304
-0.726769
-0.729481
-0.73093
-0.731726
-0.732133
-0.732261
-0.732142
-0.731746
-0.730963
-0.729527
-0.726831
-0.721339
-0.708845
-0.676044
-0.567553
-0.5965
-0.724128
-0.764294
-0.780705
-0.788374
-0.792329
-0.794491
-0.79569
-0.796305
-0.796497
-0.796315
-0.795713
-0.794527
-0.792381
-0.788441
-0.780711
-0.764093
-0.72369
-0.599882
-0.616157
-0.754595
-0.800147
-0.819703
-0.829262
-0.834366
-0.837218
-0.838823
-0.839649
-0.839907
-0.839656
-0.838838
-0.837242
-0.834395
-0.829287
-0.81961
-0.799729
-0.753863
-0.620006
-0.629462
-0.77515
-0.824573
-0.846525
-0.857613
-0.863703
-0.867176
-0.869157
-0.870184
-0.870502
-0.870184
-0.869157
-0.867173
-0.863686
-0.85756
-0.846289
-0.823906
-0.774108
-0.633433
-0.63891
-0.789621
-0.841854
-0.865629
-0.87793
-0.884838
-0.888843
-0.891155
-0.892362
-0.892735
-0.892353
-0.891135
-0.888804
-0.884767
-0.877784
-0.865235
-0.840944
-0.78829
-0.642855
-0.645861
-0.800146
-0.854446
-0.879611
-0.892871
-0.900442
-0.904899
-0.907495
-0.908859
-0.909278
-0.908838
-0.907451
-0.904819
-0.900312
-0.892624
-0.879062
-0.853314
-0.798557
-0.649722
-0.651118
-0.808004
-0.863847
-0.890074
-0.904089
-0.912208
-0.917035
-0.91987
-0.921366
-0.921824
-0.921333
-0.919799
-0.916913
-0.912002
-0.903739
-0.889378
-0.86252
-0.80619
-0.654877
-0.655184
-0.813999
-0.871014
-0.898055
-0.91267
-0.921219
-0.926358
-0.929393
-0.931
-0.93149
-0.930954
-0.929291
-0.926181
-0.920941
-0.912171
-0.897221
-0.869514
-0.811993
-0.658841
-0.658388
-0.818659
-0.87657
-0.904239
-0.919324
-0.928202
-0.933353
-0.936781
-0.938511
-0.939032
-0.938454
-0.936687
-0.933422
-0.927882
-0.918774
-0.903285
-0.874921
-0.816489
-0.661948
-0.660949
-0.822338
-0.88094
-0.909098
-0.924554
-0.933726
-0.939242
-0.942613
-0.944431
-0.944972
-0.944365
-0.94251
-0.939127
-0.933362
-0.923934
-0.908042
-0.879166
-0.820031
-0.664423
-0.663021
-0.825283
-0.884419
-0.91296
-0.928706
-0.938104
-0.943837
-0.947298
-0.94915
-0.949712
-0.94908
-0.947156
-0.943615
-0.937678
-0.92802
-0.911817
-0.882541
-0.82286
-0.666419
-0.664715
-0.827667
-0.887216
-0.916056
-0.932031
-0.941591
-0.947475
-0.951026
-0.95292
-0.953498
-0.952849
-0.950851
-0.947181
-0.941111
-0.931284
-0.91484
-0.885252
-0.825147
-0.668047
-0.666097
-0.829594
-0.889464
-0.918544
-0.934709
-0.944423
-0.950403
-0.954048
-0.955985
-0.956559
-0.955888
-0.953846
-0.950085
-0.943903
-0.933924
-0.917287
-0.887452
-0.827017
-0.669388
-0.667253
-0.831199
-0.891318
-0.920587
-0.936901
-0.946741
-0.952803
-0.956494
-0.958367
-0.959029
-0.958341
-0.955882
-0.952377
-0.946158
-0.93607
-0.919281
-0.889251
-0.828559
-0.670503
-0.668225
-0.832528
-0.892849
-0.922268
-0.938724
-0.948632
-0.95476
-0.958469
-0.960483
-0.961076
-0.960326
-0.958144
-0.954299
-0.947591
-0.937793
-0.920911
-0.890737
-0.829835
-0.671435
-0.669047
-0.833641
-0.894119
-0.923653
-0.940183
-0.950182
-0.956367
-0.960143
-0.962458
-0.963208
-0.962042
-0.959854
-0.955938
-0.949468
-0.93926
-0.922276
-0.89198
-0.830914
-0.672233
-0.669767
-0.834672
-0.895229
-0.924909
-0.941505
-0.951463
-0.957689
-0.96148
-0.963593
-0.96431
-0.963546
-0.961351
-0.957315
-0.950829
-0.940496
-0.923416
-0.893019
-0.831825
-0.672916
-0.670312
-0.835344
-0.896019
-0.925722
-0.942395
-0.952498
-0.958791
-0.962623
-0.964705
-0.965348
-0.964681
-0.962445
-0.958452
-0.951955
-0.941544
-0.924384
-0.893894
-0.832588
-0.673485
-0.670778
-0.835965
-0.896752
-0.926487
-0.943239
-0.953408
-0.959746
-0.963602
-0.965689
-0.966309
-0.965575
-0.963436
-0.959372
-0.952866
-0.942406
-0.9252
-0.894666
-0.833238
-0.673966
-0.671201
-0.836527
-0.897403
-0.927221
-0.943991
-0.954198
-0.960565
-0.964442
-0.966536
-0.96716
-0.966427
-0.964225
-0.960186
-0.953631
-0.94313
-0.925872
-0.895265
-0.833767
-0.674364
-0.671574
-0.837024
-0.897976
-0.927847
-0.944655
-0.954893
-0.961277
-0.965168
-0.967284
-0.96792
-0.96719
-0.964957
-0.96089
-0.954257
-0.943745
-0.926479
-0.895817
-0.834246
-0.674719
-0.671901
-0.837465
-0.898476
-0.928371
-0.945229
-0.955506
-0.961918
-0.965836
-0.967943
-0.9686
-0.967847
-0.965649
-0.961531
-0.954898
-0.944353
-0.927025
-0.896261
-0.834667
-0.67503
-0.672181
-0.837848
-0.89886
-0.928876
-0.945762
-0.956053
-0.96248
-0.966416
-0.968528
-0.96916
-0.968423
-0.96618
-0.96197
-0.955345
-0.944872
-0.92751
-0.896732
-0.835035
-0.675302
-0.672432
-0.838191
-0.899304
-0.929302
-0.946225
-0.956537
-0.962983
-0.966931
-0.969046
-0.969698
-0.968958
-0.966693
-0.962563
-0.955913
-0.945337
-0.927944
-0.897097
-0.835372
-0.675543
-0.67265
-0.838473
-0.899433
-0.929681
-0.946642
-0.956974
-0.963416
-0.967382
-0.969528
-0.970182
-0.969434
-0.967162
-0.963034
-0.95637
-0.945756
-0.928334
-0.897476
-0.835673
-0.675758
-0.672843
-0.838734
-0.899801
-0.930017
-0.94701
-0.957366
-0.963823
-0.96782
-0.969982
-0.970669
-0.969866
-0.967549
-0.963444
-0.956781
-0.946143
-0.928686
-0.89776
-0.835933
-0.675947
-0.673019
-0.838981
-0.900132
-0.930327
-0.947327
-0.957681
-0.964209
-0.968202
-0.970361
-0.971052
-0.970207
-0.967921
-0.963822
-0.957088
-0.946483
-0.928995
-0.898061
-0.836171
-0.676117
-0.673184
-0.839214
-0.900475
-0.930633
-0.947652
-0.958038
-0.964544
-0.968532
-0.9707
-0.971412
-0.970585
-0.968296
-0.964105
-0.957431
-0.946776
-0.929278
-0.898315
-0.836391
-0.676271
-0.673336
-0.839438
-0.900733
-0.930907
-0.947952
-0.958539
-0.96489
-0.96909
-0.971099
-0.971747
-0.971032
-0.968664
-0.964525
-0.957764
-0.947021
-0.929528
-0.898543
-0.836589
-0.676412
-0.673093
-0.832934
-0.900547
-0.931022
-0.948003
-0.95862
-0.965148
-0.969415
-0.971412
-0.972045
-0.971313
-0.969027
-0.965407
-0.958068
-0.947317
-0.929762
-0.898751
-0.83677
-0.676538
-0.673109
-0.838233
-0.900522
-0.931105
-0.948293
-0.958806
-0.965382
-0.969683
-0.971677
-0.972301
-0.971567
-0.969306
-0.965783
-0.95836
-0.947568
-0.929975
-0.898935
-0.83693
-0.676652
-0.673397
-0.839334
-0.900867
-0.931315
-0.948502
-0.959012
-0.965615
-0.970051
-0.972024
-0.97254
-0.971793
-0.969506
-0.96541
-0.958569
-0.947775
-0.930156
-0.899072
-0.83707
-0.676757
-0.673604
-0.839754
-0.901216
-0.931532
-0.948696
-0.959212
-0.965862
-0.970156
-0.972154
-0.972747
-0.971998
-0.969691
-0.965496
-0.958798
-0.947957
-0.930312
-0.899211
-0.837196
-0.676852
-0.673756
-0.839992
-0.901407
-0.931681
-0.948861
-0.959426
-0.966021
-0.970411
-0.972329
-0.972929
-0.972154
-0.969843
-0.965629
-0.958887
-0.948089
-0.930449
-0.899337
-0.83731
-0.676936
-0.673875
-0.840163
-0.901591
-0.931873
-0.949026
-0.959545
-0.966179
-0.970492
-0.972491
-0.973094
-0.972311
-0.970005
-0.965796
-0.959061
-0.948218
-0.930574
-0.899452
-0.83741
-0.677013
-0.673972
-0.840299
-0.90173
-0.932019
-0.949157
-0.959648
-0.966291
-0.970629
-0.972706
-0.973241
-0.972472
-0.970159
-0.965913
-0.959131
-0.948335
-0.93073
-0.899558
-0.837505
-0.677083
-0.674055
-0.840414
-0.901851
-0.932148
-0.949367
-0.959803
-0.966422
-0.970753
-0.972774
-0.973387
-0.972691
-0.970305
-0.966032
-0.95925
-0.948466
-0.930802
-0.899682
-0.837596
-0.677151
-0.67413
-0.840515
-0.901958
-0.932259
-0.94945
-0.959925
-0.966547
-0.97095
-0.972724
-0.973462
-0.972732
-0.970365
-0.96615
-0.959404
-0.948576
-0.930894
-0.899772
-0.837678
-0.677212
-0.674198
-0.840603
-0.90205
-0.932345
-0.94942
-0.960026
-0.966664
-0.970992
-0.972961
-0.973695
-0.972848
-0.970146
-0.966318
-0.959473
-0.948614
-0.930956
-0.899821
-0.837742
-0.677265
-0.674258
-0.84068
-0.902131
-0.932425
-0.949485
-0.960115
-0.966749
-0.971085
-0.973081
-0.973718
-0.972906
-0.970484
-0.966326
-0.959536
-0.948734
-0.93109
-0.899936
-0.83783
-0.677332
-0.67431
-0.84075
-0.902206
-0.932504
-0.949582
-0.96021
-0.967018
-0.971233
-0.973196
-0.973804
-0.973005
-0.970645
-0.966413
-0.959631
-0.948933
-0.93116
-0.900019
-0.837902
-0.677385
-0.674361
-0.840818
-0.902278
-0.932589
-0.949749
-0.960329
-0.966975
-0.971287
-0.973286
-0.973891
-0.973088
-0.970748
-0.966503
-0.959712
-0.948919
-0.931231
-0.90009
-0.837968
-0.677434
-0.674408
-0.84088
-0.902346
-0.932665
-0.949841
-0.960414
-0.967024
-0.97135
-0.973367
-0.974031
-0.97314
-0.970837
-0.966663
-0.959791
-0.948975
-0.931295
-0.900155
-0.838031
-0.67748
-0.67445
-0.840931
-0.902395
-0.932701
-0.949911
-0.960555
-0.967096
-0.971419
-0.973434
-0.974045
-0.973248
-0.970958
-0.966758
-0.959867
-0.949038
-0.931354
-0.900214
-0.838086
-0.677522
-0.674494
-0.840983
-0.902448
-0.932754
-0.949967
-0.960535
-0.967169
-0.971481
-0.973485
-0.974101
-0.973326
-0.971033
-0.966759
-0.959927
-0.949097
-0.931411
-0.900268
-0.838137
-0.677563
-0.674532
-0.841035
-0.902512
-0.932835
-0.950032
-0.96057
-0.96722
-0.971574
-0.973597
-0.974172
-0.973392
-0.971098
-0.966815
-0.959977
-0.949151
-0.931465
-0.90032
-0.838186
-0.677601
-0.674563
-0.841077
-0.902561
-0.932881
-0.949981
-0.960609
-0.967262
-0.971636
-0.973667
-0.974236
-0.973453
-0.971158
-0.966875
-0.960066
-0.949221
-0.931526
-0.90037
-0.838231
-0.677636
-0.674597
-0.841121
-0.902607
-0.932929
-0.950109
-0.960653
-0.967309
-0.971687
-0.973721
-0.974284
-0.973456
-0.97113
-0.966912
-0.960116
-0.949275
-0.931577
-0.900417
-0.838273
-0.677668
-0.674628
-0.841162
-0.90265
-0.932977
-0.95017
-0.960703
-0.967357
-0.971735
-0.973766
-0.974328
-0.973492
-0.971168
-0.967092
-0.960134
-0.949308
-0.931614
-0.900459
-0.838313
-0.677699
-0.674656
-0.8412
-0.902692
-0.933023
-0.950252
-0.960752
-0.967403
-0.971781
-0.973811
-0.974371
-0.973531
-0.971212
-0.967153
-0.960184
-0.949349
-0.931655
-0.900498
-0.83835
-0.677728
-0.674684
-0.841236
-0.902732
-0.933066
-0.950302
-0.960796
-0.967442
-0.971794
-0.973849
-0.974408
-0.973574
-0.971267
-0.967281
-0.960261
-0.949395
-0.931694
-0.900536
-0.838385
-0.677755
-0.67471
-0.84127
-0.90277
-0.933108
-0.950345
-0.960838
-0.967482
-0.971834
-0.973904
-0.974506
-0.973629
-0.97135
-0.967322
-0.960292
-0.949434
-0.931732
-0.900572
-0.838419
-0.677781
-0.674735
-0.841302
-0.902806
-0.933151
-0.950391
-0.960933
-0.967553
-0.971876
-0.973897
-0.974498
-0.973663
-0.97135
-0.967205
-0.960267
-0.949464
-0.931766
-0.900606
-0.83845
-0.677805
-0.674759
-0.841335
-0.902839
-0.933187
-0.950428
-0.960939
-0.967594
-0.971912
-0.973932
-0.974602
-0.973733
-0.971418
-0.967176
-0.960304
-0.949493
-0.931798
-0.900637
-0.838479
-0.677828
-0.674781
-0.841364
-0.90287
-0.933216
-0.950411
-0.960962
-0.967628
-0.971945
-0.973957
-0.974573
-0.973748
-0.971466
-0.967192
-0.960335
-0.949592
-0.931833
-0.900668
-0.838507
-0.67785
-0.674804
-0.84139
-0.902899
-0.933245
-0.950432
-0.96099
-0.967662
-0.972023
-0.973995
-0.974628
-0.973778
-0.971495
-0.96722
-0.960368
-0.949636
-0.931868
-0.900698
-0.838534
-0.677869
-0.674824
-0.841417
-0.902924
-0.933269
-0.950456
-0.961015
-0.96769
-0.97206
-0.97402
-0.97463
-0.973798
-0.971486
-0.967243
-0.960397
-0.949669
-0.931899
-0.900726
-0.838559
-0.677889
-0.674839
-0.841437
-0.902946
-0.933288
-0.950481
-0.961041
-0.967719
-0.972119
-0.974049
-0.974651
-0.973817
-0.971502
-0.967263
-0.960396
-0.949697
-0.931927
-0.900752
-0.838583
-0.677907
-0.674856
-0.841458
-0.90297
-0.933315
-0.950521
-0.961071
-0.96775
-0.972159
-0.974092
-0.974728
-0.973845
-0.971524
-0.967276
-0.960413
-0.949721
-0.931953
-0.900777
-0.838606
-0.677925
-0.674876
-0.841481
-0.902995
-0.93334
-0.95055
-0.961098
-0.967774
-0.97216
-0.974122
-0.974765
-0.973875
-0.971551
-0.967298
-0.960435
-0.949745
-0.931976
-0.9008
-0.838627
-0.677942
-0.67489
-0.841502
-0.903017
-0.933365
-0.950565
-0.961167
-0.967803
-0.972182
-0.974148
-0.974794
-0.973902
-0.971577
-0.967322
-0.960459
-0.949779
-0.932001
-0.900822
-0.838648
-0.677958
-0.674906
-0.841521
-0.903038
-0.933388
-0.950589
-0.961201
-0.967837
-0.972208
-0.974173
-0.974819
-0.973926
-0.9716
-0.967343
-0.960476
-0.949733
-0.932018
-0.900842
-0.838667
-0.677973
-0.674921
-0.841543
-0.903059
-0.933409
-0.950609
-0.961185
-0.967865
-0.972259
-0.974629
-0.974899
-0.973964
-0.971643
-0.967457
-0.961978
-0.949833
-0.932052
-0.900866
-0.838687
-0.677988
-0.674935
-0.841562
-0.903079
-0.93343
-0.950629
-0.961202
-0.967896
-0.972312
-0.974752
-0.97497
-0.974015
-0.971713
-0.967635
-0.962331
-0.949975
-0.93211
-0.900898
-0.83871
-0.678004
-0.674949
-0.841579
-0.903098
-0.93345
-0.950651
-0.961225
-0.967926
-0.972352
-0.97481
-0.975024
-0.974065
-0.971777
-0.967727
-0.962467
-0.950076
-0.932165
-0.900932
-0.838734
-0.678021
-0.674962
-0.841596
-0.903116
-0.933469
-0.950671
-0.961246
-0.967948
-0.972359
-0.974421
-0.975038
-0.974101
-0.971824
-0.96779
-0.962543
-0.950139
-0.932207
-0.900963
-0.838762
-0.678038
-0.674975
-0.841612
-0.903133
-0.933486
-0.950689
-0.961264
-0.967961
-0.972357
-0.974359
-0.975035
-0.974123
-0.971858
-0.967834
-0.962594
-0.950183
-0.932241
-0.90099
-0.838784
-0.678053
-0.674986
-0.841627
-0.903149
-0.933503
-0.950705
-0.961279
-0.967973
-0.972365
-0.974354
-0.97504
-0.974142
-0.971885
-0.967867
-0.962631
-0.950216
-0.932268
-0.901014
-0.838804
-0.678068
-0.674997
-0.841641
-0.903165
-0.933518
-0.950721
-0.961294
-0.967986
-0.972376
-0.974362
-0.975054
-0.974169
-0.971909
-0.967894
-0.962661
-0.950243
-0.932292
-0.901035
-0.838822
-0.678081
-0.675008
-0.841655
-0.903179
-0.933533
-0.950736
-0.961309
-0.968
-0.972387
-0.974374
-0.975071
-0.974192
-0.971931
-0.967917
-0.962685
-0.950266
-0.932312
-0.901055
-0.838839
-0.678093
-0.675018
-0.841668
-0.903193
-0.933548
-0.950752
-0.961333
-0.968121
-0.97241
-0.97439
-0.975087
-0.97421
-0.971949
-0.967937
-0.962707
-0.950286
-0.93233
-0.901072
-0.838854
-0.678105
-0.675028
-0.841681
-0.903207
-0.933563
-0.950769
-0.961355
-0.96816
-0.972434
-0.974407
-0.975103
-0.974227
-0.971966
-0.967955
-0.962726
-0.950303
-0.932346
-0.901087
-0.838868
-0.678116
-0.675038
-0.841693
-0.90322
-0.933577
-0.950785
-0.961373
-0.968182
-0.972453
-0.974424
-0.975119
-0.974243
-0.971982
-0.967971
-0.962743
-0.95032
-0.932361
-0.901101
-0.838881
-0.678126
-0.675047
-0.841705
-0.903233
-0.933591
-0.950799
-0.961389
-0.968199
-0.97247
-0.974439
-0.975134
-0.974257
-0.971997
-0.967987
-0.962759
-0.950334
-0.932375
-0.901114
-0.838893
-0.678135
-0.675056
-0.841716
-0.903245
-0.933603
-0.950813
-0.961403
-0.968214
-0.972485
-0.974453
-0.975148
-0.974271
-0.97201
-0.968001
-0.962773
-0.950348
-0.932388
-0.901127
-0.838904
-0.678144
-0.675064
-0.841727
-0.903257
-0.933616
-0.950826
-0.961416
-0.968228
-0.972498
-0.974466
-0.975161
-0.974285
-0.972023
-0.968014
-0.962787
-0.950361
-0.9324
-0.901138
-0.838915
-0.678152
-0.675072
-0.841737
-0.903268
-0.933627
-0.950838
-0.961429
-0.968241
-0.972511
-0.974479
-0.975174
-0.974297
-0.972036
-0.968029
-0.962815
-0.950376
-0.932412
-0.901149
-0.838925
-0.67816
-0.67508
-0.841747
-0.903278
-0.933638
-0.950849
-0.96144
-0.968253
-0.972523
-0.974491
-0.975186
-0.974309
-0.972048
-0.968044
-0.962833
-0.950397
-0.932556
-0.901167
-0.838936
-0.678168
-0.675088
-0.841757
-0.903289
-0.933649
-0.95086
-0.961452
-0.968264
-0.972535
-0.974504
-0.975203
-0.974349
-0.972065
-0.968058
-0.962849
-0.950411
-0.932463
-0.901181
-0.838947
-0.678176
-0.675095
-0.841766
-0.903299
-0.933659
-0.950871
-0.961463
-0.968276
-0.972546
-0.974516
-0.975217
-0.974367
-0.972079
-0.96807
-0.962859
-0.950418
-0.932455
-0.901187
-0.838956
-0.678183
-0.675102
-0.841775
-0.903308
-0.933669
-0.95088
-0.961472
-0.968281
-0.972509
-0.974521
-0.975227
-0.97438
-0.972092
-0.968082
-0.96287
-0.950427
-0.93246
-0.901193
-0.838964
-0.67819
-0.675109
-0.841783
-0.903317
-0.933678
-0.950889
-0.96148
-0.968287
-0.972508
-0.974527
-0.975237
-0.974391
-0.972103
-0.968092
-0.96288
-0.950439
-0.932468
-0.901201
-0.838972
-0.678196
-0.675115
-0.841791
-0.903325
-0.933687
-0.950898
-0.961488
-0.968294
-0.972514
-0.974534
-0.975245
-0.9744
-0.972112
-0.968102
-0.96289
-0.950449
-0.932476
-0.901209
-0.838979
-0.678202
-0.675121
-0.841799
-0.903334
-0.933695
-0.950906
-0.961496
-0.968302
-0.972522
-0.974542
-0.975254
-0.974409
-0.972122
-0.968111
-0.962899
-0.950458
-0.932485
-0.901217
-0.838987
-0.678208
-0.675127
-0.841806
-0.903341
-0.933703
-0.950914
-0.961505
-0.96831
-0.972529
-0.97455
-0.975262
-0.974418
-0.972131
-0.96812
-0.962908
-0.950466
-0.932493
-0.901225
-0.838994
-0.678213
-0.675132
-0.841813
-0.903349
-0.933711
-0.950922
-0.961513
-0.968318
-0.972537
-0.974558
-0.975271
-0.974426
-0.972139
-0.968128
-0.962916
-0.950474
-0.932501
-0.901232
-0.839001
-0.678219
-0.675138
-0.84182
-0.903356
-0.933718
-0.95093
-0.96152
-0.968326
-0.972545
-0.974565
-0.975279
-0.974435
-0.972147
-0.968136
-0.962924
-0.950482
-0.932508
-0.90124
-0.839008
-0.678224
-0.675143
-0.841826
-0.903363
-0.933726
-0.950937
-0.961528
-0.968333
-0.972552
-0.974573
-0.975286
-0.974442
-0.972155
-0.968144
-0.962932
-0.95049
-0.932516
-0.901247
-0.839014
-0.678229
-0.67515
-0.841834
-0.903372
-0.933764
-0.950946
-0.961535
-0.968341
-0.97256
-0.97458
-0.975294
-0.97445
-0.972162
-0.968151
-0.962939
-0.950497
-0.932523
-0.901253
-0.83902
-0.678234
-0.675155
-0.841841
-0.90338
-0.933778
-0.950955
-0.961543
-0.968348
-0.972567
-0.974587
-0.975301
-0.974457
-0.972169
-0.968159
-0.962946
-0.950504
-0.932529
-0.90126
-0.839027
-0.678239
-0.67516
-0.841847
-0.903388
-0.933787
-0.950964
-0.961551
-0.968355
-0.972574
-0.974594
-0.975308
-0.974464
-0.972176
-0.968165
-0.962953
-0.95051
-0.932536
-0.901266
-0.839032
-0.678244
-0.675165
-0.841853
-0.903395
-0.933794
-0.950971
-0.961558
-0.968362
-0.972581
-0.974601
-0.975316
-0.974475
-0.972211
-0.968177
-0.96296
-0.950517
-0.932542
-0.901272
-0.839038
-0.678248
-0.675169
-0.841859
-0.903401
-0.933801
-0.950977
-0.961564
-0.968368
-0.972587
-0.974608
-0.975323
-0.974485
-0.972224
-0.968186
-0.962968
-0.950524
-0.932548
-0.901278
-0.839043
-0.678252
-0.675174
-0.841864
-0.903407
-0.933807
-0.950984
-0.96157
-0.968375
-0.972594
-0.974615
-0.97533
-0.974492
-0.972233
-0.968194
-0.962975
-0.95053
-0.932554
-0.901284
-0.839049
-0.678256
-0.675178
-0.84187
-0.903412
-0.933813
-0.95099
-0.961576
-0.968381
-0.9726
-0.974621
-0.975337
-0.974499
-0.97224
-0.968201
-0.962981
-0.950536
-0.93256
-0.901289
-0.839054
-0.67826
-0.675182
-0.841875
-0.903418
-0.933818
-0.950995
-0.961582
-0.968387
-0.972606
-0.974627
-0.975343
-0.974506
-0.972247
-0.968207
-0.962987
-0.950542
-0.932566
-0.901294
-0.839059
-0.678264
-0.675185
-0.841879
-0.903421
-0.933792
-0.950999
-0.961587
-0.968392
-0.972611
-0.974633
-0.975349
-0.974512
-0.972253
-0.968213
-0.962993
-0.950548
-0.932571
-0.9013
-0.839063
-0.678268
-0.675189
-0.841883
-0.903424
-0.93379
-0.951002
-0.961592
-0.968398
-0.972617
-0.97464
-0.97536
-0.974519
-0.972259
-0.968219
-0.962998
-0.950553
-0.932576
-0.901305
-0.839068
-0.678272
-0.675192
-0.841887
-0.903428
-0.933793
-0.951005
-0.961596
-0.968403
-0.972623
-0.974646
-0.975366
-0.974525
-0.972264
-0.968225
-0.963004
-0.950558
-0.932581
-0.90131
-0.839073
-0.678275
-0.675195
-0.841891
-0.903431
-0.933794
-0.95101
-0.961601
-0.968408
-0.972628
-0.974651
-0.975372
-0.974531
-0.97227
-0.96823
-0.963009
-0.950563
-0.932586
-0.901314
-0.839077
-0.678279
-0.675198
-0.841894
-0.903435
-0.933798
-0.951015
-0.961606
-0.968412
-0.972633
-0.974658
-0.975382
-0.974537
-0.972275
-0.968235
-0.963014
-0.950568
-0.932591
-0.901319
-0.839081
-0.678282
-0.675201
-0.841898
-0.903439
-0.933802
-0.951019
-0.961611
-0.968417
-0.972638
-0.974663
-0.975388
-0.974543
-0.972281
-0.96824
-0.963019
-0.950573
-0.932596
-0.901323
-0.839085
-0.678285
-0.675204
-0.841902
-0.903443
-0.933806
-0.951023
-0.961615
-0.968422
-0.972643
-0.974668
-0.975393
-0.974548
-0.972285
-0.968245
-0.963024
-0.950577
-0.9326
-0.901328
-0.839089
-0.678289
-0.675207
-0.841906
-0.903447
-0.93381
-0.951027
-0.961619
-0.968426
-0.972647
-0.974673
-0.975398
-0.974553
-0.97229
-0.968249
-0.963028
-0.950582
-0.932605
-0.901332
-0.839093
-0.678292
-0.67521