# vtk DataFile Version 2.0
OUTPUT by 3D-VPM
ASCII
DATASET UNSTRUCTURED_GRID
POINTS 880 double
1.344838e+00	3.152877e-02	4.409353e-03
1.346694e+00	1.060282e+00	3.308843e-02
1.349330e+00	2.106985e+00	3.267275e-02
1.349880e+00	3.158396e+00	3.249877e-02
1.350052e+00	4.210723e+00	3.246391e-02
1.350128e+00	5.263252e+00	3.244746e-02
1.350163e+00	6.315839e+00	3.244265e-02
1.350181e+00	7.368449e+00	3.244235e-02
1.350188e+00	8.421069e+00	3.244322e-02
1.350208e+00	9.473509e+00	3.244323e-02
1.350208e+00	1.052649e+01	3.244314e-02
1.350188e+00	1.157893e+01	3.244284e-02
1.350181e+00	1.263155e+01	3.244216e-02
1.350164e+00	1.368416e+01	3.244214e-02
1.350130e+00	1.473675e+01	3.244598e-02
1.350057e+00	1.578929e+01	3.246003e-02
1.349895e+00	1.684164e+01	3.248746e-02
1.349414e+00	1.789323e+01	3.261157e-02
1.347416e+00	1.894312e+01	3.246908e-02
1.344139e+00	1.996755e+01	5.382047e-03
1.360868e+00	2.242763e-02	6.827267e-03
1.354249e+00	1.058501e+00	8.814606e-03
1.351529e+00	2.106625e+00	9.140270e-03
1.350951e+00	3.158326e+00	9.214055e-03
1.350799e+00	4.210752e+00	9.234586e-03
1.350730e+00	5.263291e+00	9.243636e-03
1.350706e+00	6.315866e+00	9.247290e-03
1.350700e+00	7.368465e+00	9.248646e-03
1.350699e+00	8.421079e+00	9.249151e-03
1.350722e+00	9.473518e+00	9.250440e-03
1.350722e+00	1.052648e+01	9.250208e-03
1.350698e+00	1.157893e+01	9.249032e-03
1.350700e+00	1.263154e+01	9.248770e-03
1.350706e+00	1.368414e+01	9.247582e-03
1.350727e+00	1.473671e+01	9.244406e-03
1.350791e+00	1.578925e+01	9.236648e-03
1.350928e+00	1.684169e+01	9.220671e-03
1.351418e+00	1.789347e+01	9.176901e-03
1.352614e+00	1.894233e+01	8.967714e-03
1.357881e+00	1.997444e+01	6.446412e-03
1.358785e+00	1.417319e-02	2.632134e-02
1.337684e+00	1.057296e+00	1.606763e-02
1.336782e+00	2.106078e+00	1.757807e-02
1.336909e+00	3.158134e+00	1.807162e-02
1.336980e+00	4.210621e+00	1.822541e-02
1.337014e+00	5.263204e+00	1.829253e-02
1.337032e+00	6.315814e+00	1.832205e-02
1.337042e+00	7.368435e+00	1.833550e-02
1.337047e+00	8.421060e+00	1.834221e-02
1.337068e+00	9.473523e+00	1.833978e-02
1.337068e+00	1.052648e+01	1.833956e-02
1.337047e+00	1.157894e+01	1.834239e-02
1.337042e+00	1.263157e+01	1.833591e-02
1.337032e+00	1.368419e+01	1.832303e-02
1.337014e+00	1.473680e+01	1.829505e-02
1.336981e+00	1.578938e+01	1.823188e-02
1.336913e+00	1.684188e+01	1.809035e-02
1.336790e+00	1.789400e+01	1.766932e-02
1.337223e+00	1.894471e+01	1.705840e-02
1.364356e+00	1.998155e+01	2.225672e-02
1.352010e+00	2.482146e-02	1.933788e-02
1.337623e+00	1.056031e+00	5.349686e-03
1.336428e+00	2.105886e+00	4.371007e-03
1.336121e+00	3.158083e+00	4.324768e-03
1.336037e+00	4.210603e+00	4.330285e-03
1.336002e+00	5.263195e+00	4.329931e-03
1.335989e+00	6.315810e+00	4.332496e-03
1.335985e+00	7.368432e+00	4.335902e-03
1.335982e+00	8.421058e+00	4.338951e-03
1.336008e+00	9.473521e+00	4.334391e-03
1.336008e+00	1.052648e+01	4.334217e-03
1.335982e+00	1.157894e+01	4.338645e-03
1.335985e+00	1.263157e+01	4.336113e-03
1.335988e+00	1.368419e+01	4.332741e-03
1.336000e+00	1.473681e+01	4.329995e-03
1.336032e+00	1.578940e+01	4.329991e-03
1.336108e+00	1.684192e+01	4.324211e-03
1.336378e+00	1.789412e+01	4.361963e-03
1.336879e+00	1.894441e+01	5.025483e-03
1.352878e+00	1.997447e+01	1.994127e-02
1.342324e+00	1.419687e-02	2.788867e-02
1.357150e+00	1.054476e+00	3.273201e-02
1.360207e+00	2.105620e+00	2.973643e-02
1.360668e+00	3.158002e+00	2.918155e-02
1.360808e+00	4.210571e+00	2.903035e-02
1.360865e+00	5.263180e+00	2.896590e-02
1.360895e+00	6.315801e+00	2.893834e-02
1.360912e+00	7.368428e+00	2.892617e-02
1.360921e+00	8.421055e+00	2.892009e-02
1.360943e+00	9.473518e+00	2.892426e-02
1.360942e+00	1.052648e+01	2.892436e-02
1.360921e+00	1.157895e+01	2.891979e-02
1.360912e+00	1.263157e+01	2.892583e-02
1.360896e+00	1.368420e+01	2.893759e-02
1.360867e+00	1.473682e+01	2.896387e-02
1.360813e+00	1.578943e+01	2.902490e-02
1.360685e+00	1.684200e+01	2.916484e-02
1.360289e+00	1.789440e+01	2.966628e-02
1.358728e+00	1.894571e+01	3.154028e-02
1.343474e+00	1.998383e+01	2.939772e-02
1.329038e+00	1.870581e-02	3.097402e-02
1.331705e+00	1.054762e+00	4.638902e-02
1.333680e+00	2.105662e+00	4.711102e-02
1.334096e+00	3.158014e+00	4.722979e-02
1.334229e+00	4.210575e+00	4.726750e-02
1.334288e+00	5.263182e+00	4.728226e-02
1.334316e+00	6.315803e+00	4.729010e-02
1.334331e+00	7.368428e+00	4.729475e-02
1.334338e+00	8.421056e+00	4.729769e-02
1.334361e+00	9.473517e+00	4.729992e-02
1.334361e+00	1.052648e+01	4.729974e-02
1.334338e+00	1.157894e+01	4.729752e-02
1.334331e+00	1.263157e+01	4.729487e-02
1.334317e+00	1.368420e+01	4.729029e-02
1.334289e+00	1.473682e+01	4.728260e-02
1.334232e+00	1.578943e+01	4.726831e-02
1.334106e+00	1.684199e+01	4.723285e-02
1.333723e+00	1.789437e+01	4.713363e-02
1.332450e+00	1.894575e+01	4.723618e-02
1.329037e+00	1.998033e+01	3.227868e-02
1.318050e+00	1.784050e-02	2.853483e-02
1.313951e+00	1.054489e+00	5.107086e-02
1.314970e+00	2.105620e+00	5.243880e-02
1.315227e+00	3.158003e+00	5.266684e-02
1.315314e+00	4.210571e+00	5.273683e-02
1.315354e+00	5.263180e+00	5.276612e-02
1.315374e+00	6.315802e+00	5.278074e-02
1.315384e+00	7.368428e+00	5.278871e-02
1.315389e+00	8.421055e+00	5.279324e-02
1.315412e+00	9.473503e+00	5.279544e-02
1.315412e+00	1.052650e+01	5.279559e-02
1.315389e+00	1.157894e+01	5.279316e-02
1.315384e+00	1.263157e+01	5.278809e-02
1.315374e+00	1.368420e+01	5.277957e-02
1.315355e+00	1.473682e+01	5.276377e-02
1.315316e+00	1.578943e+01	5.273133e-02
1.315232e+00	1.684200e+01	5.265039e-02
1.314989e+00	1.789440e+01	5.237087e-02
1.314008e+00	1.894592e+01	5.141105e-02
1.317577e+00	1.998157e+01	2.964781e-02
1.307916e+00	1.410229e-02	2.891397e-02
1.298476e+00	1.054320e+00	5.234735e-02
1.298903e+00	2.105592e+00	5.384490e-02
1.299092e+00	3.157995e+00	5.408978e-02
1.299157e+00	4.210568e+00	5.416863e-02
1.299186e+00	5.263179e+00	5.420248e-02
1.299201e+00	6.315801e+00	5.421940e-02
1.299208e+00	7.368427e+00	5.422858e-02
1.299211e+00	8.421055e+00	5.423367e-02
1.299235e+00	9.473511e+00	5.423582e-02
1.299234e+00	1.052649e+01	5.423620e-02
1.299211e+00	1.157894e+01	5.423361e-02
1.299209e+00	1.263157e+01	5.422735e-02
1.299202e+00	1.368420e+01	5.421714e-02
1.299190e+00	1.473682e+01	5.419795e-02
1.299166e+00	1.578943e+01	5.415796e-02
1.299120e+00	1.684201e+01	5.405742e-02
1.299022e+00	1.789442e+01	5.369865e-02
1.298999e+00	1.894601e+01	5.187675e-02
1.307583e+00	1.998537e+01	2.871705e-02
1.297248e+00	1.487186e-02	3.043455e-02
1.284431e+00	1.054193e+00	5.119349e-02
1.284525e+00	2.105571e+00	5.261786e-02
1.284687e+00	3.157989e+00	5.287656e-02
1.284736e+00	4.210565e+00	5.296207e-02
1.284757e+00	5.263177e+00	5.299858e-02
1.284767e+00	6.315800e+00	5.301673e-02
1.284772e+00	7.368427e+00	5.302655e-02
1.284775e+00	8.421055e+00	5.303209e-02
1.284798e+00	9.473521e+00	5.303423e-02
1.284797e+00	1.052648e+01	5.303452e-02
1.284775e+00	1.157894e+01	5.303201e-02
1.284774e+00	1.263157e+01	5.302549e-02
1.284770e+00	1.368420e+01	5.301481e-02
1.284763e+00	1.473682e+01	5.299477e-02
1.284752e+00	1.578943e+01	5.295310e-02
1.284737e+00	1.684201e+01	5.284951e-02
1.284748e+00	1.789444e+01	5.248533e-02
1.285421e+00	1.894611e+01	5.063017e-02
1.297282e+00	1.998547e+01	3.003664e-02
1.287531e+00	1.527694e-02	2.837507e-02
1.271946e+00	1.054090e+00	4.804809e-02
1.271816e+00	2.105551e+00	4.936236e-02
1.271903e+00	3.157983e+00	4.965751e-02
1.271925e+00	4.210563e+00	4.975117e-02
1.271935e+00	5.263176e+00	4.978991e-02
1.271941e+00	6.315800e+00	4.980886e-02
1.271943e+00	7.368427e+00	4.981899e-02
1.271944e+00	8.421055e+00	4.982499e-02
1.271967e+00	9.473531e+00	4.982683e-02
1.271967e+00	1.052647e+01	4.982673e-02
1.271944e+00	1.157895e+01	4.982485e-02
1.271944e+00	1.263157e+01	4.981882e-02
1.271942e+00	1.368420e+01	4.980857e-02
1.271939e+00	1.473682e+01	4.978944e-02
1.271934e+00	1.578944e+01	4.975026e-02
1.271934e+00	1.684202e+01	4.965544e-02
1.271974e+00	1.789445e+01	4.933539e-02
1.272691e+00	1.894617e+01	4.790106e-02
1.287705e+00	1.998529e+01	2.796211e-02
1.278683e+00	1.477440e-02	2.499089e-02
1.261560e+00	1.054078e+00	4.325408e-02
1.261088e+00	2.105539e+00	4.450971e-02
1.260904e+00	3.157979e+00	4.486430e-02
1.260869e+00	4.210562e+00	4.496555e-02
1.260861e+00	5.263176e+00	4.500576e-02
1.260858e+00	6.315799e+00	4.502496e-02
1.260856e+00	7.368426e+00	4.503508e-02
1.260854e+00	8.421055e+00	4.504136e-02
1.260875e+00	9.473516e+00	4.504378e-02
1.260875e+00	1.052648e+01	4.504335e-02
1.260853e+00	1.157895e+01	4.504129e-02
1.260853e+00	1.263157e+01	4.503607e-02
1.260852e+00	1.368420e+01	4.502683e-02
1.260851e+00	1.473682e+01	4.500960e-02
1.260848e+00	1.578944e+01	4.497479e-02
1.260846e+00	1.684202e+01	4.489314e-02
1.260872e+00	1.789446e+01	4.462112e-02
1.261388e+00	1.894615e+01	4.360150e-02
1.278575e+00	1.998586e+01	2.511864e-02
1.269291e+00	1.291582e-02	2.212830e-02
1.252232e+00	1.054060e+00	3.745417e-02
1.252360e+00	2.105527e+00	3.858799e-02
1.251964e+00	3.157975e+00	3.891894e-02
1.251889e+00	4.210560e+00	3.900971e-02
1.251866e+00	5.263175e+00	3.904539e-02
1.251857e+00	6.315799e+00	3.906232e-02
1.251853e+00	7.368426e+00	3.907118e-02
1.251848e+00	8.421055e+00	3.907665e-02
1.251869e+00	9.473517e+00	3.907874e-02
1.251870e+00	1.052648e+01	3.907831e-02
1.251846e+00	1.157895e+01	3.907649e-02
1.251846e+00	1.263157e+01	3.907188e-02
1.251845e+00	1.368420e+01	3.906370e-02
1.251843e+00	1.473683e+01	3.904848e-02
1.251841e+00	1.578944e+01	3.901766e-02
1.251836e+00	1.684203e+01	3.894570e-02
1.251866e+00	1.789448e+01	3.870474e-02
1.252361e+00	1.894615e+01	3.796217e-02
1.269313e+00	1.998696e+01	2.244743e-02
1.260140e+00	1.315759e-02	2.004464e-02
1.240449e+00	1.053568e+00	2.899254e-02
1.244730e+00	2.105490e+00	3.200145e-02
1.245265e+00	3.157970e+00	3.232203e-02
1.245351e+00	4.210558e+00	3.240491e-02
1.245382e+00	5.263174e+00	3.243737e-02
1.245398e+00	6.315798e+00	3.245270e-02
1.245406e+00	7.368426e+00	3.246068e-02
1.245409e+00	8.421055e+00	3.246545e-02
1.245436e+00	9.473517e+00	3.246780e-02
1.245439e+00	1.052648e+01	3.246764e-02
1.245417e+00	1.157895e+01	3.246564e-02
1.245419e+00	1.263157e+01	3.246161e-02
1.245421e+00	1.368420e+01	3.245455e-02
[...]
CELL_DATA 817
SCALARS Mu double 1
LOOKUP_TABLE default
-2.66312e-11
-3.10664e-11
-3.18437e-11
-3.20552e-11
-3.21323e-11
-3.21718e-11
-3.21894e-11
-3.2205e-11
-3.22268e-11
-3.22102e-11
-3.22278e-11
-3.22073e-11
-3.21913e-11
-3.21714e-11
-3.21368e-11
-3.20551e-11
-3.18426e-11
-3.10702e-11
-2.66293e-11
0.00415121
0.00443406
0.00448509
0.00449967
0.00450535
0.00450804
0.00450948
0.00451029
0.00451071
0.00451085
0.00451071
0.00451029
0.00450948
0.00450804
0.00450535
0.00449967
0.00448509
0.00443406
0.00415121
0.00559784
0.00596326
0.00603655
0.00605728
0.0060653
0.00606909
0.00607111
0.00607224
0.0060729
0.00607312
0.00607289
0.00607226
0.00607116
0.00606918
0.00606547
0.00605767
0.0060378
0.00596923
0.00564305
0.00640968
0.00693568
0.00702847
0.00705412
0.00706391
0.0070685
0.00707094
0.00707229
0.00707316
0.0070734
0.00707305
0.00707236
0.00707106
0.00706873
0.00706438
0.00705529
0.00703244
0.00695572
0.00671908
0.0069648
0.00755651
0.00765777
0.00768596
0.00769675
0.00770181
0.0077045
0.00770599
0.00770694
0.00770723
0.00770685
0.00770605
0.0077046
0.00770201
0.00769715
0.00768698
0.00766127
0.00757311
0.00733451
0.00726833
0.00788298
0.00798796
0.00801715
0.00802839
0.00803369
0.00803651
0.00803807
0.00803905
0.00803939
0.008039
0.0080381
0.00803655
0.00803377
0.00802854
0.00801754
0.00798942
0.00788835
0.007577
0.00733533
0.00794558
0.00804937
0.0080786
0.00808994
0.00809532
0.00809817
0.00809976
0.00810073
0.00810112
0.00810073
0.00809976
0.00809816
0.00809528
0.00808987
0.00807842
0.00804897
0.00794052
0.00752251
0.00717642
0.00775941
0.00786198
0.00789115
0.00790248
0.00790784
0.00791069
0.00791227
0.00791325
0.00791363
0.00791323
0.00791227
0.00791067
0.00790781
0.00790243
0.00789104
0.00786183
0.00775361
0.00731422
0.00680116
0.00734184
0.00744473
0.00747379
0.00748499
0.00749026
0.00749305
0.0074946
0.00749559
0.00749595
0.00749554
0.00749464
0.0074931
0.00749035
0.00748519
0.00747431
0.00744667
0.00734469
0.00694306
0.00622373
0.00671545
0.006818
0.00684641
0.00685723
0.0068623
0.00686497
0.00686644
0.00686742
0.00686774
0.00686733
0.00686651
0.00686508
0.00686251
0.0068577
0.00684762
0.00682229
0.0067289
0.00638513
0.00546651
0.0059058
0.00600398
0.0060307
0.00604079
0.00604548
0.00604795
0.0060493
0.00605022
0.00605051
0.00605011
0.00604939
0.00604809
0.00604576
0.00604139
0.00603228
0.00600961
0.00592591
0.00564692
0.00454778
0.00493779
0.00502658
0.00505052
0.00505952
0.00506368
0.00506586
0.00506705
0.00506788
0.00506812
0.00506775
0.00506713
0.00506598
0.00506393
0.00506008
0.00505208
0.00503231
0.00495926
0.00474823
0.00347496
0.00383336
0.00391132
0.00393196
0.00393968
0.00394323
0.00394508
0.00394609
0.00394679
0.003947
0.00394669
0.00394617
0.0039452
0.00394347
0.00394023
0.00393349
0.00391693
0.00385573
0.00371128
0.00229078
0.0026212
0.00268695
0.00270386
0.00271013
0.00271301
0.0027145
0.00271531
0.00271587
0.00271604
0.0027158
0.00271539
0.00271464
0.00271327
0.00271071
0.0027054
0.00269243
0.00264445
0.00256079
0.00105664
0.00133609
0.00138515
0.0013975
0.00140205
0.00140412
0.00140519
0.00140577
0.00140617
0.0014063
0.00140612
0.00140584
0.00140531
0.00140435
0.00140255
0.00139881
0.00138982
0.00135657
0.00132289
-0.000209143
6.43864e-06
3.77109e-05
4.5225e-05
4.79346e-05
4.91465e-05
4.97616e-05
5.00891e-05
5.03252e-05
5.03915e-05
5.02853e-05
5.01526e-05
4.9865e-05
4.93396e-05
4.83492e-05
4.63025e-05
4.16187e-05
2.43149e-05
3.41971e-05
-0.00147823
-0.00133624
-0.00132229
-0.00131959
-0.00131872
-0.00131838
-0.00131822
-0.00131815
-0.00131807
-0.00131807
-0.0013181
-0.00131809
-0.00131812
-0.00131819
-0.00131834
-0.00131862
-0.0013188
-0.00131969
-0.00126034
-0.0027229
-0.00265853
-0.00266119
-0.0026632
-0.00266413
-0.00266463
-0.00266492
-0.0026651
-0.00266518
-0.00266523
-0.00266519
-0.00266503
-0.00266481
-0.00266443
-0.00266372
-0.00266221
-0.00265782
-0.00264222
-0.00252414
-0.0039124
-0.00392742
-0.00394586
-0.00395235
-0.00395502
-0.00395634
-0.00395707
-0.00395749
-0.00395773
-0.00395783
-0.00395772
-0.0039574
-0.00395693
-0.0039561
-0.00395456
-0.00395128
-0.00394238
-0.0039105
-0.00373133
-0.00501246
-0.00511084
-0.0051444
-0.00515517
-0.0051595
-0.00516161
-0.00516276
-0.00516341
-0.00516379
-0.00516396
-0.00516378
-0.00516331
-0.0051626
-0.00516134
-0.005159
-0.00515403
-0.00514076
-0.00509319
-0.00485636
-0.00599743
-0.00617912
-0.00622714
-0.00624195
-0.00624786
-0.00625073
-0.00625228
-0.00625316
-0.00625368
-0.0062539
-0.00625367
-0.00625306
-0.00625214
-0.00625048
-0.00624739
-0.00624084
-0.00622349
-0.00616118
-0.00587251
-0.00684815
-0.00710615
-0.00716781
-0.00718629
-0.00719359
-0.00719711
-0.007199
-0.00720007
-0.0072007
-0.00720097
-0.00720069
-0.00719995
-0.00719882
-0.00719681
-0.00719304
-0.00718506
-0.00716403
-0.00708828
-0.00675498
-0.00754625
-0.00786968
-0.00794355
-0.00796506
-0.00797352
-0.00797758
-0.00797977
-0.00798099
-0.00798172
-0.00798204
-0.0079817
-0.00798085
-0.00797955
-0.00797723
-0.00797288
-0.00796367
-0.00793946
-0.00785187
-0.00748208
-0.00807533
-0.0084516
-0.00853532
-0.00855931
-0.00856871
-0.00857322
-0.00857565
-0.008577
-0.00857781
-0.00857816
-0.00857778
-0.00857685
-0.0085754
-0.00857283
-0.008568
-0.00855777
-0.00853098
-0.00843343
-0.00803566
-0.00842295
-0.00883826
-0.00892879
-0.00895469
-0.00896483
-0.00896968
-0.00897229
-0.00897375
-0.00897462
-0.00897499
-0.00897458
-0.00897358
-0.00897202
-0.00896926
-0.00896407
-0.00895308
-0.00892435
-0.008819
-0.00840153
-0.00858194
-0.0090205
-0.00911455
-0.00914177
-0.00915241
-0.0091575
-0.00916024
-0.00916177
-0.00916267
-0.00916306
-0.00916263
-0.00916158
-0.00915995
-0.00915706
-0.00915164
-0.00914015
-0.00911018
-0.00899937
-0.00857001
-0.00855017
-0.00899359
-0.00908844
-0.00911622
-0.00912707
-0.00913227
-0.00913505
-0.00913661
-0.00913753
-0.00913793
-0.00913747
-0.00913641
-0.00913475
-0.00913181
-0.00912628
-0.00911457
-0.00908405
-0.00897033
-0.00853641
-0.00832804
-0.0087578
-0.00885102
-0.00887865
-0.00888943
-0.00889459
-0.00889735
-0.00889889
-0.00889981
-0.0089002
-0.00889973
-0.00889868
-0.00889701
-0.00889409
-0.00888859
-0.00887694
-0.0088466
-0.00873265
-0.0083014
-0.00791337
-0.00831811
-0.00840773
-0.00843456
-0.00844501
-0.00844999
-0.00845266
-0.00845415
-0.00845504
-0.00845541
-0.00845494
-0.00845393
-0.00845231
-0.00844947
-0.00844414
-0.00843284
-0.00840343
-0.00829202
-0.00787076
-0.0073058
-0.00768353
-0.00776858
-0.00779417
-0.0078041
-0.00780881
-0.00781132
-0.00781271
-0.00781357
-0.0078139
-0.00781344
-0.0078125
-0.00781098
-0.00780829
-0.00780327
-0.00779262
-0.00776491
-0.00765902
-0.00726026
-0.0065271
-0.00686922
-0.00694837
-0.00697229
-0.00698151
-0.00698586
-0.00698817
-0.00698945
-0.00699026
-0.00699055
-0.00699011
-0.00698926
-0.00698788
-0.00698542
-0.00698084
-0.00697113
-0.00694588
-0.00684858
-0.00648654
-0.00559281
-0.0058951
-0.00596642
-0.00598805
-0.00599634
-0.00600023
-0.00600229
-0.00600342
-0.00600415
-0.00600441
-0.006004
-0.00600326
-0.00600204
-0.00599987
-0.00599583
-0.00598729
-0.00596509
-0.00587837
-0.00556886
-0.00451399
-0.00478328
-0.00484533
-0.00486424
-0.00487142
-0.00487476
-0.00487651
-0.00487748
-0.00487811
-0.00487832
-0.00487795
-0.00487732
-0.00487629
-0.00487445
-0.00487105
-0.00486385
-0.00484524
-0.00477022
-0.0045218
-0.00332803
-0.00355956
-0.0036111
-0.00362692
-0.00363288
-0.00363562
-0.00363705
-0.00363782
-0.00363835
-0.0036385
-0.00363817
-0.00363768
-0.00363686
-0.0036354
-0.00363269
-0.00362701
-0.00361253
-0.00355134
-0.00336813
-0.00207076
-0.00225238
-0.00229269
-0.00230512
-0.00230972
-0.0023118
-0.00231287
-0.00231344
-0.00231385
-0.00231395
-0.00231369
-0.00231335
-0.00231276
-0.00231172
-0.0023098
-0.0023058
-0.00229553
-0.00224973
-0.00213592
-0.000776699
-0.000894077
-0.000921544
-0.000930079
-0.000933128
-0.000934471
-0.000935143
-0.000935488
-0.000935764
-0.000935816
-0.000935625
-0.000935443
-0.000935106
-0.000934522
-0.000933433
-0.000931194
-0.000925232
-0.000895797
-0.000854141
0.00052738
0.00048213
0.000469568
0.000465596
0.000464304
0.000463782
0.000463543
0.000463435
0.000463306
0.000463302
0.00046341
0.000463432
0.000463503
0.000463627
0.000463865
0.000464347
0.000465953
0.00047865
0.000447458
0.00181451
0.00184267
0.00184762
0.00184851
0.00184913
0.00184953
0.00184979
0.00184997
0.00185003
0.0018501
0.00185014
0.00185002
0.00184984
0.00184952
0.00184893
0.0018477
0.00184496
0.00184104
0.00173881
0.00305583
0.00315603
0.00317975
0.00318589
0.00318855
0.00318992
0.0031907
0.00319116
0.00319141
0.00319154
0.0031915
0.00319124
0.00319083
0.00319007
0.00318868
0.00318581
0.00317889
0.00315904
0.00298868
0.00422191
0.00439191
0.00443444
0.004446
0.00445066
0.00445294
0.0044542
0.00445492
0.00445533
0.00445551
0.00445539
0.00445498
0.00445433
0.00445315
0.00445098
0.00444652
0.00443558
0.00440058
0.00416704
0.00528459
0.00552203
0.00558198
0.00559866
0.00560517
0.0056083
0.00560998
0.00561094
0.00561151
0.00561173
0.00561154
0.00561099
0.00561012
0.00560855
0.00560567
0.00559975
0.00558515
0.00553646
0.00524716
0.00621739
0.00652159
0.00659499
0.00661625
0.00662446
0.00662836
0.00663044
0.00663161
0.00663231
0.00663258
0.00663231
0.00663164
0.00663056
0.00662863
0.00662508
0.00661778
0.00659981
0.00653886
0.00620287

