# vtk DataFile Version 2.0
OUTPUT by 3D-VPM
ASCII
DATASET UNSTRUCTURED_GRID
POINTS 180 double
1.059578e+00	6.178447e-03	-8.248903e-03
1.050897e+00	1.053038e+00	-1.453227e-02
1.050499e+00	2.105336e+00	-1.496662e-02
1.050431e+00	3.157917e+00	-1.505432e-02
1.050413e+00	4.210536e+00	-1.508163e-02
1.050406e+00	5.263163e+00	-1.509298e-02
1.050403e+00	6.315792e+00	-1.509858e-02
1.050401e+00	7.368423e+00	-1.510162e-02
1.050400e+00	8.421053e+00	-1.510333e-02
1.050407e+00	9.473545e+00	-1.510409e-02
1.050407e+00	1.052645e+01	-1.510407e-02
1.050400e+00	1.157895e+01	-1.510333e-02
1.050401e+00	1.263158e+01	-1.510166e-02
1.050403e+00	1.368421e+01	-1.509866e-02
1.050406e+00	1.473684e+01	-1.509314e-02
1.050413e+00	1.578946e+01	-1.508201e-02
1.050430e+00	1.684208e+01	-1.505550e-02
1.050496e+00	1.789467e+01	-1.497201e-02
1.050852e+00	1.894699e+01	-1.461560e-02
1.059562e+00	1.999382e+01	-8.334204e-03
1.051728e+00	7.099876e-03	-3.710732e-03
1.046396e+00	1.053226e+00	-6.253604e-03
1.046243e+00	2.105372e+00	-6.483327e-03
1.046216e+00	3.157927e+00	-6.529862e-03
1.046211e+00	4.210540e+00	-6.544556e-03
1.046209e+00	5.263165e+00	-6.550707e-03
1.046208e+00	6.315793e+00	-6.553755e-03
1.046208e+00	7.368423e+00	-6.555402e-03
1.046207e+00	8.421054e+00	-6.556344e-03
1.046213e+00	9.473551e+00	-6.557033e-03
1.046213e+00	1.052645e+01	-6.557011e-03
1.046207e+00	1.157895e+01	-6.556340e-03
1.046208e+00	1.263158e+01	-6.555449e-03
1.046208e+00	1.368421e+01	-6.553838e-03
1.046208e+00	1.473684e+01	-6.550870e-03
1.046210e+00	1.578946e+01	-6.544943e-03
1.046214e+00	1.684207e+01	-6.531096e-03
1.046232e+00	1.789463e+01	-6.489015e-03
1.046275e+00	1.894683e+01	-6.359531e-03
1.051673e+00	1.999289e+01	-3.866386e-03
1.045658e+00	5.557322e-03	1.995335e-03
1.048600e+00	1.052975e+00	2.310277e-03
1.049002e+00	2.105321e+00	2.011162e-03
1.049082e+00	3.157913e+00	1.953609e-03
1.049108e+00	4.210534e+00	1.935976e-03
1.049119e+00	5.263162e+00	1.928759e-03
1.049125e+00	6.315792e+00	1.925224e-03
1.049128e+00	7.368422e+00	1.923315e-03
1.049129e+00	8.421053e+00	1.922161e-03
1.049133e+00	9.473559e+00	1.922633e-03
1.049133e+00	1.052644e+01	1.922687e-03
1.049129e+00	1.157895e+01	1.922181e-03
1.049128e+00	1.263158e+01	1.923224e-03
1.049125e+00	1.368421e+01	1.925064e-03
1.049119e+00	1.473684e+01	1.928441e-03
1.049108e+00	1.578947e+01	1.935216e-03
1.049083e+00	1.684209e+01	1.951164e-03
1.049003e+00	1.789468e+01	1.999832e-03
1.048626e+00	1.894703e+01	2.105368e-03
1.045633e+00	1.999440e+01	1.779402e-03
1.035910e+00	5.673337e-03	2.473799e-03
1.035044e+00	1.053037e+00	4.353910e-03
1.035214e+00	2.105333e+00	4.383632e-03
1.035253e+00	3.157916e+00	4.392333e-03
1.035266e+00	4.210535e+00	4.393949e-03
1.035271e+00	5.263162e+00	4.394378e-03
1.035274e+00	6.315792e+00	4.394533e-03
1.035276e+00	7.368423e+00	4.394609e-03
1.035276e+00	8.421053e+00	4.394707e-03
1.035280e+00	9.473562e+00	4.394573e-03
1.035280e+00	1.052644e+01	4.394529e-03
1.035276e+00	1.157895e+01	4.394702e-03
1.035276e+00	1.263158e+01	4.394718e-03
1.035274e+00	1.368421e+01	4.394735e-03
1.035271e+00	1.473684e+01	4.394779e-03
1.035266e+00	1.578947e+01	4.394875e-03
1.035253e+00	1.684208e+01	4.395100e-03
1.035217e+00	1.789467e+01	4.396833e-03
1.035083e+00	1.894699e+01	4.421857e-03
1.035938e+00	1.999429e+01	2.549282e-03
1.027185e+00	4.783627e-03	2.313330e-03
1.025732e+00	1.052958e+00	4.080445e-03
1.025810e+00	2.105318e+00	4.229418e-03
1.025828e+00	3.157911e+00	4.248908e-03
1.025834e+00	4.210533e+00	4.253530e-03
1.025837e+00	5.263161e+00	4.255082e-03
1.025838e+00	6.315791e+00	4.255761e-03
1.025839e+00	7.368422e+00	4.256110e-03
1.025840e+00	8.421053e+00	4.256407e-03
1.025842e+00	9.473568e+00	4.256268e-03
1.025842e+00	1.052643e+01	4.256160e-03
1.025840e+00	1.157895e+01	4.256366e-03
1.025839e+00	1.263158e+01	4.256293e-03
1.025838e+00	1.368421e+01	4.256093e-03
1.025837e+00	1.473684e+01	4.255750e-03
1.025834e+00	1.578947e+01	4.255125e-03
1.025828e+00	1.684209e+01	4.253938e-03
1.025811e+00	1.789468e+01	4.253093e-03
1.025755e+00	1.894708e+01	4.392753e-03
1.027200e+00	1.999518e+01	2.590741e-03
1.018695e+00	3.978030e-03	2.440320e-03
1.017397e+00	1.052903e+00	3.519106e-03
1.017423e+00	2.105308e+00	3.613900e-03
1.017430e+00	3.157908e+00	3.626554e-03
1.017433e+00	4.210532e+00	3.629650e-03
1.017435e+00	5.263161e+00	3.630741e-03
1.017436e+00	6.315791e+00	3.631236e-03
1.017436e+00	7.368422e+00	3.631493e-03
1.017436e+00	8.421053e+00	3.631689e-03
1.017438e+00	9.473579e+00	3.631588e-03
1.017438e+00	1.052642e+01	3.631550e-03
1.017436e+00	1.157895e+01	3.631675e-03
1.017436e+00	1.263158e+01	3.631555e-03
1.017436e+00	1.368421e+01	3.631346e-03
1.017435e+00	1.473684e+01	3.630968e-03
1.017433e+00	1.578947e+01	3.630204e-03
1.017430e+00	1.684209e+01	3.628368e-03
1.017422e+00	1.789469e+01	3.621565e-03
1.017386e+00	1.894713e+01	3.695947e-03
1.018691e+00	1.999596e+01	2.596212e-03
1.010397e+00	3.081383e-03	2.177768e-03
1.009532e+00	1.052860e+00	2.887681e-03
1.009540e+00	2.105300e+00	2.926188e-03
1.009543e+00	3.157906e+00	2.930944e-03
1.009544e+00	4.210531e+00	2.932056e-03
1.009545e+00	5.263160e+00	2.932467e-03
1.009545e+00	6.315791e+00	2.932660e-03
1.009545e+00	7.368422e+00	2.932761e-03
1.009546e+00	8.421053e+00	2.932834e-03
1.009546e+00	9.473585e+00	2.932784e-03
1.009546e+00	1.052642e+01	2.932783e-03
1.009546e+00	1.157895e+01	2.932832e-03
1.009545e+00	1.263158e+01	2.932754e-03
1.009545e+00	1.368421e+01	2.932644e-03
1.009545e+00	1.473684e+01	2.932436e-03
1.009544e+00	1.578947e+01	2.931990e-03
1.009543e+00	1.684209e+01	2.930799e-03
1.009540e+00	1.789470e+01	2.924733e-03
1.009529e+00	1.894716e+01	2.926471e-03
1.010399e+00	1.999690e+01	2.203409e-03
1.002250e+00	0.000000e+00	2.478539e-03
1.002250e+00	1.052632e+00	2.478539e-03
1.002250e+00	2.105263e+00	2.478539e-03
1.002250e+00	3.157895e+00	2.478539e-03
1.002250e+00	4.210526e+00	2.478539e-03
1.002250e+00	5.263158e+00	2.478539e-03
1.002250e+00	6.315789e+00	2.478539e-03
1.002250e+00	7.368421e+00	2.478539e-03
1.002250e+00	8.421053e+00	2.478539e-03
1.002250e+00	9.473684e+00	2.478539e-03
1.002250e+00	1.052632e+01	2.478539e-03
1.002250e+00	1.157895e+01	2.478539e-03
1.002250e+00	1.263158e+01	2.478539e-03
1.002250e+00	1.368421e+01	2.478539e-03
1.002250e+00	1.473684e+01	2.478539e-03
1.002250e+00	1.578947e+01	2.478539e-03
1.002250e+00	1.684211e+01	2.478539e-03
1.002250e+00	1.789474e+01	2.478539e-03
1.002250e+00	1.894737e+01	2.478539e-03
1.002250e+00	2.000000e+01	2.478539e-03
1.000000e+00	0.000000e+00	2.835613e-03
1.000000e+00	1.052632e+00	2.835613e-03
1.000000e+00	2.105263e+00	2.835613e-03
1.000000e+00	3.157895e+00	2.835613e-03
1.000000e+00	4.210526e+00	2.835613e-03
1.000000e+00	5.263158e+00	2.835613e-03
1.000000e+00	6.315789e+00	2.835613e-03
1.000000e+00	7.368421e+00	2.835613e-03
1.000000e+00	8.421053e+00	2.835613e-03
1.000000e+00	9.473684e+00	2.835613e-03
1.000000e+00	1.052632e+01	2.835613e-03
1.000000e+00	1.157895e+01	2.835613e-03
1.000000e+00	1.263158e+01	2.835613e-03
1.000000e+00	1.368421e+01	2.835613e-03
1.000000e+00	1.473684e+01	2.835613e-03
1.000000e+00	1.578947e+01	2.835613e-03
1.000000e+00	1.684211e+01	2.835613e-03
1.000000e+00	1.789474e+01	2.835613e-03
1.000000e+00	1.894737e+01	2.835613e-03
1.000000e+00	2.000000e+01	2.835613e-03

CELLS 152 760
4 20 0 1 21 
4 21 1 2 22 
4 22 2 3 23 
4 23 3 4 24 
4 24 4 5 25 
4 25 5 6 26 
4 26 6 7 27 
4 27 7 8 28 
4 28 8 9 29 
4 29 9 10 30 
4 30 10 11 31 
4 31 11 12 32 
4 32 12 13 33 
4 33 13 14 34 
4 34 14 15 35 
4 35 15 16 36 
4 36 16 17 37 
4 37 17 18 38 
4 38 18 19 39 
4 40 20 21 41 
4 41 21 22 42 
4 42 22 23 43 
4 43 23 24 44 
4 44 24 25 45 
4 45 25 26 46 
4 46 26 27 47 
4 47 27 28 48 
4 48 28 29 49 
4 49 29 30 50 
4 50 30 31 51 
4 51 31 32 52 
4 52 32 33 53 
4 53 33 34 54 
4 54 34 35 55 
4 55 35 36 56 
4 56 36 37 57 
4 57 37 38 58 
4 58 38 39 59 
4 60 40 41 61 
4 61 41 42 62 
4 62 42 43 63 
4 63 43 44 64 
4 64 44 45 65 
4 65 45 46 66 
4 66 46 47 67 
4 67 47 48 68 
4 68 48 49 69 
4 69 49 50 70 
4 70 50 51 71 
4 71 51 52 72 
4 72 52 53 73 
4 73 53 54 74 
4 74 54 55 75 
4 75 55 56 76 
4 76 56 57 77 
4 77 57 58 78 
4 78 58 59 79 
4 80 60 61 81 
4 81 61 62 82 
4 82 62 63 83 
4 83 63 64 84 
4 84 64 65 85 
4 85 65 66 86 
4 86 66 67 87 
4 87 67 68 88 
4 88 68 69 89 
4 89 69 70 90 
4 90 70 71 91 
4 91 71 72 92 
4 92 72 73 93 
4 93 73 74 94 
4 94 74 75 95 
4 95 75 76 96 
4 96 76 77 97 
4 97 77 78 98 
4 98 78 79 99 
4 100 80 81 101 
4 101 81 82 102 
4 102 82 83 103 
4 103 83 84 104 
4 104 84 85 105 
4 105 85 86 106 
4 106 86 87 107 
4 107 87 88 108 
4 108 88 89 109 
4 109 89 90 110 
4 110 90 91 111 
4 111 91 92 112 
4 112 92 93 113 
4 113 93 94 114 
4 114 94 95 115 
4 115 95 96 116 
4 116 96 97 117 
4 117 97 98 118 
4 118 98 99 119 
4 120 100 101 121 
4 121 101 102 122 
4 122 102 103 123 
4 123 103 104 124 
4 124 104 105 125 
4 125 105 106 126 
4 126 106 107 127 
4 127 107 108 128 
4 128 108 109 129 
4 129 109 110 130 
4 130 110 111 131 
4 131 111 112 132 
4 132 112 113 133 
4 133 113 114 134 
4 134 114 115 135 
4 135 115 116 136 
4 136 116 117 137 
4 137 117 118 138 
4 138 118 119 139 
4 140 120 121 141 
4 141 121 122 142 
4 142 122 123 143 
4 143 123 124 144 
4 144 124 125 145 
4 145 125 126 146 
4 146 126 127 147 
4 147 127 128 148 
4 148 128 129 149 
4 149 129 130 150 
4 150 130 131 151 
4 151 131 132 152 
4 152 132 133 153 
4 153 133 134 154 
4 154 134 135 155 
4 155 135 136 156 
4 156 136 137 157 
4 157 137 138 158 
4 158 138 139 159 
4 160 140 141 161 
4 161 141 142 162 
4 162 142 143 163 
4 163 143 144 164 
4 164 144 145 165 
4 165 145 146 166 
4 166 146 147 167 
4 167 147 148 168 
4 168 148 149 169 
4 169 149 150 170 
4 170 150 151 171 
4 171 151 152 172 
4 172 152 153 173 
4 173 153 154 174 
4 174 154 155 175 
4 175 155 156 176 
4 176 156 157 177 
4 177 157 158 178 
4 178 158 159 179 

CELL_TYPES 152
9
9
9
9
9
9
9
9
9
9
9
9
9
9
9
9
9
9
9
9
9
9
9
9
9
9
9
9
9
9
9
9
9
9
9
9
9
9
9
9
9
9
9
9
9
9
9
9
9
9
9
9
9
9
9
9
9
9
9
9
9
9
9
9
9
9
9
9
9
9
9
9
9
9
9
9
9
9
9
9
9
9
9
9
9
9
9
9
9
9
9
9
9
9
9
9
9
9
9
9
9
9
9
9
9
9
9
9
9
9
9
9
9
9
9
9
9
9
9
9
9
9
9
9
9
9
9
9
9
9
9
9
9
9
9
9
9
9
9
9
9
9
9
9
9
9
9
9
9
9
9
9

CELL_DATA 152
SCALARS Mu double 1
LOOKUP_TABLE default
-2.66312e-11
-3.10664e-11
-3.18437e-11
-3.20552e-11
-3.21323e-11
-3.21718e-11
-3.21894e-11
-3.2205e-11
-3.22268e-11
-3.22102e-11
-3.22278e-11
-3.22073e-11
-3.21913e-11
-3.21714e-11
-3.21368e-11
-3.20551e-11
-3.18426e-11
-3.10702e-11
-2.66293e-11
0.00415121
0.00443406
0.00448509
0.00449967
0.00450535
0.00450804
0.00450948
0.00451029
0.00451071
0.00451085
0.00451071
0.00451029
0.00450948
0.00450804
0.00450535
0.00449967
0.00448509
0.00443406
0.00415121
0.00559784
0.00596326
0.00603655
0.00605728
0.0060653
0.00606909
0.00607111
0.00607224
0.0060729
0.00607312
0.00607289
0.00607226
0.00607116
0.00606918
0.00606547
0.00605767
0.0060378
0.00596923
0.00564305
0.00640968
0.00693568
0.00702847
0.00705412
0.00706391
0.0070685
0.00707094
0.00707229
0.00707316
0.0070734
0.00707305
0.00707236
0.00707106
0.00706873
0.00706438
0.00705529
0.00703244
0.00695572
0.00671908
0.0069648
0.00755651
0.00765777
0.00768596
0.00769675
0.00770181
0.0077045
0.00770599
0.00770694
0.00770723
0.00770685
0.00770605
0.0077046
0.00770201
0.00769715
0.00768698
0.00766127
0.00757311
0.00733451
0.00726833
0.00788298
0.00798796
0.00801715
0.00802839
0.00803369
0.00803651
0.00803807
0.00803905
0.00803939
0.008039
0.0080381
0.00803655
0.00803377
0.00802854
0.00801754
0.00798942
0.00788835
0.007577
0.00733533
0.00794558
0.00804937
0.0080786
0.00808994
0.00809532
0.00809817
0.00809976
0.00810073
0.00810112
0.00810073
0.00809976
0.00809816
0.00809528
0.00808987
0.00807842
0.00804897
0.00794052
0.00752251

