# vtk DataFile Version 2.0
OUTPUT by 3D-VPM
ASCII
DATASET UNSTRUCTURED_GRID
POINTS 1200 double
1.492735e+00	4.390674e-02	3.157665e-02
1.507055e+00	1.062309e+00	3.720505e-02
1.507579e+00	2.107544e+00	3.063708e-02
1.507384e+00	3.158606e+00	2.853900e-02
1.507289e+00	4.210819e+00	2.788647e-02
1.507261e+00	5.263314e+00	2.761955e-02
1.507248e+00	6.315895e+00	2.750327e-02
1.507236e+00	7.368496e+00	2.744222e-02
1.507228e+00	8.421105e+00	2.741282e-02
1.507239e+00	9.473517e+00	2.739442e-02
1.507239e+00	1.052648e+01	2.739559e-02
1.507224e+00	1.157890e+01	2.740616e-02
1.507235e+00	1.263151e+01	2.743951e-02
1.507247e+00	1.368411e+01	2.749799e-02
1.507258e+00	1.473669e+01	2.760786e-02
1.507283e+00	1.578920e+01	2.785577e-02
1.507365e+00	1.684145e+01	2.844417e-02
1.507565e+00	1.789273e+01	3.025814e-02
1.507037e+00	1.894121e+01	3.335036e-02
1.497021e+00	1.995397e+01	3.474140e-02
1.499936e+00	3.176918e-02	8.079807e-03
1.488708e+00	1.058531e+00	9.711108e-03
1.485947e+00	2.106581e+00	1.087153e-02
1.485198e+00	3.158319e+00	1.134539e-02
1.484997e+00	4.210751e+00	1.149495e-02
1.484907e+00	5.263291e+00	1.156234e-02
1.484876e+00	6.315866e+00	1.159072e-02
1.484867e+00	7.368465e+00	1.160251e-02
1.484865e+00	8.421078e+00	1.160764e-02
1.484893e+00	9.473513e+00	1.160698e-02
1.484893e+00	1.052648e+01	1.160683e-02
1.484864e+00	1.157893e+01	1.160793e-02
1.484867e+00	1.263154e+01	1.160271e-02
1.484875e+00	1.368414e+01	1.159139e-02
1.484903e+00	1.473671e+01	1.156450e-02
1.484985e+00	1.578925e+01	1.150078e-02
1.485165e+00	1.684169e+01	1.136133e-02
1.485805e+00	1.789347e+01	1.094257e-02
1.486970e+00	1.894202e+01	1.012741e-02
1.500653e+00	1.995659e+01	1.991299e-02
1.499850e+00	2.722581e-02	1.594684e-02
1.496442e+00	1.059747e+00	2.127123e-02
1.494294e+00	2.107799e+00	2.559342e-02
1.494800e+00	3.158655e+00	2.571163e-02
1.494987e+00	4.210822e+00	2.562097e-02
1.495072e+00	5.263298e+00	2.556536e-02
1.495112e+00	6.315864e+00	2.554234e-02
1.495132e+00	7.368462e+00	2.553384e-02
1.495141e+00	8.421076e+00	2.553075e-02
1.495169e+00	9.473523e+00	2.553250e-02
1.495168e+00	1.052647e+01	2.553247e-02
1.495142e+00	1.157893e+01	2.553012e-02
1.495133e+00	1.263154e+01	2.553333e-02
1.495113e+00	1.368414e+01	2.554112e-02
1.495075e+00	1.473671e+01	2.556213e-02
1.494994e+00	1.578919e+01	2.561320e-02
1.494820e+00	1.684141e+01	2.569689e-02
1.494378e+00	1.789250e+01	2.565236e-02
1.494800e+00	1.894190e+01	2.314205e-02
1.500634e+00	1.996926e+01	1.362701e-02
1.512707e+00	2.739295e-02	2.552195e-02
1.480532e+00	1.058238e+00	2.900374e-02
1.479773e+00	2.106336e+00	2.953833e-02
1.480175e+00	3.158219e+00	2.974131e-02
1.480340e+00	4.210657e+00	2.980719e-02
1.480419e+00	5.263221e+00	2.983223e-02
1.480455e+00	6.315824e+00	2.984516e-02
1.480473e+00	7.368440e+00	2.985270e-02
1.480481e+00	8.421062e+00	2.985725e-02
1.480507e+00	9.473517e+00	2.985519e-02
1.480508e+00	1.052648e+01	2.985507e-02
1.480481e+00	1.157894e+01	2.985709e-02
1.480473e+00	1.263156e+01	2.985280e-02
1.480456e+00	1.368418e+01	2.984531e-02
1.480420e+00	1.473678e+01	2.983243e-02
1.480345e+00	1.578935e+01	2.980756e-02
1.480188e+00	1.684179e+01	2.974257e-02
1.479829e+00	1.789369e+01	2.955209e-02
1.480123e+00	1.894276e+01	2.926928e-02
1.513713e+00	1.996620e+01	2.089076e-02
1.488661e+00	2.599534e-02	3.189067e-02
1.510190e+00	1.054789e+00	2.622819e-02
1.510248e+00	2.105724e+00	1.985282e-02
1.510044e+00	3.158036e+00	1.866223e-02
1.509993e+00	4.210585e+00	1.832981e-02
1.509969e+00	5.263187e+00	1.818750e-02
1.509964e+00	6.315805e+00	1.812654e-02
1.509967e+00	7.368430e+00	1.809960e-02
1.509970e+00	8.421055e+00	1.808628e-02
1.509999e+00	9.473514e+00	1.809208e-02
1.509999e+00	1.052649e+01	1.809235e-02
1.509969e+00	1.157894e+01	1.808564e-02
1.509967e+00	1.263157e+01	1.809880e-02
1.509964e+00	1.368419e+01	1.812473e-02
1.509967e+00	1.473681e+01	1.818265e-02
1.509990e+00	1.578942e+01	1.831693e-02
1.510036e+00	1.684197e+01	1.862308e-02
1.510217e+00	1.789432e+01	1.968096e-02
1.510251e+00	1.894547e+01	2.322570e-02
1.488990e+00	1.997385e+01	3.407082e-02
1.475799e+00	2.085602e-02	3.924653e-02
1.482109e+00	1.055696e+00	5.565688e-02
1.485594e+00	2.105845e+00	5.531756e-02
1.486313e+00	3.158069e+00	5.522134e-02
1.486536e+00	4.210598e+00	5.519659e-02
1.486634e+00	5.263193e+00	5.518385e-02
1.486681e+00	6.315809e+00	5.518001e-02
1.486704e+00	7.368432e+00	5.517968e-02
1.486715e+00	8.421057e+00	5.518042e-02
1.486744e+00	9.473513e+00	5.518310e-02
1.486743e+00	1.052649e+01	5.518294e-02
1.486715e+00	1.157894e+01	5.518005e-02
1.486704e+00	1.263157e+01	5.517960e-02
1.486682e+00	1.368419e+01	5.517976e-02
1.486636e+00	1.473681e+01	5.518305e-02
1.486542e+00	1.578940e+01	5.519450e-02
1.486333e+00	1.684194e+01	5.521583e-02
1.485692e+00	1.789420e+01	5.530405e-02
1.483585e+00	1.894516e+01	5.607956e-02
1.475578e+00	1.997756e+01	4.206915e-02
1.462772e+00	2.302585e-02	4.183041e-02
1.459086e+00	1.055285e+00	6.419697e-02
1.460945e+00	2.105789e+00	6.548871e-02
1.461397e+00	3.158055e+00	6.568756e-02
1.461545e+00	4.210593e+00	6.574800e-02
1.461612e+00	5.263191e+00	6.577274e-02
1.461645e+00	6.315807e+00	6.578558e-02
1.461661e+00	7.368431e+00	6.579293e-02
1.461668e+00	8.421057e+00	6.579731e-02
1.461698e+00	9.473498e+00	6.580026e-02
1.461698e+00	1.052650e+01	6.580037e-02
1.461669e+00	1.157894e+01	6.579710e-02
1.461661e+00	1.263157e+01	6.579212e-02
1.461645e+00	1.368419e+01	6.578406e-02
1.461614e+00	1.473681e+01	6.576966e-02
1.461549e+00	1.578941e+01	6.574092e-02
1.461410e+00	1.684195e+01	6.566686e-02
1.461003e+00	1.789424e+01	6.540688e-02
1.459475e+00	1.894538e+01	6.457894e-02
1.461416e+00	1.997563e+01	4.249531e-02
1.451006e+00	2.290024e-02	3.902191e-02
1.439312e+00	1.055054e+00	6.677616e-02
1.440175e+00	2.105753e+00	6.841381e-02
1.440512e+00	3.158045e+00	6.867124e-02
1.440624e+00	4.210589e+00	6.875284e-02
1.440673e+00	5.263189e+00	6.878776e-02
1.440698e+00	6.315806e+00	6.880527e-02
1.440710e+00	7.368430e+00	6.881483e-02
1.440715e+00	8.421056e+00	6.882018e-02
1.440745e+00	9.473506e+00	6.882345e-02
1.440745e+00	1.052649e+01	6.882382e-02
1.440715e+00	1.157894e+01	6.881995e-02
1.440711e+00	1.263157e+01	6.881318e-02
1.440701e+00	1.368419e+01	6.880227e-02
1.440680e+00	1.473681e+01	6.878185e-02
1.440639e+00	1.578941e+01	6.873935e-02
1.440559e+00	1.684196e+01	6.863149e-02
1.440379e+00	1.789427e+01	6.824211e-02
1.440282e+00	1.894548e+01	6.628907e-02
1.450119e+00	1.997756e+01	3.965959e-02
1.439558e+00	1.813709e-02	3.784837e-02
1.421207e+00	1.054918e+00	6.553248e-02
1.421516e+00	2.105733e+00	6.712807e-02
1.421834e+00	3.158038e+00	6.740505e-02
1.421925e+00	4.210586e+00	6.749488e-02
1.421964e+00	5.263188e+00	6.753336e-02
1.421982e+00	6.315806e+00	6.755238e-02
1.421991e+00	7.368430e+00	6.756261e-02
1.421995e+00	8.421056e+00	6.756835e-02
1.422025e+00	9.473515e+00	6.757202e-02
1.422024e+00	1.052648e+01	6.757233e-02
1.421995e+00	1.157894e+01	6.756800e-02
1.421994e+00	1.263157e+01	6.756081e-02
1.421988e+00	1.368419e+01	6.754916e-02
1.421976e+00	1.473681e+01	6.752719e-02
1.421955e+00	1.578941e+01	6.748120e-02
1.421927e+00	1.684197e+01	6.736619e-02
1.421931e+00	1.789428e+01	6.695668e-02
1.423019e+00	1.894558e+01	6.490606e-02
1.439441e+00	1.998139e+01	3.768159e-02
1.427373e+00	1.926433e-02	3.974249e-02
1.404668e+00	1.054801e+00	6.118196e-02
1.404701e+00	2.105716e+00	6.262468e-02
1.405032e+00	3.158033e+00	6.292204e-02
1.405104e+00	4.210584e+00	6.301525e-02
1.405131e+00	5.263187e+00	6.305392e-02
1.405144e+00	6.315805e+00	6.307261e-02
1.405150e+00	7.368430e+00	6.308248e-02
1.405153e+00	8.421056e+00	6.308823e-02
1.405185e+00	9.473526e+00	6.309166e-02
1.405184e+00	1.052647e+01	6.309157e-02
1.405154e+00	1.157894e+01	6.308763e-02
1.405155e+00	1.263157e+01	6.308108e-02
1.405152e+00	1.368419e+01	6.307012e-02
1.405148e+00	1.473681e+01	6.304951e-02
1.405140e+00	1.578942e+01	6.300680e-02
1.405143e+00	1.684197e+01	6.290276e-02
1.405219e+00	1.789429e+01	6.255063e-02
1.406533e+00	1.894563e+01	6.107682e-02
1.427576e+00	1.998224e+01	3.910486e-02
1.418168e+00	2.163099e-02	3.487411e-02
1.391335e+00	1.054942e+00	5.385861e-02
1.390133e+00	2.105712e+00	5.531660e-02
1.390109e+00	3.158030e+00	5.571291e-02
1.390111e+00	4.210584e+00	5.581624e-02
1.390114e+00	5.263186e+00	5.585518e-02
1.390117e+00	6.315805e+00	5.587293e-02
1.390118e+00	7.368430e+00	5.588200e-02
1.390115e+00	8.421056e+00	5.588746e-02
1.390141e+00	9.473510e+00	5.589305e-02
1.390143e+00	1.052649e+01	5.589270e-02
1.390118e+00	1.157894e+01	5.588696e-02
1.390119e+00	1.263157e+01	5.588170e-02
1.390119e+00	1.368419e+01	5.587265e-02
1.390118e+00	1.473681e+01	5.585544e-02
1.390116e+00	1.578942e+01	5.582012e-02
1.390118e+00	1.684197e+01	5.573657e-02
1.390157e+00	1.789429e+01	5.546010e-02
1.391171e+00	1.894559e+01	5.469207e-02
1.417871e+00	1.997911e+01	3.545714e-02
1.409001e+00	1.920324e-02	2.944814e-02
1.376488e+00	1.054837e+00	4.308732e-02
1.378394e+00	2.105726e+00	4.523000e-02
1.377045e+00	3.158033e+00	4.559328e-02
1.376754e+00	4.210584e+00	4.572609e-02
1.376653e+00	5.263187e+00	4.576879e-02
1.376609e+00	6.315805e+00	4.578682e-02
1.376586e+00	7.368430e+00	4.579533e-02
1.376568e+00	8.421056e+00	4.579887e-02
1.376576e+00	9.473510e+00	4.580526e-02
1.376575e+00	1.052649e+01	4.580694e-02
1.376555e+00	1.157894e+01	4.580093e-02
1.376550e+00	1.263157e+01	4.579678e-02
1.376547e+00	1.368419e+01	4.579070e-02
1.376540e+00	1.473681e+01	4.577746e-02
1.376532e+00	1.578942e+01	4.574877e-02
1.376495e+00	1.684197e+01	4.567363e-02
1.376473e+00	1.789428e+01	4.541983e-02
1.378282e+00	1.894552e+01	4.561519e-02
1.408706e+00	1.998120e+01	2.997710e-02
1.397944e+00	1.679610e-02	2.537665e-02
1.379859e+00	1.051876e+00	2.593248e-02
1.371831e+00	2.105283e+00	2.433662e-02
1.366060e+00	3.158011e+00	2.644248e-02
1.366170e+00	4.210578e+00	2.781065e-02
1.366248e+00	5.263184e+00	2.827281e-02
1.366272e+00	6.315804e+00	2.846658e-02
1.366284e+00	7.368429e+00	2.856194e-02
1.366289e+00	8.421056e+00	2.860470e-02
1.366418e+00	9.473511e+00	2.872533e-02
1.366421e+00	1.052649e+01	2.875404e-02
1.366293e+00	1.157894e+01	2.868010e-02
1.366297e+00	1.263157e+01	2.869539e-02
[...]
CELL_DATA 1121
SCALARS Mu double 1
LOOKUP_TABLE default
-2.66312e-11
-3.10664e-11
-3.18437e-11
-3.20552e-11
-3.21323e-11
-3.21718e-11
-3.21894e-11
-3.2205e-11
-3.22268e-11
-3.22102e-11
-3.22278e-11
-3.22073e-11
-3.21913e-11
-3.21714e-11
-3.21368e-11
-3.20551e-11
-3.18426e-11
-3.10702e-11
-2.66293e-11
0.00415121
0.00443406
0.00448509
0.00449967
0.00450535
0.00450804
0.00450948
0.00451029
0.00451071
0.00451085
0.00451071
0.00451029
0.00450948
0.00450804
0.00450535
0.00449967
0.00448509
0.00443406
0.00415121
0.00559784
0.00596326
0.00603655
0.00605728
0.0060653
0.00606909
0.00607111
0.00607224
0.0060729
0.00607312
0.00607289
0.00607226
0.00607116
0.00606918
0.00606547
0.00605767
0.0060378
0.00596923
0.00564305
0.00640968
0.00693568
0.00702847
0.00705412
0.00706391
0.0070685
0.00707094
0.00707229
0.00707316
0.0070734
0.00707305
0.00707236
0.00707106
0.00706873
0.00706438
0.00705529
0.00703244
0.00695572
0.00671908
0.0069648
0.00755651
0.00765777
0.00768596
0.00769675
0.00770181
0.0077045
0.00770599
0.00770694
0.00770723
0.00770685
0.00770605
0.0077046
0.00770201
0.00769715
0.00768698
0.00766127
0.00757311
0.00733451
0.00726833
0.00788298
0.00798796
0.00801715
0.00802839
0.00803369
0.00803651
0.00803807
0.00803905
0.00803939
0.008039
0.0080381
0.00803655
0.00803377
0.00802854
0.00801754
0.00798942
0.00788835
0.007577
0.00733533
0.00794558
0.00804937
0.0080786
0.00808994
0.00809532
0.00809817
0.00809976
0.00810073
0.00810112
0.00810073
0.00809976
0.00809816
0.00809528
0.00808987
0.00807842
0.00804897
0.00794052
0.00752251
0.00717642
0.00775941
0.00786198
0.00789115
0.00790248
0.00790784
0.00791069
0.00791227
0.00791325
0.00791363
0.00791323
0.00791227
0.00791067
0.00790781
0.00790243
0.00789104
0.00786183
0.00775361
0.00731422
0.00680116
0.00734184
0.00744473
0.00747379
0.00748499
0.00749026
0.00749305
0.0074946
0.00749559
0.00749595
0.00749554
0.00749464
0.0074931
0.00749035
0.00748519
0.00747431
0.00744667
0.00734469
0.00694306
0.00622373
0.00671545
0.006818
0.00684641
0.00685723
0.0068623
0.00686497
0.00686644
0.00686742
0.00686774
0.00686733
0.00686651
0.00686508
0.00686251
0.0068577
0.00684762
0.00682229
0.0067289
0.00638513
0.00546651
0.0059058
0.00600398
0.0060307
0.00604079
0.00604548
0.00604795
0.0060493
0.00605022
0.00605051
0.00605011
0.00604939
0.00604809
0.00604576
0.00604139
0.00603228
0.00600961
0.00592591
0.00564692
0.00454778
0.00493779
0.00502658
0.00505052
0.00505952
0.00506368
0.00506586
0.00506705
0.00506788
0.00506812
0.00506775
0.00506713
0.00506598
0.00506393
0.00506008
0.00505208
0.00503231
0.00495926
0.00474823
0.00347496
0.00383336
0.00391132
0.00393196
0.00393968
0.00394323
0.00394508
0.00394609
0.00394679
0.003947
0.00394669
0.00394617
0.0039452
0.00394347
0.00394023
0.00393349
0.00391693
0.00385573
0.00371128
0.00229078
0.0026212
0.00268695
0.00270386
0.00271013
0.00271301
0.0027145
0.00271531
0.00271587
0.00271604
0.0027158
0.00271539
0.00271464
0.00271327
0.00271071
0.0027054
0.00269243
0.00264445
0.00256079
0.00105664
0.00133609
0.00138515
0.0013975
0.00140205
0.00140412
0.00140519
0.00140577
0.00140617
0.0014063
0.00140612
0.00140584
0.00140531
0.00140435
0.00140255
0.00139881
0.00138982
0.00135657
0.00132289
-0.000209143
6.43864e-06
3.77109e-05
4.5225e-05
4.79346e-05
4.91465e-05
4.97616e-05
5.00891e-05
5.03252e-05
5.03915e-05
5.02853e-05
5.01526e-05
4.9865e-05
4.93396e-05
4.83492e-05
4.63025e-05
4.16187e-05
2.43149e-05
3.41971e-05
-0.00147823
-0.00133624
-0.00132229
-0.00131959
-0.00131872
-0.00131838
-0.00131822
-0.00131815
-0.00131807
-0.00131807
-0.0013181
-0.00131809
-0.00131812
-0.00131819
-0.00131834
-0.00131862
-0.0013188
-0.00131969
-0.00126034
-0.0027229
-0.00265853
-0.00266119
-0.0026632
-0.00266413
-0.00266463
-0.00266492
-0.0026651
-0.00266518
-0.00266523
-0.00266519
-0.00266503
-0.00266481
-0.00266443
-0.00266372
-0.00266221
-0.00265782
-0.00264222
-0.00252414
-0.0039124
-0.00392742
-0.00394586
-0.00395235
-0.00395502
-0.00395634
-0.00395707
-0.00395749
-0.00395773
-0.00395783
-0.00395772
-0.0039574
-0.00395693
-0.0039561
-0.00395456
-0.00395128
-0.00394238
-0.0039105
-0.00373133
-0.00501246
-0.00511084
-0.0051444
-0.00515517
-0.0051595
-0.00516161
-0.00516276
-0.00516341
-0.00516379
-0.00516396
-0.00516378
-0.00516331
-0.0051626
-0.00516134
-0.005159
-0.00515403
-0.00514076
-0.00509319
-0.00485636
-0.00599743
-0.00617912
-0.00622714
-0.00624195
-0.00624786
-0.00625073
-0.00625228
-0.00625316
-0.00625368
-0.0062539
-0.00625367
-0.00625306
-0.00625214
-0.00625048
-0.00624739
-0.00624084
-0.00622349
-0.00616118
-0.00587251
-0.00684815
-0.00710615
-0.00716781
-0.00718629
-0.00719359
-0.00719711
-0.007199
-0.00720007
-0.0072007
-0.00720097
-0.00720069
-0.00719995
-0.00719882
-0.00719681
-0.00719304
-0.00718506
-0.00716403
-0.00708828
-0.00675498
-0.00754625
-0.00786968
-0.00794355
-0.00796506
-0.00797352
-0.00797758
-0.00797977
-0.00798099
-0.00798172
-0.00798204
-0.0079817
-0.00798085
-0.00797955
-0.00797723
-0.00797288
-0.00796367
-0.00793946
-0.00785187
-0.00748208
-0.00807533
-0.0084516
-0.00853532
-0.00855931
-0.00856871
-0.00857322
-0.00857565
-0.008577
-0.00857781
-0.00857816
-0.00857778
-0.00857685
-0.0085754
-0.00857283
-0.008568
-0.00855777
-0.00853098
-0.00843343
-0.00803566
-0.00842295
-0.00883826
-0.00892879
-0.00895469
-0.00896483
-0.00896968
-0.00897229
-0.00897375
-0.00897462
-0.00897499
-0.00897458
-0.00897358
-0.00897202
-0.00896926
-0.00896407
-0.00895308
-0.00892435
-0.008819
-0.00840153
-0.00858194
-0.0090205
-0.00911455
-0.00914177
-0.00915241
-0.0091575
-0.00916024
-0.00916177
-0.00916267
-0.00916306
-0.00916263
-0.00916158
-0.00915995
-0.00915706
-0.00915164
-0.00914015
-0.00911018
-0.00899937
-0.00857001
-0.00855017
-0.00899359
-0.00908844
-0.00911622
-0.00912707
-0.00913227
-0.00913505
-0.00913661
-0.00913753
-0.00913793
-0.00913747
-0.00913641
-0.00913475
-0.00913181
-0.00912628
-0.00911457
-0.00908405
-0.00897033
-0.00853641
-0.00832804
-0.0087578
-0.00885102
-0.00887865
-0.00888943
-0.00889459
-0.00889735
-0.00889889
-0.00889981
-0.0089002
-0.00889973
-0.00889868
-0.00889701
-0.00889409
-0.00888859
-0.00887694
-0.0088466
-0.00873265
-0.0083014
-0.00791337
-0.00831811
-0.00840773
-0.00843456
-0.00844501
-0.00844999
-0.00845266
-0.00845415
-0.00845504
-0.00845541
-0.00845494
-0.00845393
-0.00845231
-0.00844947
-0.00844414
-0.00843284
-0.00840343
-0.00829202
-0.00787076
-0.0073058
-0.00768353
-0.00776858
-0.00779417
-0.0078041
-0.00780881
-0.00781132
-0.00781271
-0.00781357
-0.0078139
-0.00781344
-0.0078125
-0.00781098
-0.00780829
-0.00780327
-0.00779262
-0.00776491
-0.00765902
-0.00726026
-0.0065271
-0.00686922
-0.00694837
-0.00697229
-0.00698151
-0.00698586
-0.00698817
-0.00698945
-0.00699026
-0.00699055
-0.00699011
-0.00698926
-0.00698788
-0.00698542
-0.00698084
-0.00697113
-0.00694588
-0.00684858
-0.00648654
-0.00559281
-0.0058951
-0.00596642
-0.00598805
-0.00599634
-0.00600023
-0.00600229
-0.00600342
-0.00600415
-0.00600441
-0.006004
-0.00600326
-0.00600204
-0.00599987
-0.00599583
-0.00598729
-0.00596509
-0.00587837
-0.00556886
-0.00451399
-0.00478328
-0.00484533
-0.00486424
-0.00487142
-0.00487476
-0.00487651
-0.00487748
-0.00487811
-0.00487832
-0.00487795
-0.00487732
-0.00487629
-0.00487445
-0.00487105
-0.00486385
-0.00484524
-0.00477022
-0.0045218
-0.00332803
-0.00355956
-0.0036111
-0.00362692
-0.00363288
-0.00363562
-0.00363705
-0.00363782
-0.00363835
-0.0036385
-0.00363817
-0.00363768
-0.00363686
-0.0036354
-0.00363269
-0.00362701
-0.00361253
-0.00355134
-0.00336813
-0.00207076
-0.00225238
-0.00229269
-0.00230512
-0.00230972
-0.0023118
-0.00231287
-0.00231344
-0.00231385
-0.00231395
-0.00231369
-0.00231335
-0.00231276
-0.00231172
-0.0023098
-0.0023058
-0.00229553
-0.00224973
-0.00213592
-0.000776699
-0.000894077
-0.000921544
-0.000930079
-0.000933128
-0.000934471
-0.000935143
-0.000935488
-0.000935764
-0.000935816
-0.000935625
-0.000935443
-0.000935106
-0.000934522
-0.000933433
-0.000931194
-0.000925232
-0.000895797
-0.000854141
0.00052738
0.00048213
0.000469568
0.000465596
0.000464304
0.000463782
0.000463543
0.000463435
0.000463306
0.000463302
0.00046341
0.000463432
0.000463503
0.000463627
0.000463865
0.000464347
0.000465953
0.00047865
0.000447458
0.00181451
0.00184267
0.00184762
0.00184851
0.00184913
0.00184953
0.00184979
0.00184997
0.00185003
0.0018501
0.00185014
0.00185002
0.00184984
0.00184952
0.00184893
0.0018477
0.00184496
0.00184104
0.00173881
0.00305583
0.00315603
0.00317975
0.00318589
0.00318855
0.00318992
0.0031907
0.00319116
0.00319141
0.00319154
0.0031915
0.00319124
0.00319083
0.00319007
0.00318868
0.00318581
0.00317889
0.00315904
0.00298868
0.00422191
0.00439191
0.00443444
0.004446
0.00445066
0.00445294
0.0044542
0.00445492
0.00445533
0.00445551
0.00445539
0.00445498
0.00445433
0.00445315
0.00445098
0.00444652
0.00443558
0.00440058
0.00416704
0.00528459
0.00552203
0.00558198
0.00559866
0.00560517
0.0056083
0.00560998
0.00561094
0.00561151
0.00561173
0.00561154
0.00561099
0.00561012
0.00560855
0.00560567
0.00559975
0.00558515
0.00553646
0.00524716
0.00621739
0.00652159
0.00659499
0.00661625
0.00662446
0.00662836
0.00663044
0.00663161
0.00663231
0.00663258
0.00663231
0.00663164
0.00663056
0.00662863
0.00662508
0.00661778
0.00659981
0.00653886
0.00620287
0.00699912
0.00736574
0.00744945
0.0074746
0.00748428
0.00748885
0.00749128
0.00749263
0.00749346
0.00749376
0.00749343
0.00749265
0.00749139
0.00748912
0.00748498
0.00747642
0.00745544
0.00738385
0.00701112
0.00761275
0.00803209
0.00812521
0.00815344
0.00816429
0.00816942
0.00817214
0.00817366
0.0081746
0.00817493
0.00817455
0.00817368
0.00817225
0.0081697
0.00816503
0.00815538
0.00813179
0.00805111
0.00765184
0.00804608
0.00850495
0.0086054
0.00863651
0.00864847
0.00865412
0.00865711
0.00865878
0.00865981
0.00866018
0.00865976
0.00865882
0.00865726
0.00865449
0.00864939
0.00863885
0.00861311
0.00852502
0.0081093
0.0082904
0.00877521
0.00888004
0.00891328
0.00892611
0.00893208
0.00893521
0.00893695
0.00893803
0.00893841
0.00893795
0.00893697
0.00893532
0.00893237
0.00892694
0.00891573
0.00888839
0.00879475
0.00837075
0.00833933
0.00883425
0.00894278
0.00897763
0.00899079
0.00899689
0.00900009
0.00900186
0.00900297
0.00900336
0.00900288
0.00900187
0.00900016
0.0089971
0.00899146
0.00897983
0.00895146
0.00885402
0.00842886
0.00819183
0.00868544
0.00879284
0.00882769
0.00884106
0.00884726
0.00885054
0.00885234
0.00885348
0.0088539
0.00885342
0.00885242
0.0088507
0.00884761
0.0088419
0.00883014
0.00880142
0.00870239
0.00828204
0.00784623
0.00833266
0.00843568
0.00846853
0.00848147
0.0084875
0.0084907
0.00849246
0.00849359
0.008494
0.00849352
0.00849253
0.00849084
0.00848778
0.00848212
0.00847045
0.0084421
0.00834473
0.00793305
0.00731158
0.0077802
0.00787806
0.00790822
0.00792045
0.00792614
0.00792915
0.00793082
0.00793188
0.00793226
0.00793179
0.00793083
0.00792921
0.00792628
0.00792086
0.00790971
0.0078827
0.00778977
0.00739202
0.00660245
0.00703988
0.00713286
0.00715984
0.00717117
0.00717643
0.0071792
0.00718072
0.00718167
0.00718202
0.00718158
0.00718066
0.00717914
0.0071764
0.00717134
0.00716093
0.00713575
0.00704909
0.00667779
0.0057356
0.00613306
0.00621734
0.0062408
0.0062511
0.00625586
0.00625832
0.00625969
0.00626045
0.00626084
0.00626053
0.0062596
0.00625821
0.00625573
0.00625115
0.00624169
0.00621876
0.00614098
0.00580711
0.00472889
0.00507846
0.00515423
0.00517371
0.00518228
0.00518629
0.00518834
0.00518948
0.00518994
0.00519037
0.00519025
0.0051893
0.00518804
0.00518587
0.00518184
0.00517349
0.0051532
0.00508646
0.00479941
0.0036079
0.00390061
0.00396644
0.00398275
0.00398944
0.00399251
0.00399408
0.00399497
0.00399532
0.00399563
0.0039955
0.00399466
0.00399358
0.00399175
0.00398841
0.00398157
0.00396518
0.00391142
0.00367818
0.00239779
0.00262523
0.00268131
0.00269616
0.00270044
0.00270296
0.00270418
0.00270485
0.00270515
0.00270534
0.00270517
0.00270456
0.00270372
0.00270227
0.00269957
0.00269401
0.00268104
0.00264078
0.00247148
0.0011278
0.00129511
0.00133779
0.00134747
0.00134734
0.00134815
0.00134871
0.00134905
0.00134912
0.00134921
0.00134912
0.0013486
0.00134796
0.00134686
0.00134482
0.00134074
0.00133208
0.00130763
0.00120627
-0.000163508
-8.09888e-05
-5.10201e-05
-3.9548e-05
-3.88938e-05
-3.91128e-05
-3.93835e-05
-3.95981e-05
-3.99097e-05
-4.00164e-05
-4.01329e-05
-4.05939e-05
-4.10794e-05
-4.18651e-05
-4.32828e-05
-4.61526e-05
-5.09392e-05
-5.78894e-05
-8.90383e-05
-0.00146245
-0.00144794
-0.00143409
-0.0014298
-0.00142856
-0.00142856
-0.00142864
-0.00142862
-0.0014286
-0.00142826
-0.00142764
-0.00142683
-0.00142541
-0.00142323
-0.00142059
-0.00142377
-0.00146591
-0.00147603
-0.00134463

