# vtk DataFile Version 2.0
OUTPUT by 3D-VPM
ASCII
DATASET UNSTRUCTURED_GRID
POINTS 120 double
1.035169e+00	4.551728e-03	-4.558979e-03
1.031482e+00	1.052911e+00	-8.841786e-03
1.031388e+00	2.105311e+00	-9.173009e-03
1.031374e+00	3.157910e+00	-9.240106e-03
1.031371e+00	4.210533e+00	-9.260861e-03
1.031370e+00	5.263161e+00	-9.269438e-03
1.031370e+00	6.315791e+00	-9.273667e-03
1.031370e+00	7.368422e+00	-9.275962e-03
1.031370e+00	8.421053e+00	-9.277258e-03
1.031374e+00	9.473560e+00	-9.277244e-03
1.031374e+00	1.052644e+01	-9.277237e-03
1.031370e+00	1.157895e+01	-9.277259e-03
1.031370e+00	1.263158e+01	-9.275983e-03
1.031370e+00	1.368421e+01	-9.273706e-03
1.031370e+00	1.473684e+01	-9.269515e-03
1.031371e+00	1.578947e+01	-9.261039e-03
1.031374e+00	1.684209e+01	-9.240649e-03
1.031387e+00	1.789469e+01	-9.175433e-03
1.031473e+00	1.894709e+01	-8.866554e-03
1.035165e+00	1.999545e+01	-4.583177e-03
1.026813e+00	4.583905e-03	-2.054512e-03
1.024349e+00	1.052942e+00	-4.046142e-03
1.024318e+00	2.105317e+00	-4.220977e-03
1.024314e+00	3.157911e+00	-4.258682e-03
1.024313e+00	4.210533e+00	-4.270434e-03
1.024313e+00	5.263161e+00	-4.275309e-03
1.024313e+00	6.315791e+00	-4.277717e-03
1.024313e+00	7.368422e+00	-4.279020e-03
1.024313e+00	8.421053e+00	-4.279766e-03
1.024316e+00	9.473568e+00	-4.279972e-03
1.024316e+00	1.052643e+01	-4.279960e-03
1.024313e+00	1.157895e+01	-4.279768e-03
1.024313e+00	1.263158e+01	-4.279058e-03
1.024313e+00	1.368421e+01	-4.277787e-03
1.024313e+00	1.473684e+01	-4.275448e-03
1.024313e+00	1.578947e+01	-4.270756e-03
1.024313e+00	1.684209e+01	-4.259661e-03
1.024316e+00	1.789468e+01	-4.225367e-03
1.024331e+00	1.894707e+01	-4.091031e-03
1.026803e+00	1.999541e+01	-2.102398e-03
1.018909e+00	3.854706e-03	1.142137e-03
1.018903e+00	1.052867e+00	2.320442e-03
1.019032e+00	2.105303e+00	2.315039e-03
1.019059e+00	3.157907e+00	2.314070e-03
1.019068e+00	4.210531e+00	2.313575e-03
1.019071e+00	5.263161e+00	2.313331e-03
1.019073e+00	6.315791e+00	2.313202e-03
1.019074e+00	7.368422e+00	2.313135e-03
1.019075e+00	8.421053e+00	2.313090e-03
1.019076e+00	9.473580e+00	2.312887e-03
1.019076e+00	1.052642e+01	2.312905e-03
1.019075e+00	1.157895e+01	2.313098e-03
1.019074e+00	1.263158e+01	2.313109e-03
1.019073e+00	1.368421e+01	2.313156e-03
1.019071e+00	1.473684e+01	2.313236e-03
1.019068e+00	1.578947e+01	2.313346e-03
1.019059e+00	1.684209e+01	2.313331e-03
1.019032e+00	1.789470e+01	2.311535e-03
1.018913e+00	1.894713e+01	2.263730e-03
1.018908e+00	1.999614e+01	1.084821e-03
1.010390e+00	3.086958e-03	9.833420e-04
1.009640e+00	1.052862e+00	1.907952e-03
1.009659e+00	2.105302e+00	1.934552e-03
1.009664e+00	3.157906e+00	1.939797e-03
1.009666e+00	4.210531e+00	1.941068e-03
1.009667e+00	5.263160e+00	1.941517e-03
1.009667e+00	6.315791e+00	1.941719e-03
1.009667e+00	7.368422e+00	1.941827e-03
1.009667e+00	8.421053e+00	1.941913e-03
1.009668e+00	9.473599e+00	1.941800e-03
1.009668e+00	1.052640e+01	1.941788e-03
1.009667e+00	1.157895e+01	1.941912e-03
1.009667e+00	1.263158e+01	1.941853e-03
1.009667e+00	1.368421e+01	1.941767e-03
1.009667e+00	1.473684e+01	1.941610e-03
1.009666e+00	1.578947e+01	1.941283e-03
1.009664e+00	1.684209e+01	1.940451e-03
1.009659e+00	1.789470e+01	1.937568e-03
1.009639e+00	1.894717e+01	1.942540e-03
1.010391e+00	1.999688e+01	1.010488e-03
1.002250e+00	0.000000e+00	1.290673e-03
1.002250e+00	1.052632e+00	1.290673e-03
1.002250e+00	2.105263e+00	1.290673e-03
1.002250e+00	3.157895e+00	1.290673e-03
1.002250e+00	4.210526e+00	1.290673e-03
1.002250e+00	5.263158e+00	1.290673e-03
1.002250e+00	6.315789e+00	1.290673e-03
1.002250e+00	7.368421e+00	1.290673e-03
1.002250e+00	8.421053e+00	1.290673e-03
1.002250e+00	9.473684e+00	1.290673e-03
1.002250e+00	1.052632e+01	1.290673e-03
1.002250e+00	1.157895e+01	1.290673e-03
1.002250e+00	1.263158e+01	1.290673e-03
1.002250e+00	1.368421e+01	1.290673e-03
1.002250e+00	1.473684e+01	1.290673e-03
1.002250e+00	1.578947e+01	1.290673e-03
1.002250e+00	1.684211e+01	1.290673e-03
1.002250e+00	1.789474e+01	1.290673e-03
1.002250e+00	1.894737e+01	1.290673e-03
1.002250e+00	2.000000e+01	1.290673e-03
1.000000e+00	0.000000e+00	1.821969e-03
1.000000e+00	1.052632e+00	1.821969e-03
1.000000e+00	2.105263e+00	1.821969e-03
1.000000e+00	3.157895e+00	1.821969e-03
1.000000e+00	4.210526e+00	1.821969e-03
1.000000e+00	5.263158e+00	1.821969e-03
1.000000e+00	6.315789e+00	1.821969e-03
1.000000e+00	7.368421e+00	1.821969e-03
1.000000e+00	8.421053e+00	1.821969e-03
1.000000e+00	9.473684e+00	1.821969e-03
1.000000e+00	1.052632e+01	1.821969e-03
1.000000e+00	1.157895e+01	1.821969e-03
1.000000e+00	1.263158e+01	1.821969e-03
1.000000e+00	1.368421e+01	1.821969e-03
1.000000e+00	1.473684e+01	1.821969e-03
1.000000e+00	1.578947e+01	1.821969e-03
1.000000e+00	1.684211e+01	1.821969e-03
1.000000e+00	1.789474e+01	1.821969e-03
1.000000e+00	1.894737e+01	1.821969e-03
1.000000e+00	2.000000e+01	1.821969e-03

CELLS 95 475
4 20 0 1 21 
4 21 1 2 22 
4 22 2 3 23 
4 23 3 4 24 
4 24 4 5 25 
4 25 5 6 26 
4 26 6 7 27 
4 27 7 8 28 
4 28 8 9 29 
4 29 9 10 30 
4 30 10 11 31 
4 31 11 12 32 
4 32 12 13 33 
4 33 13 14 34 
4 34 14 15 35 
4 35 15 16 36 
4 36 16 17 37 
4 37 17 18 38 
4 38 18 19 39 
4 40 20 21 41 
4 41 21 22 42 
4 42 22 23 43 
4 43 23 24 44 
4 44 24 25 45 
4 45 25 26 46 
4 46 26 27 47 
4 47 27 28 48 
4 48 28 29 49 
4 49 29 30 50 
4 50 30 31 51 
4 51 31 32 52 
4 52 32 33 53 
4 53 33 34 54 
4 54 34 35 55 
4 55 35 36 56 
4 56 36 37 57 
4 57 37 38 58 
4 58 38 39 59 
4 60 40 41 61 
4 61 41 42 62 
4 62 42 43 63 
4 63 43 44 64 
4 64 44 45 65 
4 65 45 46 66 
4 66 46 47 67 
4 67 47 48 68 
4 68 48 49 69 
4 69 49 50 70 
4 70 50 51 71 
4 71 51 52 72 
4 72 52 53 73 
4 73 53 54 74 
4 74 54 55 75 
4 75 55 56 76 
4 76 56 57 77 
4 77 57 58 78 
4 78 58 59 79 
4 80 60 61 81 
4 81 61 62 82 
4 82 62 63 83 
4 83 63 64 84 
4 84 64 65 85 
4 85 65 66 86 
4 86 66 67 87 
4 87 67 68 88 
4 88 68 69 89 
4 89 69 70 90 
4 90 70 71 91 
4 91 71 72 92 
4 92 72 73 93 
4 93 73 74 94 
4 94 74 75 95 
4 95 75 76 96 
4 96 76 77 97 
4 97 77 78 98 
4 98 78 79 99 
4 100 80 81 101 
4 101 81 82 102 
4 102 82 83 103 
4 103 83 84 104 
4 104 84 85 105 
4 105 85 86 106 
4 106 86 87 107 
4 107 87 88 108 
4 108 88 89 109 
4 109 89 90 110 
4 110 90 91 111 
4 111 91 92 112 
4 112 92 93 113 
4 113 93 94 114 
4 114 94 95 115 
4 115 95 96 116 
4 116 96 97 117 
4 117 97 98 118 
4 118 98 99 119 

CELL_TYPES 95
9
9
9
9
9
9
9
9
9
9
9
9
9
9
9
9
9
9
9
9
9
9
9
9
9
9
9
9
9
9
9
9
9
9
9
9
9
9
9
9
9
9
9
9
9
9
9
9
9
9
9
9
9
9
9
9
9
9
9
9
9
9
9
9
9
9
9
9
9
9
9
9
9
9
9
9
9
9
9
9
9
9
9
9
9
9
9
9
9
9
9
9
9
9
9

CELL_DATA 95
SCALARS Mu double 1
LOOKUP_TABLE default
-2.66312e-11
-3.10664e-11
-3.18437e-11
-3.20552e-11
-3.21323e-11
-3.21718e-11
-3.21894e-11
-3.2205e-11
-3.22268e-11
-3.22102e-11
-3.22278e-11
-3.22073e-11
-3.21913e-11
-3.21714e-11
-3.21368e-11
-3.20551e-11
-3.18426e-11
-3.10702e-11
-2.66293e-11
0.00415121
0.00443406
0.00448509
0.00449967
0.00450535
0.00450804
0.00450948
0.00451029
0.00451071
0.00451085
0.00451071
0.00451029
0.00450948
0.00450804
0.00450535
0.00449967
0.00448509
0.00443406
0.00415121
0.00559784
0.00596326
0.00603655
0.00605728
0.0060653
0.00606909
0.00607111
0.00607224
0.0060729
0.00607312
0.00607289
0.00607226
0.00607116
0.00606918
0.00606547
0.00605767
0.0060378
0.00596923
0.00564305
0.00640968
0.00693568
0.00702847
0.00705412
0.00706391
0.0070685
0.00707094
0.00707229
0.00707316
0.0070734
0.00707305
0.00707236
0.00707106
0.00706873
0.00706438
0.00705529
0.00703244
0.00695572
0.00671908

