# vtk DataFile Version 2.0
OUTPUT by 3D-VPM
ASCII
DATASET UNSTRUCTURED_GRID
POINTS 1240 double
1.513184e+00	4.455760e-02	3.371455e-02
1.526773e+00	1.062239e+00	3.688400e-02
1.526809e+00	2.107453e+00	2.942709e-02
1.526452e+00	3.158565e+00	2.708471e-02
1.526312e+00	4.210801e+00	2.636458e-02
1.526267e+00	5.263305e+00	2.607148e-02
1.526247e+00	6.315890e+00	2.594395e-02
1.526231e+00	7.368493e+00	2.587709e-02
1.526222e+00	8.421103e+00	2.584482e-02
1.526233e+00	9.473516e+00	2.582491e-02
1.526234e+00	1.052648e+01	2.582620e-02
1.526218e+00	1.157890e+01	2.583761e-02
1.526230e+00	1.263151e+01	2.587413e-02
1.526246e+00	1.368411e+01	2.593819e-02
1.526264e+00	1.473670e+01	2.605873e-02
1.526304e+00	1.578921e+01	2.633105e-02
1.526426e+00	1.684149e+01	2.698034e-02
1.526766e+00	1.789282e+01	2.900429e-02
1.526637e+00	1.894128e+01	3.258101e-02
1.518356e+00	1.995393e+01	3.720278e-02
1.516819e+00	3.259765e-02	8.523951e-03
1.505365e+00	1.058649e+00	1.104672e-02
1.502651e+00	2.106600e+00	1.219638e-02
1.501931e+00	3.158326e+00	1.274603e-02
1.501739e+00	4.210754e+00	1.292389e-02
1.501653e+00	5.263293e+00	1.300459e-02
1.501624e+00	6.315867e+00	1.303865e-02
1.501616e+00	7.368465e+00	1.305282e-02
1.501614e+00	8.421078e+00	1.305900e-02
1.501643e+00	9.473513e+00	1.305826e-02
1.501643e+00	1.052649e+01	1.305812e-02
1.501613e+00	1.157893e+01	1.305937e-02
1.501616e+00	1.263154e+01	1.305307e-02
1.501623e+00	1.368413e+01	1.303947e-02
1.501649e+00	1.473671e+01	1.300723e-02
1.501727e+00	1.578925e+01	1.293099e-02
1.501899e+00	1.684168e+01	1.276509e-02
1.502512e+00	1.789345e+01	1.227649e-02
1.503615e+00	1.894192e+01	1.144431e-02
1.521491e+00	1.995427e+01	2.158675e-02
1.518498e+00	3.072927e-02	1.672711e-02
1.515763e+00	1.059594e+00	2.029343e-02
1.513550e+00	2.107971e+00	2.468884e-02
1.514052e+00	3.158831e+00	2.498216e-02
1.514235e+00	4.210899e+00	2.491240e-02
1.514310e+00	5.263335e+00	2.484704e-02
1.514346e+00	6.315884e+00	2.481816e-02
1.514364e+00	7.368473e+00	2.480710e-02
1.514373e+00	8.421083e+00	2.480284e-02
1.514401e+00	9.473525e+00	2.480496e-02
1.514400e+00	1.052647e+01	2.480496e-02
1.514373e+00	1.157892e+01	2.480213e-02
1.514364e+00	1.263153e+01	2.480648e-02
1.514347e+00	1.368412e+01	2.481668e-02
1.514312e+00	1.473667e+01	2.484324e-02
1.514240e+00	1.578912e+01	2.490408e-02
1.514073e+00	1.684125e+01	2.497469e-02
1.513622e+00	1.789230e+01	2.476425e-02
1.514084e+00	1.894209e+01	2.227575e-02
1.517251e+00	1.996562e+01	1.478041e-02
1.531255e+00	2.733702e-02	2.496892e-02
1.499989e+00	1.058588e+00	3.121275e-02
1.499384e+00	2.106409e+00	3.187254e-02
1.499887e+00	3.158241e+00	3.200794e-02
1.500090e+00	4.210666e+00	3.204441e-02
1.500187e+00	5.263225e+00	3.205527e-02
1.500232e+00	6.315826e+00	3.206237e-02
1.500253e+00	7.368441e+00	3.206765e-02
1.500261e+00	8.421062e+00	3.207132e-02
1.500289e+00	9.473517e+00	3.206978e-02
1.500289e+00	1.052648e+01	3.206967e-02
1.500262e+00	1.157894e+01	3.207105e-02
1.500253e+00	1.263156e+01	3.206768e-02
1.500233e+00	1.368417e+01	3.206233e-02
1.500190e+00	1.473678e+01	3.205493e-02
1.500097e+00	1.578934e+01	3.204341e-02
1.499904e+00	1.684177e+01	3.200551e-02
1.499454e+00	1.789362e+01	3.187586e-02
1.499695e+00	1.894253e+01	3.150319e-02
1.532076e+00	1.996545e+01	1.948519e-02
1.507254e+00	2.745432e-02	3.324597e-02
1.528844e+00	1.054815e+00	2.483905e-02
1.528053e+00	2.105735e+00	1.832609e-02
1.527691e+00	3.158040e+00	1.712828e-02
1.527597e+00	4.210587e+00	1.679134e-02
1.527554e+00	5.263188e+00	1.664670e-02
1.527542e+00	6.315806e+00	1.658487e-02
1.527542e+00	7.368430e+00	1.655766e-02
1.527543e+00	8.421055e+00	1.654426e-02
1.527573e+00	9.473514e+00	1.655003e-02
1.527573e+00	1.052649e+01	1.655029e-02
1.527542e+00	1.157894e+01	1.654360e-02
1.527542e+00	1.263157e+01	1.655683e-02
1.527542e+00	1.368419e+01	1.658301e-02
1.527552e+00	1.473681e+01	1.664171e-02
1.527591e+00	1.578941e+01	1.677817e-02
1.527677e+00	1.684196e+01	1.708852e-02
1.527995e+00	1.789430e+01	1.815391e-02
1.528480e+00	1.894545e+01	2.169245e-02
1.507447e+00	1.997278e+01	3.534709e-02
1.493915e+00	2.159533e-02	3.984941e-02
1.500981e+00	1.055808e+00	5.672966e-02
1.504664e+00	2.105868e+00	5.622435e-02
1.505419e+00	3.158075e+00	5.609660e-02
1.505652e+00	4.210600e+00	5.606251e-02
1.505754e+00	5.263194e+00	5.604570e-02
1.505802e+00	6.315809e+00	5.604022e-02
1.505827e+00	7.368432e+00	5.603925e-02
1.505839e+00	8.421057e+00	5.603972e-02
1.505868e+00	9.473513e+00	5.604249e-02
1.505867e+00	1.052649e+01	5.604233e-02
1.505839e+00	1.157894e+01	5.603932e-02
1.505827e+00	1.263157e+01	5.603914e-02
1.505803e+00	1.368419e+01	5.603992e-02
1.505756e+00	1.473681e+01	5.604476e-02
1.505658e+00	1.578940e+01	5.606005e-02
1.505440e+00	1.684193e+01	5.608979e-02
1.504769e+00	1.789418e+01	5.620477e-02
1.502555e+00	1.894508e+01	5.707289e-02
1.493738e+00	1.997703e+01	4.289081e-02
1.480929e+00	2.348826e-02	4.324711e-02
1.477260e+00	1.055384e+00	6.581077e-02
1.479227e+00	2.105810e+00	6.710421e-02
1.479701e+00	3.158062e+00	6.730214e-02
1.479857e+00	4.210595e+00	6.736239e-02
1.479928e+00	5.263192e+00	6.738713e-02
1.479962e+00	6.315808e+00	6.740010e-02
1.479979e+00	7.368431e+00	6.740759e-02
1.479987e+00	8.421057e+00	6.741207e-02
1.480017e+00	9.473498e+00	6.741510e-02
1.480017e+00	1.052650e+01	6.741521e-02
1.479987e+00	1.157894e+01	6.741185e-02
1.479979e+00	1.263157e+01	6.740677e-02
1.479962e+00	1.368419e+01	6.739857e-02
1.479929e+00	1.473681e+01	6.738404e-02
1.479861e+00	1.578941e+01	6.735530e-02
1.479715e+00	1.684194e+01	6.728102e-02
1.479289e+00	1.789422e+01	6.702002e-02
1.477695e+00	1.894531e+01	6.619527e-02
1.479419e+00	1.997501e+01	4.415977e-02
1.468875e+00	2.377569e-02	4.088606e-02
1.456939e+00	1.055145e+00	6.854702e-02
1.457852e+00	2.105774e+00	7.021760e-02
1.458207e+00	3.158052e+00	7.047939e-02
1.458323e+00	4.210592e+00	7.056259e-02
1.458375e+00	5.263190e+00	7.059841e-02
1.458400e+00	6.315807e+00	7.061644e-02
1.458413e+00	7.368431e+00	7.062629e-02
1.458419e+00	8.421057e+00	7.063181e-02
1.458449e+00	9.473505e+00	7.063521e-02
1.458449e+00	1.052649e+01	7.063558e-02
1.458419e+00	1.157894e+01	7.063157e-02
1.458415e+00	1.263157e+01	7.062461e-02
1.458403e+00	1.368419e+01	7.061338e-02
1.458381e+00	1.473681e+01	7.059240e-02
1.458338e+00	1.578941e+01	7.054890e-02
1.458255e+00	1.684195e+01	7.043867e-02
1.458065e+00	1.789425e+01	7.004139e-02
1.457962e+00	1.894541e+01	6.805997e-02
1.467899e+00	1.997685e+01	4.120801e-02
1.457419e+00	1.918123e-02	3.867720e-02
1.438323e+00	1.055008e+00	6.727306e-02
1.438652e+00	2.105754e+00	6.890416e-02
1.438989e+00	3.158045e+00	6.918519e-02
1.439085e+00	4.210589e+00	6.927634e-02
1.439125e+00	5.263189e+00	6.931565e-02
1.439144e+00	6.315807e+00	6.933515e-02
1.439153e+00	7.368430e+00	6.934564e-02
1.439157e+00	8.421057e+00	6.935151e-02
1.439188e+00	9.473515e+00	6.935539e-02
1.439187e+00	1.052648e+01	6.935569e-02
1.439157e+00	1.157894e+01	6.935111e-02
1.439156e+00	1.263157e+01	6.934371e-02
1.439150e+00	1.368419e+01	6.933170e-02
1.439137e+00	1.473681e+01	6.930908e-02
1.439115e+00	1.578941e+01	6.926182e-02
1.439085e+00	1.684196e+01	6.914396e-02
1.439090e+00	1.789426e+01	6.872526e-02
1.440231e+00	1.894551e+01	6.664133e-02
1.457200e+00	1.998041e+01	3.888233e-02
1.444985e+00	1.937656e-02	4.082298e-02
1.421253e+00	1.054889e+00	6.274013e-02
1.421307e+00	2.105738e+00	6.420614e-02
1.421678e+00	3.158040e+00	6.450401e-02
1.421757e+00	4.210587e+00	6.459617e-02
1.421786e+00	5.263188e+00	6.463451e-02
1.421800e+00	6.315806e+00	6.465312e-02
1.421806e+00	7.368430e+00	6.466298e-02
1.421808e+00	8.421056e+00	6.466871e-02
1.421842e+00	9.473525e+00	6.467243e-02
1.421841e+00	1.052647e+01	6.467229e-02
1.421809e+00	1.157894e+01	6.466791e-02
1.421810e+00	1.263157e+01	6.466116e-02
1.421808e+00	1.368419e+01	6.464988e-02
1.421803e+00	1.473681e+01	6.462869e-02
1.421795e+00	1.578941e+01	6.458490e-02
1.421799e+00	1.684196e+01	6.447856e-02
1.421881e+00	1.789427e+01	6.412013e-02
1.423273e+00	1.894556e+01	6.263318e-02
1.445249e+00	1.998203e+01	3.995752e-02
1.435521e+00	2.256439e-02	3.646609e-02
1.407485e+00	1.055054e+00	5.504201e-02
1.406167e+00	2.105736e+00	5.650575e-02
1.406217e+00	3.158037e+00	5.691194e-02
1.406236e+00	4.210587e+00	5.700983e-02
1.406243e+00	5.263188e+00	5.704516e-02
1.406247e+00	6.315806e+00	5.706119e-02
1.406249e+00	7.368430e+00	5.706942e-02
1.406246e+00	8.421057e+00	5.707441e-02
1.406274e+00	9.473510e+00	5.708068e-02
1.406276e+00	1.052649e+01	5.708016e-02
1.406250e+00	1.157894e+01	5.707324e-02
1.406251e+00	1.263157e+01	5.706779e-02
1.406251e+00	1.368419e+01	5.705849e-02
1.406251e+00	1.473681e+01	5.704097e-02
1.406249e+00	1.578941e+01	5.700512e-02
1.406252e+00	1.684196e+01	5.692071e-02
1.406293e+00	1.789427e+01	5.664412e-02
1.407378e+00	1.894552e+01	5.590209e-02
1.435115e+00	1.997843e+01	3.716971e-02
1.426478e+00	2.012001e-02	3.038579e-02
1.391298e+00	1.054901e+00	4.286100e-02
1.393691e+00	2.105750e+00	4.550572e-02
1.392251e+00	3.158040e+00	4.594983e-02
1.392012e+00	4.210587e+00	4.608662e-02
1.391929e+00	5.263188e+00	4.612032e-02
1.391892e+00	6.315806e+00	4.613305e-02
1.391872e+00	7.368430e+00	4.613867e-02
1.391855e+00	8.421057e+00	4.614031e-02
1.391859e+00	9.473510e+00	4.614660e-02
1.391860e+00	1.052649e+01	4.614812e-02
1.391844e+00	1.157894e+01	4.614054e-02
1.391840e+00	1.263157e+01	4.613569e-02
1.391837e+00	1.368419e+01	4.612919e-02
1.391829e+00	1.473681e+01	4.611532e-02
1.391819e+00	1.578941e+01	4.608550e-02
1.391772e+00	1.684196e+01	4.600540e-02
1.391712e+00	1.789426e+01	4.573819e-02
1.393850e+00	1.894543e+01	4.616488e-02
1.426158e+00	1.998029e+01	3.092529e-02
1.415106e+00	1.745974e-02	2.617419e-02
1.397955e+00	1.052096e+00	2.812618e-02
1.389344e+00	2.105156e+00	2.498288e-02
1.382746e+00	3.158017e+00	2.389247e-02
1.382662e+00	4.210581e+00	2.497285e-02
1.382628e+00	5.263186e+00	2.544942e-02
1.382621e+00	6.315805e+00	2.565646e-02
1.382620e+00	7.368430e+00	2.575708e-02
1.382619e+00	8.421056e+00	2.580179e-02
1.382719e+00	9.473510e+00	2.594836e-02
1.382718e+00	1.052649e+01	2.597809e-02
1.382613e+00	1.157894e+01	2.587885e-02
1.382615e+00	1.263157e+01	2.589513e-02
[...]
CELL_DATA 1159
SCALARS Mu double 1
LOOKUP_TABLE default
-2.66312e-11
-3.10664e-11
-3.18437e-11
-3.20552e-11
-3.21323e-11
-3.21718e-11
-3.21894e-11
-3.2205e-11
-3.22268e-11
-3.22102e-11
-3.22278e-11
-3.22073e-11
-3.21913e-11
-3.21714e-11
-3.21368e-11
-3.20551e-11
-3.18426e-11
-3.10702e-11
-2.66293e-11
0.00415121
0.00443406
0.00448509
0.00449967
0.00450535
0.00450804
0.00450948
0.00451029
0.00451071
0.00451085
0.00451071
0.00451029
0.00450948
0.00450804
0.00450535
0.00449967
0.00448509
0.00443406
0.00415121
0.00559784
0.00596326
0.00603655
0.00605728
0.0060653
0.00606909
0.00607111
0.00607224
0.0060729
0.00607312
0.00607289
0.00607226
0.00607116
0.00606918
0.00606547
0.00605767
0.0060378
0.00596923
0.00564305
0.00640968
0.00693568
0.00702847
0.00705412
0.00706391
0.0070685
0.00707094
0.00707229
0.00707316
0.0070734
0.00707305
0.00707236
0.00707106
0.00706873
0.00706438
0.00705529
0.00703244
0.00695572
0.00671908
0.0069648
0.00755651
0.00765777
0.00768596
0.00769675
0.00770181
0.0077045
0.00770599
0.00770694
0.00770723
0.00770685
0.00770605
0.0077046
0.00770201
0.00769715
0.00768698
0.00766127
0.00757311
0.00733451
0.00726833
0.00788298
0.00798796
0.00801715
0.00802839
0.00803369
0.00803651
0.00803807
0.00803905
0.00803939
0.008039
0.0080381
0.00803655
0.00803377
0.00802854
0.00801754
0.00798942
0.00788835
0.007577
0.00733533
0.00794558
0.00804937
0.0080786
0.00808994
0.00809532
0.00809817
0.00809976
0.00810073
0.00810112
0.00810073
0.00809976
0.00809816
0.00809528
0.00808987
0.00807842
0.00804897
0.00794052
0.00752251
0.00717642
0.00775941
0.00786198
0.00789115
0.00790248
0.00790784
0.00791069
0.00791227
0.00791325
0.00791363
0.00791323
0.00791227
0.00791067
0.00790781
0.00790243
0.00789104
0.00786183
0.00775361
0.00731422
0.00680116
0.00734184
0.00744473
0.00747379
0.00748499
0.00749026
0.00749305
0.0074946
0.00749559
0.00749595
0.00749554
0.00749464
0.0074931
0.00749035
0.00748519
0.00747431
0.00744667
0.00734469
0.00694306
0.00622373
0.00671545
0.006818
0.00684641
0.00685723
0.0068623
0.00686497
0.00686644
0.00686742
0.00686774
0.00686733
0.00686651
0.00686508
0.00686251
0.0068577
0.00684762
0.00682229
0.0067289
0.00638513
0.00546651
0.0059058
0.00600398
0.0060307
0.00604079
0.00604548
0.00604795
0.0060493
0.00605022
0.00605051
0.00605011
0.00604939
0.00604809
0.00604576
0.00604139
0.00603228
0.00600961
0.00592591
0.00564692
0.00454778
0.00493779
0.00502658
0.00505052
0.00505952
0.00506368
0.00506586
0.00506705
0.00506788
0.00506812
0.00506775
0.00506713
0.00506598
0.00506393
0.00506008
0.00505208
0.00503231
0.00495926
0.00474823
0.00347496
0.00383336
0.00391132
0.00393196
0.00393968
0.00394323
0.00394508
0.00394609
0.00394679
0.003947
0.00394669
0.00394617
0.0039452
0.00394347
0.00394023
0.00393349
0.00391693
0.00385573
0.00371128
0.00229078
0.0026212
0.00268695
0.00270386
0.00271013
0.00271301
0.0027145
0.00271531
0.00271587
0.00271604
0.0027158
0.00271539
0.00271464
0.00271327
0.00271071
0.0027054
0.00269243
0.00264445
0.00256079
0.00105664
0.00133609
0.00138515
0.0013975
0.00140205
0.00140412
0.00140519
0.00140577
0.00140617
0.0014063
0.00140612
0.00140584
0.00140531
0.00140435
0.00140255
0.00139881
0.00138982
0.00135657
0.00132289
-0.000209143
6.43864e-06
3.77109e-05
4.5225e-05
4.79346e-05
4.91465e-05
4.97616e-05
5.00891e-05
5.03252e-05
5.03915e-05
5.02853e-05
5.01526e-05
4.9865e-05
4.93396e-05
4.83492e-05
4.63025e-05
4.16187e-05
2.43149e-05
3.41971e-05
-0.00147823
-0.00133624
-0.00132229
-0.00131959
-0.00131872
-0.00131838
-0.00131822
-0.00131815
-0.00131807
-0.00131807
-0.0013181
-0.00131809
-0.00131812
-0.00131819
-0.00131834
-0.00131862
-0.0013188
-0.00131969
-0.00126034
-0.0027229
-0.00265853
-0.00266119
-0.0026632
-0.00266413
-0.00266463
-0.00266492
-0.0026651
-0.00266518
-0.00266523
-0.00266519
-0.00266503
-0.00266481
-0.00266443
-0.00266372
-0.00266221
-0.00265782
-0.00264222
-0.00252414
-0.0039124
-0.00392742
-0.00394586
-0.00395235
-0.00395502
-0.00395634
-0.00395707
-0.00395749
-0.00395773
-0.00395783
-0.00395772
-0.0039574
-0.00395693
-0.0039561
-0.00395456
-0.00395128
-0.00394238
-0.0039105
-0.00373133
-0.00501246
-0.00511084
-0.0051444
-0.00515517
-0.0051595
-0.00516161
-0.00516276
-0.00516341
-0.00516379
-0.00516396
-0.00516378
-0.00516331
-0.0051626
-0.00516134
-0.005159
-0.00515403
-0.00514076
-0.00509319
-0.00485636
-0.00599743
-0.00617912
-0.00622714
-0.00624195
-0.00624786
-0.00625073
-0.00625228
-0.00625316
-0.00625368
-0.0062539
-0.00625367
-0.00625306
-0.00625214
-0.00625048
-0.00624739
-0.00624084
-0.00622349
-0.00616118
-0.00587251
-0.00684815
-0.00710615
-0.00716781
-0.00718629
-0.00719359
-0.00719711
-0.007199
-0.00720007
-0.0072007
-0.00720097
-0.00720069
-0.00719995
-0.00719882
-0.00719681
-0.00719304
-0.00718506
-0.00716403
-0.00708828
-0.00675498
-0.00754625
-0.00786968
-0.00794355
-0.00796506
-0.00797352
-0.00797758
-0.00797977
-0.00798099
-0.00798172
-0.00798204
-0.0079817
-0.00798085
-0.00797955
-0.00797723
-0.00797288
-0.00796367
-0.00793946
-0.00785187
-0.00748208
-0.00807533
-0.0084516
-0.00853532
-0.00855931
-0.00856871
-0.00857322
-0.00857565
-0.008577
-0.00857781
-0.00857816
-0.00857778
-0.00857685
-0.0085754
-0.00857283
-0.008568
-0.00855777
-0.00853098
-0.00843343
-0.00803566
-0.00842295
-0.00883826
-0.00892879
-0.00895469
-0.00896483
-0.00896968
-0.00897229
-0.00897375
-0.00897462
-0.00897499
-0.00897458
-0.00897358
-0.00897202
-0.00896926
-0.00896407
-0.00895308
-0.00892435
-0.008819
-0.00840153
-0.00858194
-0.0090205
-0.00911455
-0.00914177
-0.00915241
-0.0091575
-0.00916024
-0.00916177
-0.00916267
-0.00916306
-0.00916263
-0.00916158
-0.00915995
-0.00915706
-0.00915164
-0.00914015
-0.00911018
-0.00899937
-0.00857001
-0.00855017
-0.00899359
-0.00908844
-0.00911622
-0.00912707
-0.00913227
-0.00913505
-0.00913661
-0.00913753
-0.00913793
-0.00913747
-0.00913641
-0.00913475
-0.00913181
-0.00912628
-0.00911457
-0.00908405
-0.00897033
-0.00853641
-0.00832804
-0.0087578
-0.00885102
-0.00887865
-0.00888943
-0.00889459
-0.00889735
-0.00889889
-0.00889981
-0.0089002
-0.00889973
-0.00889868
-0.00889701
-0.00889409
-0.00888859
-0.00887694
-0.0088466
-0.00873265
-0.0083014
-0.00791337
-0.00831811
-0.00840773
-0.00843456
-0.00844501
-0.00844999
-0.00845266
-0.00845415
-0.00845504
-0.00845541
-0.00845494
-0.00845393
-0.00845231
-0.00844947
-0.00844414
-0.00843284
-0.00840343
-0.00829202
-0.00787076
-0.0073058
-0.00768353
-0.00776858
-0.00779417
-0.0078041
-0.00780881
-0.00781132
-0.00781271
-0.00781357
-0.0078139
-0.00781344
-0.0078125
-0.00781098
-0.00780829
-0.00780327
-0.00779262
-0.00776491
-0.00765902
-0.00726026
-0.0065271
-0.00686922
-0.00694837
-0.00697229
-0.00698151
-0.00698586
-0.00698817
-0.00698945
-0.00699026
-0.00699055
-0.00699011
-0.00698926
-0.00698788
-0.00698542
-0.00698084
-0.00697113
-0.00694588
-0.00684858
-0.00648654
-0.00559281
-0.0058951
-0.00596642
-0.00598805
-0.00599634
-0.00600023
-0.00600229
-0.00600342
-0.00600415
-0.00600441
-0.006004
-0.00600326
-0.00600204
-0.00599987
-0.00599583
-0.00598729
-0.00596509
-0.00587837
-0.00556886
-0.00451399
-0.00478328
-0.00484533
-0.00486424
-0.00487142
-0.00487476
-0.00487651
-0.00487748
-0.00487811
-0.00487832
-0.00487795
-0.00487732
-0.00487629
-0.00487445
-0.00487105
-0.00486385
-0.00484524
-0.00477022
-0.0045218
-0.00332803
-0.00355956
-0.0036111
-0.00362692
-0.00363288
-0.00363562
-0.00363705
-0.00363782
-0.00363835
-0.0036385
-0.00363817
-0.00363768
-0.00363686
-0.0036354
-0.00363269
-0.00362701
-0.00361253
-0.00355134
-0.00336813
-0.00207076
-0.00225238
-0.00229269
-0.00230512
-0.00230972
-0.0023118
-0.00231287
-0.00231344
-0.00231385
-0.00231395
-0.00231369
-0.00231335
-0.00231276
-0.00231172
-0.0023098
-0.0023058
-0.00229553
-0.00224973
-0.00213592
-0.000776699
-0.000894077
-0.000921544
-0.000930079
-0.000933128
-0.000934471
-0.000935143
-0.000935488
-0.000935764
-0.000935816
-0.000935625
-0.000935443
-0.000935106
-0.000934522
-0.000933433
-0.000931194
-0.000925232
-0.000895797
-0.000854141
0.00052738
0.00048213
0.000469568
0.000465596
0.000464304
0.000463782
0.000463543
0.000463435
0.000463306
0.000463302
0.00046341
0.000463432
0.000463503
0.000463627
0.000463865
0.000464347
0.000465953
0.00047865
0.000447458
0.00181451
0.00184267
0.00184762
0.00184851
0.00184913
0.00184953
0.00184979
0.00184997
0.00185003
0.0018501
0.00185014
0.00185002
0.00184984
0.00184952
0.00184893
0.0018477
0.00184496
0.00184104
0.00173881
0.00305583
0.00315603
0.00317975
0.00318589
0.00318855
0.00318992
0.0031907
0.00319116
0.00319141
0.00319154
0.0031915
0.00319124
0.00319083
0.00319007
0.00318868
0.00318581
0.00317889
0.00315904
0.00298868
0.00422191
0.00439191
0.00443444
0.004446
0.00445066
0.00445294
0.0044542
0.00445492
0.00445533
0.00445551
0.00445539
0.00445498
0.00445433
0.00445315
0.00445098
0.00444652
0.00443558
0.00440058
0.00416704
0.00528459
0.00552203
0.00558198
0.00559866
0.00560517
0.0056083
0.00560998
0.00561094
0.00561151
0.00561173
0.00561154
0.00561099
0.00561012
0.00560855
0.00560567
0.00559975
0.00558515
0.00553646
0.00524716
0.00621739
0.00652159
0.00659499
0.00661625
0.00662446
0.00662836
0.00663044
0.00663161
0.00663231
0.00663258
0.00663231
0.00663164
0.00663056
0.00662863
0.00662508
0.00661778
0.00659981
0.00653886
0.00620287
0.00699912
0.00736574
0.00744945
0.0074746
0.00748428
0.00748885
0.00749128
0.00749263
0.00749346
0.00749376
0.00749343
0.00749265
0.00749139
0.00748912
0.00748498
0.00747642
0.00745544
0.00738385
0.00701112
0.00761275
0.00803209
0.00812521
0.00815344
0.00816429
0.00816942
0.00817214
0.00817366
0.0081746
0.00817493
0.00817455
0.00817368
0.00817225
0.0081697
0.00816503
0.00815538
0.00813179
0.00805111
0.00765184
0.00804608
0.00850495
0.0086054
0.00863651
0.00864847
0.00865412
0.00865711
0.00865878
0.00865981
0.00866018
0.00865976
0.00865882
0.00865726
0.00865449
0.00864939
0.00863885
0.00861311
0.00852502
0.0081093
0.0082904
0.00877521
0.00888004
0.00891328
0.00892611
0.00893208
0.00893521
0.00893695
0.00893803
0.00893841
0.00893795
0.00893697
0.00893532
0.00893237
0.00892694
0.00891573
0.00888839
0.00879475
0.00837075
0.00833933
0.00883425
0.00894278
0.00897763
0.00899079
0.00899689
0.00900009
0.00900186
0.00900297
0.00900336
0.00900288
0.00900187
0.00900016
0.0089971
0.00899146
0.00897983
0.00895146
0.00885402
0.00842886
0.00819183
0.00868544
0.00879284
0.00882769
0.00884106
0.00884726
0.00885054
0.00885234
0.00885348
0.0088539
0.00885342
0.00885242
0.0088507
0.00884761
0.0088419
0.00883014
0.00880142
0.00870239
0.00828204
0.00784623
0.00833266
0.00843568
0.00846853
0.00848147
0.0084875
0.0084907
0.00849246
0.00849359
0.008494
0.00849352
0.00849253
0.00849084
0.00848778
0.00848212
0.00847045
0.0084421
0.00834473
0.00793305
0.00731158
0.0077802
0.00787806
0.00790822
0.00792045
0.00792614
0.00792915
0.00793082
0.00793188
0.00793226
0.00793179
0.00793083
0.00792921
0.00792628
0.00792086
0.00790971
0.0078827
0.00778977
0.00739202
0.00660245
0.00703988
0.00713286
0.00715984
0.00717117
0.00717643
0.0071792
0.00718072
0.00718167
0.00718202
0.00718158
0.00718066
0.00717914
0.0071764
0.00717134
0.00716093
0.00713575
0.00704909
0.00667779
0.0057356
0.00613306
0.00621734
0.0062408
0.0062511
0.00625586
0.00625832
0.00625969
0.00626045
0.00626084
0.00626053
0.0062596
0.00625821
0.00625573
0.00625115
0.00624169
0.00621876
0.00614098
0.00580711
0.00472889
0.00507846
0.00515423
0.00517371
0.00518228
0.00518629
0.00518834
0.00518948
0.00518994
0.00519037
0.00519025
0.0051893
0.00518804
0.00518587
0.00518184
0.00517349
0.0051532
0.00508646
0.00479941
0.0036079
0.00390061
0.00396644
0.00398275
0.00398944
0.00399251
0.00399408
0.00399497
0.00399532
0.00399563
0.0039955
0.00399466
0.00399358
0.00399175
0.00398841
0.00398157
0.00396518
0.00391142
0.00367818
0.00239779
0.00262523
0.00268131
0.00269616
0.00270044
0.00270296
0.00270418
0.00270485
0.00270515
0.00270534
0.00270517
0.00270456
0.00270372
0.00270227
0.00269957
0.00269401
0.00268104
0.00264078
0.00247148
0.0011278
0.00129511
0.00133779
0.00134747
0.00134734
0.00134815
0.00134871
0.00134905
0.00134912
0.00134921
0.00134912
0.0013486
0.00134796
0.00134686
0.00134482
0.00134074
0.00133208
0.00130763
0.00120627
-0.000163508
-8.09888e-05
-5.10201e-05
-3.9548e-05
-3.88938e-05
-3.91128e-05
-3.93835e-05
-3.95981e-05
-3.99097e-05
-4.00164e-05
-4.01329e-05
-4.05939e-05
-4.10794e-05
-4.18651e-05
-4.32828e-05
-4.61526e-05
-5.09392e-05
-5.78894e-05
-8.90383e-05
-0.00146245
-0.00144794
-0.00143409
-0.0014298
-0.00142856
-0.00142856
-0.00142864
-0.00142862
-0.0014286
-0.00142826
-0.00142764
-0.00142683
-0.00142541
-0.00142323
-0.00142059
-0.00142377
-0.00146591
-0.00147603
-0.00134463
-0.00271621
-0.00277546
-0.00278056
-0.0027829
-0.00278468
-0.00278566
-0.00278622
-0.00278653
-0.00278671
-0.00278669
-0.00278632
-0.00278553
-0.00278398
-0.00278128
-0.00277743
-0.00277614
-0.00279549
-0.00277749
-0.00263635
-0.00390257
-0.00403964
-0.00406045
-0.00406802
-0.00407241
-0.00407495
-0.00407639
-0.00407721
-0.00407763
-0.00407788
-0.00407776
-0.00407709
-0.00407594
-0.00407396
-0.00407086
-0.00406806
-0.00407341
-0.0040357
-0.00384929

