# vtk DataFile Version 2.0
OUTPUT by 3D-VPM
ASCII
DATASET UNSTRUCTURED_GRID
POINTS 380 double
1.139182e+00	1.143431e-02	-1.340062e-02
1.117138e+00	1.053739e+00	-7.836911e-03
1.116369e+00	2.105481e+00	-7.033744e-03
1.116267e+00	3.157960e+00	-6.907541e-03
1.116243e+00	4.210553e+00	-6.871451e-03
1.116235e+00	5.263171e+00	-6.857194e-03
1.116231e+00	6.315797e+00	-6.850303e-03
1.116229e+00	7.368425e+00	-6.846533e-03
1.116228e+00	8.421055e+00	-6.844355e-03
1.116241e+00	9.473523e+00	-6.850571e-03
1.116241e+00	1.052648e+01	-6.850545e-03
1.116228e+00	1.157895e+01	-6.844388e-03
1.116229e+00	1.263157e+01	-6.846696e-03
1.116231e+00	1.368420e+01	-6.850604e-03
1.116235e+00	1.473683e+01	-6.857797e-03
1.116243e+00	1.578945e+01	-6.872856e-03
1.116265e+00	1.684204e+01	-6.911733e-03
1.116361e+00	1.789453e+01	-7.050120e-03
1.116896e+00	1.894656e+01	-7.914442e-03
1.139099e+00	1.998860e+01	-1.367346e-02
1.133614e+00	1.850537e-02	1.924178e-03
1.126780e+00	1.055451e+00	-3.519438e-04
1.126461e+00	2.105808e+00	-4.041195e-04
1.126452e+00	3.158052e+00	-3.859493e-04
1.126456e+00	4.210588e+00	-3.809304e-04
1.126460e+00	5.263188e+00	-3.791583e-04
1.126462e+00	6.315806e+00	-3.783540e-04
1.126463e+00	7.368430e+00	-3.779141e-04
1.126463e+00	8.421058e+00	-3.775535e-04
1.126475e+00	9.473529e+00	-3.788831e-04
1.126476e+00	1.052647e+01	-3.789333e-04
1.126463e+00	1.157894e+01	-3.775469e-04
1.126463e+00	1.263157e+01	-3.777535e-04
1.126462e+00	1.368419e+01	-3.780608e-04
1.126459e+00	1.473681e+01	-3.785938e-04
1.126455e+00	1.578941e+01	-3.796733e-04
1.126447e+00	1.684195e+01	-3.823417e-04
1.126440e+00	1.789423e+01	-3.860846e-04
1.126347e+00	1.894505e+01	-3.076280e-04
1.133381e+00	1.998124e+01	1.883244e-03
1.137145e+00	1.015392e-02	2.181012e-03
1.135123e+00	1.053420e+00	-1.013069e-02
1.134714e+00	2.105403e+00	-1.082184e-02
1.134653e+00	3.157938e+00	-1.094132e-02
1.134640e+00	4.210544e+00	-1.097741e-02
1.134637e+00	5.263167e+00	-1.099215e-02
1.134636e+00	6.315794e+00	-1.099937e-02
1.134636e+00	7.368424e+00	-1.100326e-02
1.134635e+00	8.421054e+00	-1.100554e-02
1.134649e+00	9.473539e+00	-1.100553e-02
1.134649e+00	1.052646e+01	-1.100547e-02
1.134635e+00	1.157895e+01	-1.100550e-02
1.134635e+00	1.263158e+01	-1.100333e-02
1.134636e+00	1.368421e+01	-1.099950e-02
1.134636e+00	1.473683e+01	-1.099242e-02
1.134638e+00	1.578946e+01	-1.097811e-02
1.134644e+00	1.684206e+01	-1.094377e-02
1.134675e+00	1.789460e+01	-1.083132e-02
1.134540e+00	1.894669e+01	-1.043902e-02
1.136917e+00	1.998954e+01	1.555823e-03
1.126546e+00	1.096729e-02	9.782540e-03
1.132223e+00	1.053631e+00	9.851744e-03
1.133090e+00	2.105438e+00	9.205459e-03
1.133290e+00	3.157947e+00	9.078079e-03
1.133355e+00	4.210548e+00	9.039316e-03
1.133383e+00	5.263169e+00	9.023573e-03
1.133397e+00	6.315795e+00	9.015913e-03
1.133404e+00	7.368424e+00	9.011791e-03
1.133408e+00	8.421054e+00	9.009284e-03
1.133418e+00	9.473536e+00	9.011377e-03
1.133418e+00	1.052646e+01	9.011381e-03
1.133408e+00	1.157895e+01	9.009279e-03
1.133404e+00	1.263158e+01	9.011781e-03
1.133397e+00	1.368420e+01	9.015909e-03
1.133383e+00	1.473683e+01	9.023555e-03
1.133356e+00	1.578945e+01	9.039212e-03
1.133293e+00	1.684205e+01	9.077426e-03
1.133099e+00	1.789457e+01	9.207770e-03
1.132306e+00	1.894642e+01	9.637274e-03
1.126772e+00	1.998865e+01	9.899496e-03
1.114830e+00	1.073063e-02	9.220842e-03
1.115162e+00	1.053470e+00	1.651114e-02
1.115911e+00	2.105412e+00	1.700410e-02
1.116065e+00	3.157940e+00	1.707385e-02
1.116114e+00	4.210545e+00	1.709271e-02
1.116135e+00	5.263167e+00	1.709981e-02
1.116145e+00	6.315795e+00	1.710316e-02
1.116151e+00	7.368424e+00	1.710496e-02
1.116154e+00	8.421054e+00	1.710614e-02
1.116164e+00	9.473536e+00	1.710641e-02
1.116164e+00	1.052646e+01	1.710616e-02
1.116154e+00	1.157895e+01	1.710605e-02
1.116151e+00	1.263158e+01	1.710540e-02
1.116146e+00	1.368421e+01	1.710397e-02
1.116136e+00	1.473683e+01	1.710141e-02
1.116116e+00	1.578946e+01	1.709648e-02
1.116071e+00	1.684206e+01	1.708557e-02
1.115942e+00	1.789459e+01	1.706377e-02
1.115603e+00	1.894661e+01	1.728414e-02
1.115016e+00	1.998913e+01	1.012163e-02
1.105497e+00	9.130903e-03	9.012511e-03
1.102993e+00	1.053341e+00	1.772544e-02
1.103349e+00	2.105390e+00	1.837672e-02
1.103433e+00	3.157934e+00	1.847202e-02
1.103463e+00	4.210542e+00	1.849898e-02
1.103476e+00	5.263166e+00	1.850962e-02
1.103482e+00	6.315794e+00	1.851477e-02
1.103486e+00	7.368424e+00	1.851755e-02
1.103488e+00	8.421054e+00	1.851924e-02
1.103497e+00	9.473536e+00	1.851935e-02
1.103497e+00	1.052646e+01	1.851925e-02
1.103488e+00	1.157895e+01	1.851920e-02
1.103486e+00	1.263158e+01	1.851772e-02
1.103482e+00	1.368421e+01	1.851508e-02
1.103476e+00	1.473683e+01	1.851022e-02
1.103463e+00	1.578946e+01	1.850040e-02
1.103433e+00	1.684207e+01	1.847660e-02
1.103347e+00	1.789461e+01	1.840063e-02
1.103048e+00	1.894674e+01	1.845237e-02
1.105519e+00	1.999072e+01	9.948704e-03
1.096509e+00	8.143171e-03	9.499768e-03
1.092613e+00	1.053267e+00	1.752925e-02
1.092776e+00	2.105375e+00	1.815381e-02
1.092827e+00	3.157929e+00	1.824090e-02
1.092846e+00	4.210541e+00	1.826647e-02
1.092854e+00	5.263165e+00	1.827713e-02
1.092859e+00	6.315794e+00	1.828244e-02
1.092861e+00	7.368423e+00	1.828534e-02
1.092862e+00	8.421054e+00	1.828699e-02
1.092872e+00	9.473524e+00	1.828698e-02
1.092872e+00	1.052648e+01	1.828709e-02
1.092862e+00	1.157895e+01	1.828700e-02
1.092861e+00	1.263158e+01	1.828506e-02
1.092859e+00	1.368421e+01	1.828188e-02
1.092854e+00	1.473683e+01	1.827597e-02
1.092846e+00	1.578946e+01	1.826366e-02
1.092826e+00	1.684207e+01	1.823235e-02
1.092774e+00	1.789463e+01	1.811642e-02
1.092554e+00	1.894679e+01	1.771756e-02
1.096439e+00	1.999162e+01	9.790207e-03
1.087508e+00	7.898491e-03	9.467180e-03
1.083145e+00	1.053185e+00	1.651338e-02
1.083219e+00	2.105360e+00	1.704641e-02
1.083256e+00	3.157925e+00	1.711721e-02
1.083270e+00	4.210539e+00	1.714029e-02
1.083277e+00	5.263164e+00	1.715031e-02
1.083280e+00	6.315793e+00	1.715540e-02
1.083282e+00	7.368423e+00	1.715821e-02
1.083283e+00	8.421054e+00	1.715976e-02
1.083291e+00	9.473534e+00	1.715970e-02
1.083291e+00	1.052647e+01	1.715989e-02
1.083283e+00	1.157895e+01	1.715978e-02
1.083282e+00	1.263158e+01	1.715772e-02
1.083280e+00	1.368421e+01	1.715447e-02
1.083277e+00	1.473684e+01	1.714839e-02
1.083271e+00	1.578946e+01	1.713564e-02
1.083260e+00	1.684208e+01	1.710291e-02
1.083235e+00	1.789464e+01	1.697968e-02
1.083198e+00	1.894685e+01	1.629993e-02
1.087504e+00	1.999205e+01	9.319325e-03
1.078733e+00	7.133256e-03	8.607546e-03
1.074282e+00	1.053109e+00	1.494355e-02
1.074331e+00	2.105346e+00	1.536330e-02
1.074359e+00	3.157921e+00	1.543157e-02
1.074369e+00	4.210537e+00	1.545446e-02
1.074374e+00	5.263163e+00	1.546424e-02
1.074377e+00	6.315793e+00	1.546916e-02
1.074378e+00	7.368423e+00	1.547187e-02
1.074379e+00	8.421053e+00	1.547342e-02
1.074387e+00	9.473546e+00	1.547340e-02
1.074387e+00	1.052645e+01	1.547350e-02
1.074379e+00	1.157895e+01	1.547343e-02
1.074378e+00	1.263158e+01	1.547161e-02
1.074377e+00	1.368421e+01	1.546866e-02
1.074375e+00	1.473684e+01	1.546317e-02
1.074371e+00	1.578946e+01	1.545181e-02
1.074363e+00	1.684208e+01	1.542328e-02
1.074348e+00	1.789465e+01	1.531946e-02
1.074367e+00	1.894692e+01	1.474075e-02
1.078769e+00	1.999296e+01	8.430839e-03
1.070033e+00	6.478709e-03	7.886908e-03
1.065850e+00	1.053040e+00	1.302041e-02
1.065896e+00	2.105334e+00	1.334161e-02
1.065913e+00	3.157917e+00	1.341608e-02
1.065920e+00	4.210536e+00	1.343930e-02
1.065924e+00	5.263163e+00	1.344879e-02
1.065926e+00	6.315792e+00	1.345346e-02
1.065927e+00	7.368423e+00	1.345598e-02
1.065927e+00	8.421053e+00	1.345751e-02
1.065934e+00	9.473559e+00	1.345757e-02
1.065934e+00	1.052644e+01	1.345753e-02
1.065927e+00	1.157895e+01	1.345752e-02
1.065927e+00	1.263158e+01	1.345608e-02
1.065926e+00	1.368421e+01	1.345361e-02
1.065924e+00	1.473684e+01	1.344907e-02
1.065920e+00	1.578946e+01	1.343985e-02
1.065913e+00	1.684208e+01	1.341760e-02
1.065897e+00	1.789467e+01	1.334006e-02
1.065883e+00	1.894698e+01	1.294838e-02
1.070044e+00	1.999357e+01	7.856271e-03
1.061317e+00	5.952933e-03	7.246407e-03
1.057672e+00	1.053008e+00	1.095230e-02
1.057727e+00	2.105327e+00	1.118415e-02
1.057737e+00	3.157915e+00	1.125793e-02
1.057742e+00	4.210535e+00	1.127935e-02
1.057745e+00	5.263162e+00	1.128783e-02
1.057747e+00	6.315792e+00	1.129191e-02
1.057748e+00	7.368423e+00	1.129409e-02
1.057748e+00	8.421053e+00	1.129546e-02
1.057754e+00	9.473546e+00	1.129562e-02
1.057754e+00	1.052645e+01	1.129551e-02
1.057748e+00	1.157895e+01	1.129545e-02
1.057747e+00	1.263158e+01	1.129436e-02
1.057746e+00	1.368421e+01	1.129239e-02
1.057745e+00	1.473684e+01	1.128878e-02
1.057741e+00	1.578947e+01	1.128158e-02
1.057734e+00	1.684209e+01	1.126484e-02
1.057716e+00	1.789467e+01	1.120762e-02
1.057671e+00	1.894700e+01	1.095786e-02
1.061318e+00	1.999405e+01	7.244899e-03
1.052734e+00	5.579183e-03	6.282048e-03
1.049603e+00	1.052963e+00	8.900470e-03
1.049671e+00	2.105319e+00	9.051299e-03
1.049683e+00	3.157912e+00	9.110436e-03
1.049688e+00	4.210534e+00	9.127374e-03
1.049691e+00	5.263162e+00	9.134021e-03
1.049693e+00	6.315792e+00	9.137197e-03
1.049694e+00	7.368422e+00	9.138882e-03
1.049694e+00	8.421053e+00	9.139947e-03
1.049699e+00	9.473550e+00	9.140109e-03
1.049699e+00	1.052645e+01	9.139983e-03
1.049694e+00	1.157895e+01	9.139887e-03
1.049694e+00	1.263158e+01	9.139059e-03
1.049693e+00	1.368421e+01	9.137522e-03
1.049691e+00	1.473684e+01	9.134726e-03
1.049688e+00	1.578947e+01	9.129198e-03
1.049681e+00	1.684209e+01	9.116589e-03
1.049664e+00	1.789468e+01	9.073942e-03
1.049603e+00	1.894703e+01	8.922540e-03
1.052737e+00	1.999441e+01	6.279954e-03
1.044176e+00	4.977534e-03	5.327694e-03
1.041575e+00	1.052924e+00	6.943079e-03
1.041638e+00	2.105312e+00	7.055152e-03
1.041652e+00	3.157910e+00	7.096597e-03
1.041658e+00	4.210533e+00	7.108607e-03
1.041661e+00	5.263161e+00	7.113341e-03
1.041663e+00	6.315791e+00	7.115597e-03
1.041664e+00	7.368422e+00	7.116790e-03
1.041664e+00	8.421053e+00	7.117532e-03
1.041668e+00	9.473554e+00	7.117689e-03
1.041668e+00	1.052645e+01	7.117590e-03
1.041664e+00	1.157895e+01	7.117448e-03
1.041664e+00	1.263158e+01	7.116832e-03
1.041663e+00	1.368421e+01	7.115689e-03
1.041661e+00	1.473684e+01	7.113614e-03
1.041658e+00	1.578947e+01	7.109528e-03
1.041652e+00	1.684209e+01	7.100246e-03
1.041636e+00	1.789469e+01	7.069268e-03
1.041572e+00	1.894707e+01	6.988723e-03
1.044176e+00	1.999503e+01	5.354794e-03
1.035640e+00	4.453639e-03	4.464379e-03
1.033545e+00	1.052891e+00	5.171967e-03
1.033583e+00	2.105305e+00	5.287508e-03
1.033597e+00	3.157908e+00	5.317257e-03
1.033602e+00	4.210532e+00	5.325522e-03
1.033604e+00	5.263161e+00	5.328781e-03
1.033606e+00	6.315791e+00	5.330335e-03
1.033606e+00	7.368422e+00	5.331155e-03
1.033607e+00	8.421053e+00	5.331640e-03
1.033610e+00	9.473560e+00	5.331818e-03
1.033610e+00	1.052644e+01	5.331771e-03
1.033607e+00	1.157895e+01	5.331610e-03
1.033606e+00	1.263158e+01	5.331203e-03
1.033606e+00	1.368421e+01	5.330437e-03
1.033604e+00	1.473684e+01	5.329039e-03
1.033602e+00	1.578947e+01	5.326280e-03
1.033596e+00	1.684209e+01	5.320004e-03
1.033582e+00	1.789469e+01	5.299378e-03
1.033526e+00	1.894710e+01	5.264459e-03
1.035630e+00	1.999555e+01	4.544537e-03
1.027154e+00	3.740307e-03	3.648618e-03
1.025472e+00	1.052842e+00	3.746872e-03
1.025503e+00	2.105297e+00	3.840436e-03
1.025514e+00	3.157906e+00	3.857813e-03
1.025518e+00	4.210531e+00	3.862504e-03
1.025520e+00	5.263160e+00	3.864376e-03
1.025522e+00	6.315791e+00	3.865283e-03
1.025522e+00	7.368422e+00	3.865762e-03
1.025522e+00	8.421053e+00	3.866026e-03
1.025525e+00	9.473576e+00	3.866202e-03
1.025525e+00	1.052642e+01	3.866191e-03
1.025522e+00	1.157895e+01	3.866037e-03
1.025522e+00	1.263158e+01	3.865818e-03
1.025522e+00	1.368421e+01	3.865386e-03
1.025520e+00	1.473684e+01	3.864598e-03
1.025518e+00	1.578947e+01	3.863037e-03
1.025514e+00	1.684209e+01	3.859494e-03
1.025502e+00	1.789470e+01	3.848219e-03
1.025462e+00	1.894715e+01	3.834619e-03
1.027148e+00	1.999626e+01	3.721997e-03
1.018695e+00	3.293381e-03	3.036061e-03
1.017419e+00	1.052827e+00	2.736853e-03
1.017445e+00	2.105295e+00	2.782744e-03
1.017454e+00	3.157905e+00	2.787906e-03
1.017457e+00	4.210531e+00	2.789399e-03
1.017458e+00	5.263160e+00	2.790030e-03
1.017459e+00	6.315791e+00	2.790347e-03
1.017459e+00	7.368422e+00	2.790518e-03
1.017459e+00	8.421053e+00	2.790596e-03
1.017461e+00	9.473576e+00	2.790742e-03
1.017461e+00	1.052642e+01	2.790741e-03
1.017459e+00	1.157895e+01	2.790603e-03
1.017459e+00	1.263158e+01	2.790531e-03
1.017459e+00	1.368421e+01	2.790368e-03
1.017458e+00	1.473684e+01	2.790073e-03
1.017457e+00	1.578947e+01	2.789496e-03
1.017454e+00	1.684210e+01	2.788245e-03
1.017446e+00	1.789470e+01	2.784768e-03
1.017422e+00	1.894716e+01	2.777498e-03
1.018695e+00	1.999671e+01	3.076767e-03
1.010387e+00	2.617361e-03	2.613585e-03
1.009507e+00	1.052793e+00	2.163592e-03
1.009517e+00	2.105290e+00	2.172505e-03
1.009520e+00	3.157903e+00	2.171087e-03
1.009521e+00	4.210530e+00	2.170718e-03
1.009522e+00	5.263160e+00	2.170596e-03
1.009522e+00	6.315791e+00	2.170543e-03
1.009522e+00	7.368422e+00	2.170515e-03
1.009522e+00	8.421053e+00	2.170483e-03
1.009523e+00	9.473588e+00	2.170608e-03
1.009523e+00	1.052641e+01	2.170611e-03
1.009522e+00	1.157895e+01	2.170484e-03
1.009522e+00	1.263158e+01	2.170513e-03
1.009522e+00	1.368421e+01	2.170536e-03
1.009522e+00	1.473684e+01	2.170581e-03
1.009521e+00	1.578947e+01	2.170685e-03
1.009520e+00	1.684210e+01	2.171019e-03
1.009517e+00	1.789471e+01	2.172650e-03
1.009509e+00	1.894720e+01	2.173346e-03
1.010388e+00	1.999739e+01	2.617178e-03
1.002250e+00	0.000000e+00	2.432590e-03
1.002250e+00	1.052632e+00	2.432590e-03
1.002250e+00	2.105263e+00	2.432590e-03
1.002250e+00	3.157895e+00	2.432590e-03
1.002250e+00	4.210526e+00	2.432590e-03
1.002250e+00	5.263158e+00	2.432590e-03
1.002250e+00	6.315789e+00	2.432590e-03
1.002250e+00	7.368421e+00	2.432590e-03
1.002250e+00	8.421053e+00	2.432590e-03
1.002250e+00	9.473684e+00	2.432590e-03
1.002250e+00	1.052632e+01	2.432590e-03
1.002250e+00	1.157895e+01	2.432590e-03
1.002250e+00	1.263158e+01	2.432590e-03
1.002250e+00	1.368421e+01	2.432590e-03
1.002250e+00	1.473684e+01	2.432590e-03
1.002250e+00	1.578947e+01	2.432590e-03
1.002250e+00	1.684211e+01	2.432590e-03
1.002250e+00	1.789474e+01	2.432590e-03
1.002250e+00	1.894737e+01	2.432590e-03
1.002250e+00	2.000000e+01	2.432590e-03
1.000000e+00	0.000000e+00	1.968464e-03
1.000000e+00	1.052632e+00	1.968464e-03
1.000000e+00	2.105263e+00	1.968464e-03
1.000000e+00	3.157895e+00	1.968464e-03
1.000000e+00	4.210526e+00	1.968464e-03
1.000000e+00	5.263158e+00	1.968464e-03
1.000000e+00	6.315789e+00	1.968464e-03
1.000000e+00	7.368421e+00	1.968464e-03
1.000000e+00	8.421053e+00	1.968464e-03
1.000000e+00	9.473684e+00	1.968464e-03
1.000000e+00	1.052632e+01	1.968464e-03
1.000000e+00	1.157895e+01	1.968464e-03
1.000000e+00	1.263158e+01	1.968464e-03
1.000000e+00	1.368421e+01	1.968464e-03
1.000000e+00	1.473684e+01	1.968464e-03
1.000000e+00	1.578947e+01	1.968464e-03
1.000000e+00	1.684211e+01	1.968464e-03
1.000000e+00	1.789474e+01	1.968464e-03
1.000000e+00	1.894737e+01	1.968464e-03
1.000000e+00	2.000000e+01	1.968464e-03

CELLS 342 1710
4 20 0 1 21 
4 21 1 2 22 
4 22 2 3 23 
4 23 3 4 24 
4 24 4 5 25 
4 25 5 6 26 
4 26 6 7 27 
4 27 7 8 28 
4 28 8 9 29 
4 29 9 10 30 
4 30 10 11 31 
4 31 11 12 32 
4 32 12 13 33 
4 33 13 14 34 
4 34 14 15 35 
4 35 15 16 36 
4 36 16 17 37 
4 37 17 18 38 
4 38 18 19 39 
4 40 20 21 41 
4 41 21 22 42 
4 42 22 23 43 
4 43 23 24 44 
4 44 24 25 45 
4 45 25 26 46 
4 46 26 27 47 
4 47 27 28 48 
4 48 28 29 49 
4 49 29 30 50 
4 50 30 31 51 
4 51 31 32 52 
4 52 32 33 53 
4 53 33 34 54 
4 54 34 35 55 
4 55 35 36 56 
4 56 36 37 57 
4 57 37 38 58 
4 58 38 39 59 
4 60 40 41 61 
4 61 41 42 62 
4 62 42 43 63 
4 63 43 44 64 
4 64 44 45 65 
4 65 45 46 66 
4 66 46 47 67 
4 67 47 48 68 
4 68 48 49 69 
4 69 49 50 70 
4 70 50 51 71 
4 71 51 52 72 
4 72 52 53 73 
4 73 53 54 74 
4 74 54 55 75 
4 75 55 56 76 
4 76 56 57 77 
4 77 57 58 78 
4 78 58 59 79 
4 80 60 61 81 
4 81 61 62 82 
4 82 62 63 83 
4 83 63 64 84 
4 84 64 65 85 
4 85 65 66 86 
4 86 66 67 87 
4 87 67 68 88 
4 88 68 69 89 
4 89 69 70 90 
4 90 70 71 91 
4 91 71 72 92 
4 92 72 73 93 
4 93 73 74 94 
4 94 74 75 95 
4 95 75 76 96 
4 96 76 77 97 
4 97 77 78 98 
4 98 78 79 99 
4 100 80 81 101 
4 101 81 82 102 
4 102 82 83 103 
4 103 83 84 104 
4 104 84 85 105 
4 105 85 86 106 
4 106 86 87 107 
4 107 87 88 108 
4 108 88 89 109 
4 109 89 90 110 
4 110 90 91 111 
4 111 91 92 112 
4 112 92 93 113 
4 113 93 94 114 
4 114 94 95 115 
4 115 95 96 116 
4 116 96 97 117 
4 117 97 98 118 
4 118 98 99 119 
4 120 100 101 121 
4 121 101 102 122 
4 122 102 103 123 
4 123 103 104 124 
4 124 104 105 125 
4 125 105 106 126 
4 126 106 107 127 
4 127 107 108 128 
4 128 108 109 129 
4 129 109 110 130 
4 130 110 111 131 
4 131 111 112 132 
4 132 112 113 133 
4 133 113 114 134 
4 134 114 115 135 
4 135 115 116 136 
4 136 116 117 137 
4 137 117 118 138 
4 138 118 119 139 
4 140 120 121 141 
4 141 121 122 142 
4 142 122 123 143 
4 143 123 124 144 
4 144 124 125 145 
4 145 125 126 146 
4 146 126 127 147 
4 147 127 128 148 
4 148 128 129 149 
4 149 129 130 150 
4 150 130 131 151 
4 151 131 132 152 
4 152 132 133 153 
4 153 133 134 154 
4 154 134 135 155 
4 155 135 136 156 
4 156 136 137 157 
4 157 137 138 158 
4 158 138 139 159 
4 160 140 141 161 
4 161 141 142 162 
4 162 142 143 163 
4 163 143 144 164 
4 164 144 145 165 
4 165 145 146 166 
4 166 146 147 167 
4 167 147 148 168 
4 168 148 149 169 
4 169 149 150 170 
4 170 150 151 171 
4 171 151 152 172 
4 172 152 153 173 
4 173 153 154 174 
4 174 154 155 175 
4 175 155 156 176 
4 176 156 157 177 
4 177 157 158 178 
4 178 158 159 179 
4 180 160 161 181 
4 181 161 162 182 
4 182 162 163 183 
4 183 163 164 184 
4 184 164 165 185 
4 185 165 166 186 
4 186 166 167 187 
4 187 167 168 188 
4 188 168 169 189 
4 189 169 170 190 
4 190 170 171 191 
4 191 171 172 192 
4 192 172 173 193 
4 193 173 174 194 
4 194 174 175 195 
4 195 175 176 196 
4 196 176 177 197 
4 197 177 178 198 
4 198 178 179 199 
4 200 180 181 201 
4 201 181 182 202 
4 202 182 183 203 
4 203 183 184 204 
4 204 184 185 205 
4 205 185 186 206 
4 206 186 187 207 
4 207 187 188 208 
4 208 188 189 209 
4 209 189 190 210 
4 210 190 191 211 
4 211 191 192 212 
4 212 192 193 213 
4 213 193 194 214 
4 214 194 195 215 
4 215 195 196 216 
4 216 196 197 217 
4 217 197 198 218 
4 218 198 199 219 
4 220 200 201 221 
4 221 201 202 222 
4 222 202 203 223 
4 223 203 204 224 
4 224 204 205 225 
4 225 205 206 226 
4 226 206 207 227 
4 227 207 208 228 
4 228 208 209 229 
4 229 209 210 230 
4 230 210 211 231 
4 231 211 212 232 
4 232 212 213 233 
4 233 213 214 234 
4 234 214 215 235 
4 235 215 216 236 
4 236 216 217 237 
4 237 217 218 238 
4 238 218 219 239 
4 240 220 221 241 
4 241 221 222 242 
4 242 222 223 243 
4 243 223 224 244 
4 244 224 225 245 
4 245 225 226 246 
4 246 226 227 247 
4 247 227 228 248 
4 248 228 229 249 
4 249 229 230 250 
4 250 230 231 251 
4 251 231 232 252 
4 252 232 233 253 
4 253 233 234 254 
4 254 234 235 255 
4 255 235 236 256 
4 256 236 237 257 
4 257 237 238 258 
4 258 238 239 259 
4 260 240 241 261 
4 261 241 242 262 
4 262 242 243 263 
4 263 243 244 264 
4 264 244 245 265 
4 265 245 246 266 
4 266 246 247 267 
4 267 247 248 268 
4 268 248 249 269 
4 269 249 250 270 
4 270 250 251 271 
4 271 251 252 272 
4 272 252 253 273 
4 273 253 254 274 
4 274 254 255 275 
4 275 255 256 276 
4 276 256 257 277 
4 277 257 258 278 
4 278 258 259 279 
4 280 260 261 281 
4 281 261 262 282 
4 282 262 263 283 
4 283 263 264 284 
4 284 264 265 285 
4 285 265 266 286 
4 286 266 267 287 
4 287 267 268 288 
4 288 268 269 289 
4 289 269 270 290 
4 290 270 271 291 
4 291 271 272 292 
4 292 272 273 293 
4 293 273 274 294 
4 294 274 275 295 
4 295 275 276 296 
4 296 276 277 297 
4 297 277 278 298 
4 298 278 279 299 
4 300 280 281 301 
4 301 281 282 302 
4 302 282 283 303 
4 303 283 284 304 
4 304 284 285 305 
4 305 285 286 306 
4 306 286 287 307 
4 307 287 288 308 
4 308 288 289 309 
4 309 289 290 310 
4 310 290 291 311 
4 311 291 292 312 
4 312 292 293 313 
4 313 293 294 314 
4 314 294 295 315 
4 315 295 296 316 
4 316 296 297 317 
4 317 297 298 318 
4 318 298 299 319 
4 320 300 301 321 
4 321 301 302 322 
4 322 302 303 323 
4 323 303 304 324 
4 324 304 305 325 
4 325 305 306 326 
4 326 306 307 327 
4 327 307 308 328 
4 328 308 309 329 
4 329 309 310 330 
4 330 310 311 331 
4 331 311 312 332 
4 332 312 313 333 
4 333 313 314 334 
4 334 314 315 335 
4 335 315 316 336 
4 336 316 317 337 
4 337 317 318 338 
4 338 318 319 339 
4 340 320 321 341 
4 341 321 322 342 
4 342 322 323 343 
4 343 323 324 344 
4 344 324 325 345 
4 345 325 326 346 
4 346 326 327 347 
4 347 327 328 348 
4 348 328 329 349 
4 349 329 330 350 
4 350 330 331 351 
4 351 331 332 352 
4 352 332 333 353 
4 353 333 334 354 
4 354 334 335 355 
4 355 335 336 356 
4 356 336 337 357 
4 357 337 338 358 
4 358 338 339 359 
4 360 340 341 361 
4 361 341 342 362 
4 362 342 343 363 
4 363 343 344 364 
4 364 344 345 365 
4 365 345 346 366 
4 366 346 347 367 
4 367 347 348 368 
4 368 348 349 369 
4 369 349 350 370 
4 370 350 351 371 
4 371 351 352 372 
4 372 352 353 373 
4 373 353 354 374 
4 374 354 355 375 
4 375 355 356 376 
4 376 356 357 377 
4 377 357 358 378 
4 378 358 359 379 

CELL_TYPES 342
9
9
9
9
9
9
9
9
9
9
9
9
9
9
9
9
9
9
9
9
9
9
9
9
9
9
9
9
9
9
9
9
9
9
9
9
9
9
9
9
9
9
9
9
9
9
9
9
9
9
9
9
9
9
9
9
9
9
9
9
9
9
9
9
9
9
9
9
9
9
9
9
9
9
9
9
9
9
9
9
9
9
9
9
9
9
9
9
9
9
9
9
9
9
9
9
9
9
9
9
9
9
9
9
9
9
9
9
9
9
9
9
9
9
9
9
9
9
9
9
9
9
9
9
9
9
9
9
9
9
9
9
9
9
9
9
9
9
9
9
9
9
9
9
9
9
9
9
9
9
9
9
9
9
9
9
9
9
9
9
9
9
9
9
9
9
9
9
9
9
9
9
9
9
9
9
9
9
9
9
9
9
9
9
9
9
9
9
9
9
9
9
9
9
9
9
9
9
9
9
9
9
9
9
9
9
9
9
9
9
9
9
9
9
9
9
9
9
9
9
9
9
9
9
9
9
9
9
9
9
9
9
9
9
9
9
9
9
9
9
9
9
9
9
9
9
9
9
9
9
9
9
9
9
9
9
9
9
9
9
9
9
9
9
9
9
9
9
9
9
9
9
9
9
9
9
9
9
9
9
9
9
9
9
9
9
9
9
9
9
9
9
9
9
9
9
9
9
9
9
9
9
9
9
9
9
9
9
9
9
9
9
9
9
9
9
9
9
9
9
9
9
9
9
9
9
9
9
9
9
9
9
9
9
9
9
9
9
9
9
9
9

CELL_DATA 342
SCALARS Mu double 1
LOOKUP_TABLE default
-2.66312e-11
-3.10664e-11
-3.18437e-11
-3.20552e-11
-3.21323e-11
-3.21718e-11
-3.21894e-11
-3.2205e-11
-3.22268e-11
-3.22102e-11
-3.22278e-11
-3.22073e-11
-3.21913e-11
-3.21714e-11
-3.21368e-11
-3.20551e-11
-3.18426e-11
-3.10702e-11
-2.66293e-11
0.00415121
0.00443406
0.00448509
0.00449967
0.00450535
0.00450804
0.00450948
0.00451029
0.00451071
0.00451085
0.00451071
0.00451029
0.00450948
0.00450804
0.00450535
0.00449967
0.00448509
0.00443406
0.00415121
0.00559784
0.00596326
0.00603655
0.00605728
0.0060653
0.00606909
0.00607111
0.00607224
0.0060729
0.00607312
0.00607289
0.00607226
0.00607116
0.00606918
0.00606547
0.00605767
0.0060378
0.00596923
0.00564305
0.00640968
0.00693568
0.00702847
0.00705412
0.00706391
0.0070685
0.00707094
0.00707229
0.00707316
0.0070734
0.00707305
0.00707236
0.00707106
0.00706873
0.00706438
0.00705529
0.00703244
0.00695572
0.00671908
0.0069648
0.00755651
0.00765777
0.00768596
0.00769675
0.00770181
0.0077045
0.00770599
0.00770694
0.00770723
0.00770685
0.00770605
0.0077046
0.00770201
0.00769715
0.00768698
0.00766127
0.00757311
0.00733451
0.00726833
0.00788298
0.00798796
0.00801715
0.00802839
0.00803369
0.00803651
0.00803807
0.00803905
0.00803939
0.008039
0.0080381
0.00803655
0.00803377
0.00802854
0.00801754
0.00798942
0.00788835
0.007577
0.00733533
0.00794558
0.00804937
0.0080786
0.00808994
0.00809532
0.00809817
0.00809976
0.00810073
0.00810112
0.00810073
0.00809976
0.00809816
0.00809528
0.00808987
0.00807842
0.00804897
0.00794052
0.00752251
0.00717642
0.00775941
0.00786198
0.00789115
0.00790248
0.00790784
0.00791069
0.00791227
0.00791325
0.00791363
0.00791323
0.00791227
0.00791067
0.00790781
0.00790243
0.00789104
0.00786183
0.00775361
0.00731422
0.00680116
0.00734184
0.00744473
0.00747379
0.00748499
0.00749026
0.00749305
0.0074946
0.00749559
0.00749595
0.00749554
0.00749464
0.0074931
0.00749035
0.00748519
0.00747431
0.00744667
0.00734469
0.00694306
0.00622373
0.00671545
0.006818
0.00684641
0.00685723
0.0068623
0.00686497
0.00686644
0.00686742
0.00686774
0.00686733
0.00686651
0.00686508
0.00686251
0.0068577
0.00684762
0.00682229
0.0067289
0.00638513
0.00546651
0.0059058
0.00600398
0.0060307
0.00604079
0.00604548
0.00604795
0.0060493
0.00605022
0.00605051
0.00605011
0.00604939
0.00604809
0.00604576
0.00604139
0.00603228
0.00600961
0.00592591
0.00564692
0.00454778
0.00493779
0.00502658
0.00505052
0.00505952
0.00506368
0.00506586
0.00506705
0.00506788
0.00506812
0.00506775
0.00506713
0.00506598
0.00506393
0.00506008
0.00505208
0.00503231
0.00495926
0.00474823
0.00347496
0.00383336
0.00391132
0.00393196
0.00393968
0.00394323
0.00394508
0.00394609
0.00394679
0.003947
0.00394669
0.00394617
0.0039452
0.00394347
0.00394023
0.00393349
0.00391693
0.00385573
0.00371128
0.00229078
0.0026212
0.00268695
0.00270386
0.00271013
0.00271301
0.0027145
0.00271531
0.00271587
0.00271604
0.0027158
0.00271539
0.00271464
0.00271327
0.00271071
0.0027054
0.00269243
0.00264445
0.00256079
0.00105664
0.00133609
0.00138515
0.0013975
0.00140205
0.00140412
0.00140519
0.00140577
0.00140617
0.0014063
0.00140612
0.00140584
0.00140531
0.00140435
0.00140255
0.00139881
0.00138982
0.00135657
0.00132289
-0.000209143
6.43864e-06
3.77109e-05
4.5225e-05
4.79346e-05
4.91465e-05
4.97616e-05
5.00891e-05
5.03252e-05
5.03915e-05
5.02853e-05
5.01526e-05
4.9865e-05
4.93396e-05
4.83492e-05
4.63025e-05
4.16187e-05
2.43149e-05
3.41971e-05
-0.00147823
-0.00133624
-0.00132229
-0.00131959
-0.00131872
-0.00131838
-0.00131822
-0.00131815
-0.00131807
-0.00131807
-0.0013181
-0.00131809
-0.00131812
-0.00131819
-0.00131834
-0.00131862
-0.0013188
-0.00131969
-0.00126034

