# vtk DataFile Version 2.0
OUTPUT by 3D-VPM
ASCII
DATASET UNSTRUCTURED_GRID
POINTS 580 double
1.220354e+00	1.870554e-02	-1.000686e-02
1.202119e+00	1.055378e+00	1.490908e-02
1.202747e+00	2.105791e+00	1.692815e-02
1.202863e+00	3.158049e+00	1.721140e-02
1.202904e+00	4.210588e+00	1.729222e-02
1.202923e+00	5.263188e+00	1.732464e-02
1.202933e+00	6.315806e+00	1.734044e-02
1.202939e+00	7.368430e+00	1.734903e-02
1.202941e+00	8.421058e+00	1.735393e-02
1.202955e+00	9.473513e+00	1.734865e-02
1.202955e+00	1.052649e+01	1.734855e-02
1.202941e+00	1.157894e+01	1.735380e-02
1.202938e+00	1.263157e+01	1.734896e-02
1.202933e+00	1.368419e+01	1.734030e-02
1.202923e+00	1.473681e+01	1.732439e-02
1.202903e+00	1.578941e+01	1.729174e-02
1.202858e+00	1.684196e+01	1.721055e-02
1.202730e+00	1.789426e+01	1.693336e-02
1.202002e+00	1.894570e+01	1.536074e-02
1.220067e+00	1.998119e+01	-1.035655e-02
1.231930e+00	1.662889e-02	9.959949e-03
1.216392e+00	1.058741e+00	8.880315e-03
1.215409e+00	2.106509e+00	8.912052e-03
1.215455e+00	3.158252e+00	8.980195e-03
1.215489e+00	4.210666e+00	9.002815e-03
1.215506e+00	5.263224e+00	9.012047e-03
1.215516e+00	6.315825e+00	9.016566e-03
1.215521e+00	7.368441e+00	9.019018e-03
1.215523e+00	8.421064e+00	9.020584e-03
1.215540e+00	9.473521e+00	9.020236e-03
1.215540e+00	1.052648e+01	9.020026e-03
1.215523e+00	1.157894e+01	9.020487e-03
1.215521e+00	1.263156e+01	9.019326e-03
1.215516e+00	1.368418e+01	9.017131e-03
1.215506e+00	1.473678e+01	9.013176e-03
1.215489e+00	1.578934e+01	9.005471e-03
1.215454e+00	1.684177e+01	8.988373e-03
1.215397e+00	1.789361e+01	8.951511e-03
1.215507e+00	1.894282e+01	9.054926e-03
1.231584e+00	1.998334e+01	8.397016e-03
1.221494e+00	1.770519e-02	6.992887e-03
1.209301e+00	1.054163e+00	-5.669586e-03
1.208567e+00	2.105555e+00	-5.706759e-03
1.208478e+00	3.157983e+00	-5.619331e-03
1.208461e+00	4.210563e+00	-5.589585e-03
1.208458e+00	5.263176e+00	-5.577366e-03
1.208457e+00	6.315799e+00	-5.571381e-03
1.208456e+00	7.368427e+00	-5.568119e-03
1.208455e+00	8.421055e+00	-5.566044e-03
1.208474e+00	9.473530e+00	-5.568827e-03
1.208474e+00	1.052647e+01	-5.568944e-03
1.208455e+00	1.157894e+01	-5.566073e-03
1.208456e+00	1.263157e+01	-5.567870e-03
1.208456e+00	1.368420e+01	-5.570918e-03
1.208457e+00	1.473682e+01	-5.576451e-03
1.208459e+00	1.578944e+01	-5.587486e-03
1.208470e+00	1.684202e+01	-5.613100e-03
1.208531e+00	1.789446e+01	-5.676709e-03
1.208608e+00	1.894625e+01	-5.536741e-03
1.220788e+00	1.998140e+01	6.884306e-03
1.220571e+00	1.018489e-02	1.601566e-02
1.224069e+00	1.054349e+00	2.900921e-04
1.223587e+00	2.105587e+00	-5.569095e-04
1.223501e+00	3.157992e+00	-7.544163e-04
1.223483e+00	4.210566e+00	-8.141282e-04
1.223479e+00	5.263177e+00	-8.380551e-04
1.223477e+00	6.315800e+00	-8.496030e-04
1.223477e+00	7.368427e+00	-8.557988e-04
1.223475e+00	8.421055e+00	-8.595929e-04
1.223496e+00	9.473528e+00	-8.564304e-04
1.223496e+00	1.052647e+01	-8.564823e-04
1.223475e+00	1.157894e+01	-8.596671e-04
1.223476e+00	1.263157e+01	-8.558425e-04
1.223477e+00	1.368420e+01	-8.496556e-04
1.223478e+00	1.473682e+01	-8.381478e-04
1.223481e+00	1.578943e+01	-8.143546e-04
1.223494e+00	1.684201e+01	-7.552498e-04
1.223560e+00	1.789442e+01	-5.491392e-04
1.223502e+00	1.894576e+01	1.153946e-04
1.220937e+00	1.998908e+01	1.581313e-02
1.204616e+00	1.437284e-02	1.899216e-02
1.210708e+00	1.053992e+00	2.755904e-02
1.212448e+00	2.105505e+00	2.769455e-02
1.212787e+00	3.157967e+00	2.773518e-02
1.212894e+00	4.210556e+00	2.774932e-02
1.212939e+00	5.263173e+00	2.775527e-02
1.212961e+00	6.315798e+00	2.775827e-02
1.212973e+00	7.368426e+00	2.775992e-02
1.212980e+00	8.421055e+00	2.776086e-02
1.212994e+00	9.473526e+00	2.776251e-02
1.212994e+00	1.052647e+01	2.776233e-02
1.212979e+00	1.157895e+01	2.776078e-02
1.212974e+00	1.263157e+01	2.776020e-02
1.212962e+00	1.368420e+01	2.775880e-02
1.212940e+00	1.473683e+01	2.775635e-02
1.212898e+00	1.578944e+01	2.775184e-02
1.212801e+00	1.684203e+01	2.774284e-02
1.212512e+00	1.789451e+01	2.773841e-02
1.211639e+00	1.894614e+01	2.800866e-02
1.205091e+00	1.998515e+01	2.033041e-02
1.193763e+00	1.334180e-02	1.764108e-02
1.193138e+00	1.053891e+00	3.265904e-02
1.194001e+00	2.105493e+00	3.367852e-02
1.194182e+00	3.157964e+00	3.385127e-02
1.194243e+00	4.210555e+00	3.390309e-02
1.194269e+00	5.263172e+00	3.392421e-02
1.194283e+00	6.315797e+00	3.393460e-02
1.194290e+00	7.368425e+00	3.394023e-02
1.194294e+00	8.421055e+00	3.394353e-02
1.194310e+00	9.473525e+00	3.394462e-02
1.194310e+00	1.052647e+01	3.394447e-02
1.194294e+00	1.157895e+01	3.394345e-02
1.194290e+00	1.263157e+01	3.394041e-02
1.194283e+00	1.368420e+01	3.393492e-02
1.194270e+00	1.473683e+01	3.392485e-02
1.194243e+00	1.578945e+01	3.390463e-02
1.194184e+00	1.684204e+01	3.385637e-02
1.194006e+00	1.789452e+01	3.370807e-02
1.193377e+00	1.894632e+01	3.356982e-02
1.193774e+00	1.998625e+01	1.893609e-02
1.184488e+00	1.126338e-02	1.830265e-02
1.179786e+00	1.053747e+00	3.424513e-02
1.180181e+00	2.105468e+00	3.541196e-02
1.180289e+00	3.157957e+00	3.559904e-02
1.180328e+00	4.210552e+00	3.565618e-02
1.180346e+00	5.263171e+00	3.568022e-02
1.180355e+00	6.315797e+00	3.569224e-02
1.180360e+00	7.368425e+00	3.569880e-02
1.180363e+00	8.421054e+00	3.570250e-02
1.180378e+00	9.473512e+00	3.570343e-02
1.180378e+00	1.052649e+01	3.570358e-02
1.180363e+00	1.157895e+01	3.570247e-02
1.180360e+00	1.263157e+01	3.569832e-02
1.180355e+00	1.368420e+01	3.569132e-02
1.180346e+00	1.473683e+01	3.567834e-02
1.180328e+00	1.578945e+01	3.565170e-02
1.180289e+00	1.684204e+01	3.558553e-02
1.180180e+00	1.789454e+01	3.535452e-02
1.179696e+00	1.894643e+01	3.450507e-02
1.184248e+00	1.998840e+01	1.896344e-02
1.174949e+00	1.059940e-02	1.898064e-02
1.168067e+00	1.053627e+00	3.407822e-02
1.168200e+00	2.105446e+00	3.520940e-02
1.168278e+00	3.157951e+00	3.538715e-02
1.168308e+00	4.210550e+00	3.544515e-02
1.168321e+00	5.263170e+00	3.547016e-02
1.168328e+00	6.315796e+00	3.548280e-02
1.168331e+00	7.368425e+00	3.548975e-02
1.168333e+00	8.421054e+00	3.549360e-02
1.168348e+00	9.473520e+00	3.549440e-02
1.168348e+00	1.052648e+01	3.549470e-02
1.168333e+00	1.157895e+01	3.549359e-02
1.168332e+00	1.263158e+01	3.548887e-02
1.168328e+00	1.368420e+01	3.548117e-02
1.168322e+00	1.473683e+01	3.546683e-02
1.168311e+00	1.578945e+01	3.543718e-02
1.168291e+00	1.684205e+01	3.536280e-02
1.168251e+00	1.789456e+01	3.509714e-02
1.168255e+00	1.894650e+01	3.370281e-02
1.174837e+00	1.998913e+01	1.873614e-02
1.165646e+00	1.084808e-02	1.856531e-02
1.157477e+00	1.053523e+00	3.262338e-02
1.157495e+00	2.105427e+00	3.363595e-02
1.157556e+00	3.157945e+00	3.382059e-02
1.157577e+00	4.210548e+00	3.388206e-02
1.157586e+00	5.263169e+00	3.390828e-02
1.157591e+00	6.315795e+00	3.392145e-02
1.157593e+00	7.368424e+00	3.392866e-02
1.157594e+00	8.421054e+00	3.393276e-02
1.157609e+00	9.473531e+00	3.393352e-02
1.157609e+00	1.052647e+01	3.393370e-02
1.157594e+00	1.157895e+01	3.393273e-02
1.157594e+00	1.263158e+01	3.392807e-02
1.157592e+00	1.368420e+01	3.392036e-02
1.157588e+00	1.473683e+01	3.390607e-02
1.157582e+00	1.578945e+01	3.387672e-02
1.157573e+00	1.684206e+01	3.380419e-02
1.157573e+00	1.789458e+01	3.355121e-02
1.157827e+00	1.894659e+01	3.222427e-02
1.165744e+00	1.998938e+01	1.811446e-02
1.156817e+00	1.015804e-02	1.667394e-02
1.147939e+00	1.053434e+00	3.016193e-02
1.147917e+00	2.105410e+00	3.105131e-02
1.147936e+00	3.157940e+00	3.126192e-02
1.147944e+00	4.210545e+00	3.132839e-02
1.147949e+00	5.263167e+00	3.135581e-02
1.147952e+00	6.315795e+00	3.136934e-02
1.147954e+00	7.368424e+00	3.137666e-02
1.147954e+00	8.421054e+00	3.138103e-02
1.147968e+00	9.473542e+00	3.138176e-02
1.147968e+00	1.052646e+01	3.138166e-02
1.147954e+00	1.157895e+01	3.138098e-02
1.147954e+00	1.263158e+01	3.137678e-02
1.147952e+00	1.368421e+01	3.136954e-02
1.147950e+00	1.473683e+01	3.135619e-02
1.147945e+00	1.578945e+01	3.132923e-02
1.147939e+00	1.684206e+01	3.126450e-02
1.147939e+00	1.789459e+01	3.104680e-02
1.148135e+00	1.894665e+01	3.001522e-02
1.156871e+00	1.999018e+01	1.652440e-02
1.147812e+00	9.271238e-03	1.551385e-02
1.139305e+00	1.053388e+00	2.701358e-02
1.139305e+00	2.105399e+00	2.777369e-02
1.139271e+00	3.157937e+00	2.800302e-02
1.139269e+00	4.210544e+00	2.807089e-02
1.139270e+00	5.263167e+00	2.809814e-02
1.139271e+00	6.315794e+00	2.811136e-02
1.139272e+00	7.368424e+00	2.811844e-02
1.139272e+00	8.421054e+00	2.812280e-02
1.139285e+00	9.473527e+00	2.812371e-02
1.139285e+00	1.052647e+01	2.812342e-02
1.139272e+00	1.157895e+01	2.812273e-02
1.139271e+00	1.263158e+01	2.811904e-02
1.139270e+00	1.368421e+01	2.811245e-02
1.139268e+00	1.473683e+01	2.810036e-02
1.139263e+00	1.578946e+01	2.807621e-02
1.139255e+00	1.684206e+01	2.801971e-02
1.139246e+00	1.789460e+01	2.783243e-02
1.139320e+00	1.894667e+01	2.705468e-02
1.147804e+00	1.999082e+01	1.560405e-02
1.138967e+00	9.026175e-03	1.414520e-02
1.131198e+00	1.053319e+00	2.349486e-02
1.131362e+00	2.105385e+00	2.409588e-02
1.131336e+00	3.157933e+00	2.430524e-02
1.131335e+00	4.210543e+00	2.436670e-02
1.131337e+00	5.263166e+00	2.439125e-02
1.131339e+00	6.315794e+00	2.440311e-02
1.131340e+00	7.368424e+00	2.440944e-02
1.131340e+00	8.421054e+00	2.441334e-02
1.131353e+00	9.473529e+00	2.441412e-02
1.131353e+00	1.052647e+01	2.441378e-02
1.131340e+00	1.157895e+01	2.441315e-02
1.131339e+00	1.263158e+01	2.440983e-02
1.131338e+00	1.368421e+01	2.440386e-02
1.131336e+00	1.473683e+01	2.439296e-02
1.131331e+00	1.578946e+01	2.437125e-02
1.131322e+00	1.684207e+01	2.432090e-02
1.131309e+00	1.789461e+01	2.415482e-02
1.131283e+00	1.894670e+01	2.356240e-02
1.139024e+00	1.999093e+01	1.415319e-02
1.130566e+00	8.865917e-03	1.202307e-02
1.123561e+00	1.053260e+00	1.968933e-02
1.123823e+00	2.105372e+00	2.021536e-02
1.123841e+00	3.157930e+00	2.038794e-02
1.123850e+00	4.210541e+00	2.043988e-02
1.123855e+00	5.263165e+00	2.046080e-02
1.123858e+00	6.315794e+00	2.047091e-02
1.123860e+00	7.368424e+00	2.047630e-02
1.123860e+00	8.421054e+00	2.047959e-02
1.123873e+00	9.473530e+00	2.048023e-02
1.123873e+00	1.052647e+01	2.047992e-02
1.123861e+00	1.157895e+01	2.047926e-02
1.123861e+00	1.263158e+01	2.047623e-02
[...]
CELL_DATA 532
SCALARS Mu double 1
LOOKUP_TABLE default
-2.66312e-11
-3.10664e-11
-3.18437e-11
-3.20552e-11
-3.21323e-11
-3.21718e-11
-3.21894e-11
-3.2205e-11
-3.22268e-11
-3.22102e-11
-3.22278e-11
-3.22073e-11
-3.21913e-11
-3.21714e-11
-3.21368e-11
-3.20551e-11
-3.18426e-11
-3.10702e-11
-2.66293e-11
0.00415121
0.00443406
0.00448509
0.00449967
0.00450535
0.00450804
0.00450948
0.00451029
0.00451071
0.00451085
0.00451071
0.00451029
0.00450948
0.00450804
0.00450535
0.00449967
0.00448509
0.00443406
0.00415121
0.00559784
0.00596326
0.00603655
0.00605728
0.0060653
0.00606909
0.00607111
0.00607224
0.0060729
0.00607312
0.00607289
0.00607226
0.00607116
0.00606918
0.00606547
0.00605767
0.0060378
0.00596923
0.00564305
0.00640968
0.00693568
0.00702847
0.00705412
0.00706391
0.0070685
0.00707094
0.00707229
0.00707316
0.0070734
0.00707305
0.00707236
0.00707106
0.00706873
0.00706438
0.00705529
0.00703244
0.00695572
0.00671908
0.0069648
0.00755651
0.00765777
0.00768596
0.00769675
0.00770181
0.0077045
0.00770599
0.00770694
0.00770723
0.00770685
0.00770605
0.0077046
0.00770201
0.00769715
0.00768698
0.00766127
0.00757311
0.00733451
0.00726833
0.00788298
0.00798796
0.00801715
0.00802839
0.00803369
0.00803651
0.00803807
0.00803905
0.00803939
0.008039
0.0080381
0.00803655
0.00803377
0.00802854
0.00801754
0.00798942
0.00788835
0.007577
0.00733533
0.00794558
0.00804937
0.0080786
0.00808994
0.00809532
0.00809817
0.00809976
0.00810073
0.00810112
0.00810073
0.00809976
0.00809816
0.00809528
0.00808987
0.00807842
0.00804897
0.00794052
0.00752251
0.00717642
0.00775941
0.00786198
0.00789115
0.00790248
0.00790784
0.00791069
0.00791227
0.00791325
0.00791363
0.00791323
0.00791227
0.00791067
0.00790781
0.00790243
0.00789104
0.00786183
0.00775361
0.00731422
0.00680116
0.00734184
0.00744473
0.00747379
0.00748499
0.00749026
0.00749305
0.0074946
0.00749559
0.00749595
0.00749554
0.00749464
0.0074931
0.00749035
0.00748519
0.00747431
0.00744667
0.00734469
0.00694306
0.00622373
0.00671545
0.006818
0.00684641
0.00685723
0.0068623
0.00686497
0.00686644
0.00686742
0.00686774
0.00686733
0.00686651
0.00686508
0.00686251
0.0068577
0.00684762
0.00682229
0.0067289
0.00638513
0.00546651
0.0059058
0.00600398
0.0060307
0.00604079
0.00604548
0.00604795
0.0060493
0.00605022
0.00605051
0.00605011
0.00604939
0.00604809
0.00604576
0.00604139
0.00603228
0.00600961
0.00592591
0.00564692
0.00454778
0.00493779
0.00502658
0.00505052
0.00505952
0.00506368
0.00506586
0.00506705
0.00506788
0.00506812
0.00506775
0.00506713
0.00506598
0.00506393
0.00506008
0.00505208
0.00503231
0.00495926
0.00474823
0.00347496
0.00383336
0.00391132
0.00393196
0.00393968
0.00394323
0.00394508
0.00394609
0.00394679
0.003947
0.00394669
0.00394617
0.0039452
0.00394347
0.00394023
0.00393349
0.00391693
0.00385573
0.00371128
0.00229078
0.0026212
0.00268695
0.00270386
0.00271013
0.00271301
0.0027145
0.00271531
0.00271587
0.00271604
0.0027158
0.00271539
0.00271464
0.00271327
0.00271071
0.0027054
0.00269243
0.00264445
0.00256079
0.00105664
0.00133609
0.00138515
0.0013975
0.00140205
0.00140412
0.00140519
0.00140577
0.00140617
0.0014063
0.00140612
0.00140584
0.00140531
0.00140435
0.00140255
0.00139881
0.00138982
0.00135657
0.00132289
-0.000209143
6.43864e-06
3.77109e-05
4.5225e-05
4.79346e-05
4.91465e-05
4.97616e-05
5.00891e-05
5.03252e-05
5.03915e-05
5.02853e-05
5.01526e-05
4.9865e-05
4.93396e-05
4.83492e-05
4.63025e-05
4.16187e-05
2.43149e-05
3.41971e-05
-0.00147823
-0.00133624
-0.00132229
-0.00131959
-0.00131872
-0.00131838
-0.00131822
-0.00131815
-0.00131807
-0.00131807
-0.0013181
-0.00131809
-0.00131812
-0.00131819
-0.00131834
-0.00131862
-0.0013188
-0.00131969
-0.00126034
-0.0027229
-0.00265853
-0.00266119
-0.0026632
-0.00266413
-0.00266463
-0.00266492
-0.0026651
-0.00266518
-0.00266523
-0.00266519
-0.00266503
-0.00266481
-0.00266443
-0.00266372
-0.00266221
-0.00265782
-0.00264222
-0.00252414
-0.0039124
-0.00392742
-0.00394586
-0.00395235
-0.00395502
-0.00395634
-0.00395707
-0.00395749
-0.00395773
-0.00395783
-0.00395772
-0.0039574
-0.00395693
-0.0039561
-0.00395456
-0.00395128
-0.00394238
-0.0039105
-0.00373133
-0.00501246
-0.00511084
-0.0051444
-0.00515517
-0.0051595
-0.00516161
-0.00516276
-0.00516341
-0.00516379
-0.00516396
-0.00516378
-0.00516331
-0.0051626
-0.00516134
-0.005159
-0.00515403
-0.00514076
-0.00509319
-0.00485636
-0.00599743
-0.00617912
-0.00622714
-0.00624195
-0.00624786
-0.00625073
-0.00625228
-0.00625316
-0.00625368
-0.0062539
-0.00625367
-0.00625306
-0.00625214
-0.00625048
-0.00624739
-0.00624084
-0.00622349
-0.00616118
-0.00587251
-0.00684815
-0.00710615
-0.00716781
-0.00718629
-0.00719359
-0.00719711
-0.007199
-0.00720007
-0.0072007
-0.00720097
-0.00720069
-0.00719995
-0.00719882
-0.00719681
-0.00719304
-0.00718506
-0.00716403
-0.00708828
-0.00675498
-0.00754625
-0.00786968
-0.00794355
-0.00796506
-0.00797352
-0.00797758
-0.00797977
-0.00798099
-0.00798172
-0.00798204
-0.0079817
-0.00798085
-0.00797955
-0.00797723
-0.00797288
-0.00796367
-0.00793946
-0.00785187
-0.00748208
-0.00807533
-0.0084516
-0.00853532
-0.00855931
-0.00856871
-0.00857322
-0.00857565
-0.008577
-0.00857781
-0.00857816
-0.00857778
-0.00857685
-0.0085754
-0.00857283
-0.008568
-0.00855777
-0.00853098
-0.00843343
-0.00803566
-0.00842295
-0.00883826
-0.00892879
-0.00895469
-0.00896483
-0.00896968
-0.00897229
-0.00897375
-0.00897462
-0.00897499
-0.00897458
-0.00897358
-0.00897202
-0.00896926
-0.00896407
-0.00895308
-0.00892435
-0.008819
-0.00840153
-0.00858194
-0.0090205
-0.00911455
-0.00914177
-0.00915241
-0.0091575
-0.00916024
-0.00916177
-0.00916267
-0.00916306
-0.00916263
-0.00916158
-0.00915995
-0.00915706
-0.00915164
-0.00914015
-0.00911018
-0.00899937
-0.00857001
-0.00855017
-0.00899359
-0.00908844
-0.00911622
-0.00912707
-0.00913227
-0.00913505
-0.00913661
-0.00913753
-0.00913793
-0.00913747
-0.00913641
-0.00913475
-0.00913181
-0.00912628
-0.00911457
-0.00908405
-0.00897033
-0.00853641

