# vtk DataFile Version 2.0
OUTPUT by 3D-VPM
ASCII
DATASET UNSTRUCTURED_GRID
POINTS 1020 double
1.406719e+00	3.825795e-02	1.682975e-02
1.416888e+00	1.061995e+00	3.643401e-02
1.419066e+00	2.107881e+00	3.350756e-02
1.419388e+00	3.158836e+00	3.249898e-02
1.419506e+00	4.210922e+00	3.224264e-02
1.419578e+00	5.263350e+00	3.215195e-02
1.419615e+00	6.315892e+00	3.211917e-02
1.419634e+00	7.368478e+00	3.210750e-02
1.419643e+00	8.421087e+00	3.210338e-02
1.419665e+00	9.473512e+00	3.210461e-02
1.419665e+00	1.052648e+01	3.210465e-02
1.419643e+00	1.157892e+01	3.210266e-02
1.419634e+00	1.263152e+01	3.210692e-02
1.419616e+00	1.368411e+01	3.211769e-02
1.419580e+00	1.473666e+01	3.214770e-02
1.419510e+00	1.578910e+01	3.223019e-02
1.419392e+00	1.684123e+01	3.245357e-02
1.419117e+00	1.789238e+01	3.329731e-02
1.417268e+00	1.894160e+01	3.438256e-02
1.407231e+00	1.995958e+01	1.945282e-02
1.422118e+00	2.689379e-02	7.663354e-03
1.414045e+00	1.058306e+00	7.426674e-03
1.411035e+00	2.106549e+00	8.053160e-03
1.410342e+00	3.158304e+00	8.208232e-03
1.410156e+00	4.210744e+00	8.253121e-03
1.410073e+00	5.263288e+00	8.272907e-03
1.410043e+00	6.315864e+00	8.281135e-03
1.410035e+00	7.368464e+00	8.284451e-03
1.410032e+00	8.421078e+00	8.285833e-03
1.410059e+00	9.473515e+00	8.286153e-03
1.410059e+00	1.052648e+01	8.285974e-03
1.410032e+00	1.157893e+01	8.285793e-03
1.410035e+00	1.263154e+01	8.284506e-03
1.410042e+00	1.368414e+01	8.281339e-03
1.410069e+00	1.473672e+01	8.273609e-03
1.410146e+00	1.578926e+01	8.255115e-03
1.410315e+00	1.684171e+01	8.214410e-03
1.410910e+00	1.789352e+01	8.088576e-03
1.412211e+00	1.894230e+01	7.649431e-03
1.418334e+00	1.996737e+01	9.195386e-03
1.421034e+00	1.489632e-02	1.985864e-02
1.406502e+00	1.060118e+00	2.176206e-02
1.405287e+00	2.106578e+00	2.443533e-02
1.405734e+00	3.158272e+00	2.475587e-02
1.405911e+00	4.210675e+00	2.483840e-02
1.405994e+00	5.263229e+00	2.487189e-02
1.406033e+00	6.315828e+00	2.488655e-02
1.406052e+00	7.368442e+00	2.489335e-02
1.406060e+00	8.421064e+00	2.489679e-02
1.406084e+00	9.473522e+00	2.489667e-02
1.406084e+00	1.052648e+01	2.489650e-02
1.406061e+00	1.157894e+01	2.489676e-02
1.406052e+00	1.263156e+01	2.489346e-02
1.406034e+00	1.368417e+01	2.488685e-02
1.405997e+00	1.473677e+01	2.487277e-02
1.405918e+00	1.578933e+01	2.484088e-02
1.405753e+00	1.684176e+01	2.476422e-02
1.405360e+00	1.789358e+01	2.449533e-02
1.405607e+00	1.894311e+01	2.364075e-02
1.425837e+00	1.998035e+01	1.705110e-02
1.424337e+00	2.803572e-02	2.804049e-02
1.396415e+00	1.056935e+00	1.583383e-02
1.395380e+00	2.106059e+00	1.560299e-02
1.395237e+00	3.158134e+00	1.582044e-02
1.395214e+00	4.210623e+00	1.590573e-02
1.395205e+00	5.263205e+00	1.594072e-02
1.395206e+00	6.315815e+00	1.595799e-02
1.395208e+00	7.368435e+00	1.596741e-02
1.395209e+00	8.421059e+00	1.597290e-02
1.395234e+00	9.473519e+00	1.596837e-02
1.395234e+00	1.052648e+01	1.596824e-02
1.395209e+00	1.157894e+01	1.597283e-02
1.395208e+00	1.263156e+01	1.596766e-02
1.395205e+00	1.368419e+01	1.595845e-02
1.395204e+00	1.473680e+01	1.594165e-02
1.395211e+00	1.578938e+01	1.590786e-02
1.395228e+00	1.684187e+01	1.582650e-02
1.395351e+00	1.789395e+01	1.562777e-02
1.395899e+00	1.894371e+01	1.582712e-02
1.424826e+00	1.996880e+01	2.571856e-02
1.405699e+00	1.825553e-02	2.760027e-02
1.424782e+00	1.054629e+00	3.095682e-02
1.427347e+00	2.105667e+00	2.615549e-02
1.427639e+00	3.158017e+00	2.524175e-02
1.427728e+00	4.210577e+00	2.498879e-02
1.427764e+00	5.263183e+00	2.488068e-02
1.427785e+00	6.315803e+00	2.483415e-02
1.427798e+00	7.368429e+00	2.481343e-02
1.427806e+00	8.421055e+00	2.480308e-02
1.427831e+00	9.473516e+00	2.480824e-02
1.427830e+00	1.052648e+01	2.480846e-02
1.427806e+00	1.157894e+01	2.480262e-02
1.427799e+00	1.263157e+01	2.481282e-02
1.427786e+00	1.368420e+01	2.483280e-02
1.427765e+00	1.473682e+01	2.487706e-02
1.427731e+00	1.578942e+01	2.497919e-02
1.427649e+00	1.684199e+01	2.521246e-02
1.427399e+00	1.789436e+01	2.602724e-02
1.426120e+00	1.894558e+01	2.888464e-02
1.406685e+00	1.998028e+01	2.993219e-02
1.393515e+00	1.923151e-02	3.591387e-02
1.397362e+00	1.055175e+00	5.057893e-02
1.399941e+00	2.105742e+00	5.087700e-02
1.400498e+00	3.158038e+00	5.091114e-02
1.400674e+00	4.210585e+00	5.092392e-02
1.400752e+00	5.263187e+00	5.092759e-02
1.400789e+00	6.315805e+00	5.093059e-02
1.400808e+00	7.368430e+00	5.093309e-02
1.400817e+00	8.421056e+00	5.093505e-02
1.400842e+00	9.473515e+00	5.093742e-02
1.400842e+00	1.052648e+01	5.093725e-02
1.400817e+00	1.157894e+01	5.093481e-02
1.400808e+00	1.263157e+01	5.093316e-02
1.400790e+00	1.368420e+01	5.093066e-02
1.400754e+00	1.473681e+01	5.092757e-02
1.400679e+00	1.578942e+01	5.092377e-02
1.400513e+00	1.684197e+01	5.091140e-02
1.400010e+00	1.789429e+01	5.088805e-02
1.398390e+00	1.894549e+01	5.128245e-02
1.393252e+00	1.997906e+01	3.753069e-02
1.381144e+00	2.074894e-02	3.458367e-02
1.377375e+00	1.054837e+00	5.687502e-02
1.378750e+00	2.105693e+00	5.818826e-02
1.379093e+00	3.158025e+00	5.840342e-02
1.379207e+00	4.210580e+00	5.846873e-02
1.379259e+00	5.263185e+00	5.849570e-02
1.379284e+00	6.315804e+00	5.850925e-02
1.379297e+00	7.368429e+00	5.851673e-02
1.379303e+00	8.421056e+00	5.852104e-02
1.379329e+00	9.473501e+00	5.852354e-02
1.379329e+00	1.052650e+01	5.852369e-02
1.379303e+00	1.157894e+01	5.852094e-02
1.379298e+00	1.263157e+01	5.851607e-02
1.379285e+00	1.368420e+01	5.850801e-02
1.379260e+00	1.473682e+01	5.849318e-02
1.379210e+00	1.578942e+01	5.846281e-02
1.379101e+00	1.684198e+01	5.838583e-02
1.378785e+00	1.789433e+01	5.811713e-02
1.377559e+00	1.894569e+01	5.723622e-02
1.380385e+00	1.997885e+01	3.530292e-02
1.370495e+00	1.764759e-02	3.193299e-02
1.360039e+00	1.054642e+00	5.873403e-02
1.360660e+00	2.105661e+00	6.026893e-02
1.360913e+00	3.158016e+00	6.051729e-02
1.360998e+00	4.210577e+00	6.059612e-02
1.361036e+00	5.263183e+00	6.062974e-02
1.361055e+00	6.315803e+00	6.064651e-02
1.361064e+00	7.368429e+00	6.065559e-02
1.361069e+00	8.421056e+00	6.066063e-02
1.361095e+00	9.473508e+00	6.066320e-02
1.361094e+00	1.052649e+01	6.066361e-02
1.361069e+00	1.157894e+01	6.066056e-02
1.361066e+00	1.263157e+01	6.065426e-02
1.361057e+00	1.368420e+01	6.064407e-02
1.361041e+00	1.473682e+01	6.062485e-02
1.361010e+00	1.578942e+01	6.058462e-02
1.360949e+00	1.684199e+01	6.048258e-02
1.360814e+00	1.789436e+01	6.011432e-02
1.360754e+00	1.894578e+01	5.825070e-02
1.369961e+00	1.998161e+01	3.252152e-02
1.359224e+00	1.555767e-02	3.467278e-02
1.344232e+00	1.054509e+00	5.757648e-02
1.344426e+00	2.105640e+00	5.905898e-02
1.344651e+00	3.158010e+00	5.932356e-02
1.344717e+00	4.210574e+00	5.940983e-02
1.344746e+00	5.263182e+00	5.944656e-02
1.344759e+00	6.315803e+00	5.946474e-02
1.344766e+00	7.368428e+00	5.947453e-02
1.344769e+00	8.421056e+00	5.948002e-02
1.344795e+00	9.473518e+00	5.948267e-02
1.344795e+00	1.052648e+01	5.948302e-02
1.344769e+00	1.157894e+01	5.947993e-02
1.344769e+00	1.263157e+01	5.947329e-02
1.344764e+00	1.368420e+01	5.946252e-02
1.344755e+00	1.473682e+01	5.944217e-02
1.344739e+00	1.578943e+01	5.939952e-02
1.344718e+00	1.684199e+01	5.929264e-02
1.344726e+00	1.789437e+01	5.891216e-02
1.345579e+00	1.894588e+01	5.698045e-02
1.359292e+00	1.998480e+01	3.383304e-02
1.348685e+00	1.781254e-02	3.317450e-02
1.330034e+00	1.054400e+00	5.395890e-02
1.329961e+00	2.105621e+00	5.533199e-02
1.330127e+00	3.158004e+00	5.562761e-02
1.330164e+00	4.210572e+00	5.572062e-02
1.330181e+00	5.263181e+00	5.575908e-02
1.330188e+00	6.315802e+00	5.577780e-02
1.330192e+00	7.368428e+00	5.578774e-02
1.330193e+00	8.421056e+00	5.579359e-02
1.330221e+00	9.473528e+00	5.579578e-02
1.330220e+00	1.052647e+01	5.579575e-02
1.330193e+00	1.157894e+01	5.579343e-02
1.330194e+00	1.263157e+01	5.578734e-02
1.330192e+00	1.368420e+01	5.577708e-02
1.330188e+00	1.473682e+01	5.575779e-02
1.330182e+00	1.578943e+01	5.571792e-02
1.330183e+00	1.684200e+01	5.562058e-02
1.330239e+00	1.789438e+01	5.528927e-02
1.331213e+00	1.894594e+01	5.384168e-02
1.348767e+00	1.998299e+01	3.316673e-02
1.339687e+00	1.736155e-02	2.910832e-02
1.318458e+00	1.054435e+00	4.816457e-02
1.317707e+00	2.105611e+00	4.955312e-02
1.317492e+00	3.158001e+00	4.992770e-02
1.317449e+00	4.210571e+00	5.002893e-02
1.317438e+00	5.263180e+00	5.006873e-02
1.317434e+00	6.315802e+00	5.008753e-02
1.317432e+00	7.368428e+00	5.009731e-02
1.317428e+00	8.421056e+00	5.010335e-02
1.317452e+00	9.473513e+00	5.010643e-02
1.317452e+00	1.052649e+01	5.010605e-02
1.317427e+00	1.157894e+01	5.010332e-02
1.317428e+00	1.263157e+01	5.009825e-02
1.317427e+00	1.368420e+01	5.008934e-02
1.317425e+00	1.473682e+01	5.007251e-02
1.317423e+00	1.578943e+01	5.003820e-02
1.317423e+00	1.684200e+01	4.995711e-02
1.317459e+00	1.789439e+01	4.968529e-02
1.318199e+00	1.894591e+01	4.875630e-02
1.339612e+00	1.998333e+01	2.905701e-02
1.330476e+00	1.559773e-02	2.506561e-02
1.307474e+00	1.054441e+00	4.091774e-02
1.308046e+00	2.105613e+00	4.224111e-02
1.307092e+00	3.158000e+00	4.263611e-02
1.306891e+00	4.210570e+00	4.272523e-02
1.306825e+00	5.263180e+00	4.275887e-02
1.306796e+00	6.315801e+00	4.277444e-02
1.306781e+00	7.368428e+00	4.278239e-02
1.306770e+00	8.421055e+00	4.278707e-02
1.306791e+00	9.473513e+00	4.279002e-02
1.306791e+00	1.052649e+01	4.278986e-02
1.306761e+00	1.157894e+01	4.278707e-02
1.306759e+00	1.263157e+01	4.278281e-02
1.306757e+00	1.368420e+01	4.277545e-02
1.306754e+00	1.473682e+01	4.276144e-02
1.306750e+00	1.578943e+01	4.273256e-02
1.306738e+00	1.684200e+01	4.266364e-02
1.306773e+00	1.789440e+01	4.243094e-02
1.307804e+00	1.894588e+01	4.189821e-02
1.330332e+00	1.998447e+01	2.560760e-02
1.320236e+00	1.433937e-02	2.249356e-02
1.297415e+00	1.052507e+00	2.362454e-02
1.296401e+00	2.105516e+00	3.174874e-02
1.298563e+00	3.157989e+00	3.384944e-02
1.298965e+00	4.210567e+00	3.411299e-02
1.299103e+00	5.263178e+00	3.419915e-02
1.299163e+00	6.315801e+00	3.423613e-02
1.299193e+00	7.368427e+00	3.425436e-02
1.299205e+00	8.421055e+00	3.426333e-02
1.299264e+00	9.473514e+00	3.428000e-02
1.299274e+00	1.052649e+01	3.428359e-02
1.299232e+00	1.157894e+01	3.427322e-02
1.299240e+00	1.263157e+01	3.427219e-02
[...]
CELL_DATA 950
SCALARS Mu double 1
LOOKUP_TABLE default
-2.66312e-11
-3.10664e-11
-3.18437e-11
-3.20552e-11
-3.21323e-11
-3.21718e-11
-3.21894e-11
-3.2205e-11
-3.22268e-11
-3.22102e-11
-3.22278e-11
-3.22073e-11
-3.21913e-11
-3.21714e-11
-3.21368e-11
-3.20551e-11
-3.18426e-11
-3.10702e-11
-2.66293e-11
0.00415121
0.00443406
0.00448509
0.00449967
0.00450535
0.00450804
0.00450948
0.00451029
0.00451071
0.00451085
0.00451071
0.00451029
0.00450948
0.00450804
0.00450535
0.00449967
0.00448509
0.00443406
0.00415121
0.00559784
0.00596326
0.00603655
0.00605728
0.0060653
0.00606909
0.00607111
0.00607224
0.0060729
0.00607312
0.00607289
0.00607226
0.00607116
0.00606918
0.00606547
0.00605767
0.0060378
0.00596923
0.00564305
0.00640968
0.00693568
0.00702847
0.00705412
0.00706391
0.0070685
0.00707094
0.00707229
0.00707316
0.0070734
0.00707305
0.00707236
0.00707106
0.00706873
0.00706438
0.00705529
0.00703244
0.00695572
0.00671908
0.0069648
0.00755651
0.00765777
0.00768596
0.00769675
0.00770181
0.0077045
0.00770599
0.00770694
0.00770723
0.00770685
0.00770605
0.0077046
0.00770201
0.00769715
0.00768698
0.00766127
0.00757311
0.00733451
0.00726833
0.00788298
0.00798796
0.00801715
0.00802839
0.00803369
0.00803651
0.00803807
0.00803905
0.00803939
0.008039
0.0080381
0.00803655
0.00803377
0.00802854
0.00801754
0.00798942
0.00788835
0.007577
0.00733533
0.00794558
0.00804937
0.0080786
0.00808994
0.00809532
0.00809817
0.00809976
0.00810073
0.00810112
0.00810073
0.00809976
0.00809816
0.00809528
0.00808987
0.00807842
0.00804897
0.00794052
0.00752251
0.00717642
0.00775941
0.00786198
0.00789115
0.00790248
0.00790784
0.00791069
0.00791227
0.00791325
0.00791363
0.00791323
0.00791227
0.00791067
0.00790781
0.00790243
0.00789104
0.00786183
0.00775361
0.00731422
0.00680116
0.00734184
0.00744473
0.00747379
0.00748499
0.00749026
0.00749305
0.0074946
0.00749559
0.00749595
0.00749554
0.00749464
0.0074931
0.00749035
0.00748519
0.00747431
0.00744667
0.00734469
0.00694306
0.00622373
0.00671545
0.006818
0.00684641
0.00685723
0.0068623
0.00686497
0.00686644
0.00686742
0.00686774
0.00686733
0.00686651
0.00686508
0.00686251
0.0068577
0.00684762
0.00682229
0.0067289
0.00638513
0.00546651
0.0059058
0.00600398
0.0060307
0.00604079
0.00604548
0.00604795
0.0060493
0.00605022
0.00605051
0.00605011
0.00604939
0.00604809
0.00604576
0.00604139
0.00603228
0.00600961
0.00592591
0.00564692
0.00454778
0.00493779
0.00502658
0.00505052
0.00505952
0.00506368
0.00506586
0.00506705
0.00506788
0.00506812
0.00506775
0.00506713
0.00506598
0.00506393
0.00506008
0.00505208
0.00503231
0.00495926
0.00474823
0.00347496
0.00383336
0.00391132
0.00393196
0.00393968
0.00394323
0.00394508
0.00394609
0.00394679
0.003947
0.00394669
0.00394617
0.0039452
0.00394347
0.00394023
0.00393349
0.00391693
0.00385573
0.00371128
0.00229078
0.0026212
0.00268695
0.00270386
0.00271013
0.00271301
0.0027145
0.00271531
0.00271587
0.00271604
0.0027158
0.00271539
0.00271464
0.00271327
0.00271071
0.0027054
0.00269243
0.00264445
0.00256079
0.00105664
0.00133609
0.00138515
0.0013975
0.00140205
0.00140412
0.00140519
0.00140577
0.00140617
0.0014063
0.00140612
0.00140584
0.00140531
0.00140435
0.00140255
0.00139881
0.00138982
0.00135657
0.00132289
-0.000209143
6.43864e-06
3.77109e-05
4.5225e-05
4.79346e-05
4.91465e-05
4.97616e-05
5.00891e-05
5.03252e-05
5.03915e-05
5.02853e-05
5.01526e-05
4.9865e-05
4.93396e-05
4.83492e-05
4.63025e-05
4.16187e-05
2.43149e-05
3.41971e-05
-0.00147823
-0.00133624
-0.00132229
-0.00131959
-0.00131872
-0.00131838
-0.00131822
-0.00131815
-0.00131807
-0.00131807
-0.0013181
-0.00131809
-0.00131812
-0.00131819
-0.00131834
-0.00131862
-0.0013188
-0.00131969
-0.00126034
-0.0027229
-0.00265853
-0.00266119
-0.0026632
-0.00266413
-0.00266463
-0.00266492
-0.0026651
-0.00266518
-0.00266523
-0.00266519
-0.00266503
-0.00266481
-0.00266443
-0.00266372
-0.00266221
-0.00265782
-0.00264222
-0.00252414
-0.0039124
-0.00392742
-0.00394586
-0.00395235
-0.00395502
-0.00395634
-0.00395707
-0.00395749
-0.00395773
-0.00395783
-0.00395772
-0.0039574
-0.00395693
-0.0039561
-0.00395456
-0.00395128
-0.00394238
-0.0039105
-0.00373133
-0.00501246
-0.00511084
-0.0051444
-0.00515517
-0.0051595
-0.00516161
-0.00516276
-0.00516341
-0.00516379
-0.00516396
-0.00516378
-0.00516331
-0.0051626
-0.00516134
-0.005159
-0.00515403
-0.00514076
-0.00509319
-0.00485636
-0.00599743
-0.00617912
-0.00622714
-0.00624195
-0.00624786
-0.00625073
-0.00625228
-0.00625316
-0.00625368
-0.0062539
-0.00625367
-0.00625306
-0.00625214
-0.00625048
-0.00624739
-0.00624084
-0.00622349
-0.00616118
-0.00587251
-0.00684815
-0.00710615
-0.00716781
-0.00718629
-0.00719359
-0.00719711
-0.007199
-0.00720007
-0.0072007
-0.00720097
-0.00720069
-0.00719995
-0.00719882
-0.00719681
-0.00719304
-0.00718506
-0.00716403
-0.00708828
-0.00675498
-0.00754625
-0.00786968
-0.00794355
-0.00796506
-0.00797352
-0.00797758
-0.00797977
-0.00798099
-0.00798172
-0.00798204
-0.0079817
-0.00798085
-0.00797955
-0.00797723
-0.00797288
-0.00796367
-0.00793946
-0.00785187
-0.00748208
-0.00807533
-0.0084516
-0.00853532
-0.00855931
-0.00856871
-0.00857322
-0.00857565
-0.008577
-0.00857781
-0.00857816
-0.00857778
-0.00857685
-0.0085754
-0.00857283
-0.008568
-0.00855777
-0.00853098
-0.00843343
-0.00803566
-0.00842295
-0.00883826
-0.00892879
-0.00895469
-0.00896483
-0.00896968
-0.00897229
-0.00897375
-0.00897462
-0.00897499
-0.00897458
-0.00897358
-0.00897202
-0.00896926
-0.00896407
-0.00895308
-0.00892435
-0.008819
-0.00840153
-0.00858194
-0.0090205
-0.00911455
-0.00914177
-0.00915241
-0.0091575
-0.00916024
-0.00916177
-0.00916267
-0.00916306
-0.00916263
-0.00916158
-0.00915995
-0.00915706
-0.00915164
-0.00914015
-0.00911018
-0.00899937
-0.00857001
-0.00855017
-0.00899359
-0.00908844
-0.00911622
-0.00912707
-0.00913227
-0.00913505
-0.00913661
-0.00913753
-0.00913793
-0.00913747
-0.00913641
-0.00913475
-0.00913181
-0.00912628
-0.00911457
-0.00908405
-0.00897033
-0.00853641
-0.00832804
-0.0087578
-0.00885102
-0.00887865
-0.00888943
-0.00889459
-0.00889735
-0.00889889
-0.00889981
-0.0089002
-0.00889973
-0.00889868
-0.00889701
-0.00889409
-0.00888859
-0.00887694
-0.0088466
-0.00873265
-0.0083014
-0.00791337
-0.00831811
-0.00840773
-0.00843456
-0.00844501
-0.00844999
-0.00845266
-0.00845415
-0.00845504
-0.00845541
-0.00845494
-0.00845393
-0.00845231
-0.00844947
-0.00844414
-0.00843284
-0.00840343
-0.00829202
-0.00787076
-0.0073058
-0.00768353
-0.00776858
-0.00779417
-0.0078041
-0.00780881
-0.00781132
-0.00781271
-0.00781357
-0.0078139
-0.00781344
-0.0078125
-0.00781098
-0.00780829
-0.00780327
-0.00779262
-0.00776491
-0.00765902
-0.00726026
-0.0065271
-0.00686922
-0.00694837
-0.00697229
-0.00698151
-0.00698586
-0.00698817
-0.00698945
-0.00699026
-0.00699055
-0.00699011
-0.00698926
-0.00698788
-0.00698542
-0.00698084
-0.00697113
-0.00694588
-0.00684858
-0.00648654
-0.00559281
-0.0058951
-0.00596642
-0.00598805
-0.00599634
-0.00600023
-0.00600229
-0.00600342
-0.00600415
-0.00600441
-0.006004
-0.00600326
-0.00600204
-0.00599987
-0.00599583
-0.00598729
-0.00596509
-0.00587837
-0.00556886
-0.00451399
-0.00478328
-0.00484533
-0.00486424
-0.00487142
-0.00487476
-0.00487651
-0.00487748
-0.00487811
-0.00487832
-0.00487795
-0.00487732
-0.00487629
-0.00487445
-0.00487105
-0.00486385
-0.00484524
-0.00477022
-0.0045218
-0.00332803
-0.00355956
-0.0036111
-0.00362692
-0.00363288
-0.00363562
-0.00363705
-0.00363782
-0.00363835
-0.0036385
-0.00363817
-0.00363768
-0.00363686
-0.0036354
-0.00363269
-0.00362701
-0.00361253
-0.00355134
-0.00336813
-0.00207076
-0.00225238
-0.00229269
-0.00230512
-0.00230972
-0.0023118
-0.00231287
-0.00231344
-0.00231385
-0.00231395
-0.00231369
-0.00231335
-0.00231276
-0.00231172
-0.0023098
-0.0023058
-0.00229553
-0.00224973
-0.00213592
-0.000776699
-0.000894077
-0.000921544
-0.000930079
-0.000933128
-0.000934471
-0.000935143
-0.000935488
-0.000935764
-0.000935816
-0.000935625
-0.000935443
-0.000935106
-0.000934522
-0.000933433
-0.000931194
-0.000925232
-0.000895797
-0.000854141
0.00052738
0.00048213
0.000469568
0.000465596
0.000464304
0.000463782
0.000463543
0.000463435
0.000463306
0.000463302
0.00046341
0.000463432
0.000463503
0.000463627
0.000463865
0.000464347
0.000465953
0.00047865
0.000447458
0.00181451
0.00184267
0.00184762
0.00184851
0.00184913
0.00184953
0.00184979
0.00184997
0.00185003
0.0018501
0.00185014
0.00185002
0.00184984
0.00184952
0.00184893
0.0018477
0.00184496
0.00184104
0.00173881
0.00305583
0.00315603
0.00317975
0.00318589
0.00318855
0.00318992
0.0031907
0.00319116
0.00319141
0.00319154
0.0031915
0.00319124
0.00319083
0.00319007
0.00318868
0.00318581
0.00317889
0.00315904
0.00298868
0.00422191
0.00439191
0.00443444
0.004446
0.00445066
0.00445294
0.0044542
0.00445492
0.00445533
0.00445551
0.00445539
0.00445498
0.00445433
0.00445315
0.00445098
0.00444652
0.00443558
0.00440058
0.00416704
0.00528459
0.00552203
0.00558198
0.00559866
0.00560517
0.0056083
0.00560998
0.00561094
0.00561151
0.00561173
0.00561154
0.00561099
0.00561012
0.00560855
0.00560567
0.00559975
0.00558515
0.00553646
0.00524716
0.00621739
0.00652159
0.00659499
0.00661625
0.00662446
0.00662836
0.00663044
0.00663161
0.00663231
0.00663258
0.00663231
0.00663164
0.00663056
0.00662863
0.00662508
0.00661778
0.00659981
0.00653886
0.00620287
0.00699912
0.00736574
0.00744945
0.0074746
0.00748428
0.00748885
0.00749128
0.00749263
0.00749346
0.00749376
0.00749343
0.00749265
0.00749139
0.00748912
0.00748498
0.00747642
0.00745544
0.00738385
0.00701112
0.00761275
0.00803209
0.00812521
0.00815344
0.00816429
0.00816942
0.00817214
0.00817366
0.0081746
0.00817493
0.00817455
0.00817368
0.00817225
0.0081697
0.00816503
0.00815538
0.00813179
0.00805111
0.00765184
0.00804608
0.00850495
0.0086054
0.00863651
0.00864847
0.00865412
0.00865711
0.00865878
0.00865981
0.00866018
0.00865976
0.00865882
0.00865726
0.00865449
0.00864939
0.00863885
0.00861311
0.00852502
0.0081093
0.0082904
0.00877521
0.00888004
0.00891328
0.00892611
0.00893208
0.00893521
0.00893695
0.00893803
0.00893841
0.00893795
0.00893697
0.00893532
0.00893237
0.00892694
0.00891573
0.00888839
0.00879475
0.00837075
0.00833933
0.00883425
0.00894278
0.00897763
0.00899079
0.00899689
0.00900009
0.00900186
0.00900297
0.00900336
0.00900288
0.00900187
0.00900016
0.0089971
0.00899146
0.00897983
0.00895146
0.00885402
0.00842886
0.00819183
0.00868544
0.00879284
0.00882769
0.00884106
0.00884726
0.00885054
0.00885234
0.00885348
0.0088539
0.00885342
0.00885242
0.0088507
0.00884761
0.0088419
0.00883014
0.00880142
0.00870239
0.00828204
0.00784623
0.00833266
0.00843568
0.00846853
0.00848147
0.0084875
0.0084907
0.00849246
0.00849359
0.008494
0.00849352
0.00849253
0.00849084
0.00848778
0.00848212
0.00847045
0.0084421
0.00834473
0.00793305

