# vtk DataFile Version 2.0
OUTPUT by 3D-VPM
ASCII
DATASET UNSTRUCTURED_GRID
POINTS 1000 double
1.397601e+00	3.734108e-02	1.482024e-02
1.406811e+00	1.061842e+00	3.610192e-02
1.409079e+00	2.107798e+00	3.352534e-02
1.409464e+00	3.158750e+00	3.266390e-02
1.409615e+00	4.210872e+00	3.246563e-02
1.409695e+00	5.263324e+00	3.239262e-02
1.409734e+00	6.315878e+00	3.236570e-02
1.409753e+00	7.368470e+00	3.235623e-02
1.409762e+00	8.421082e+00	3.235300e-02
1.409784e+00	9.473511e+00	3.235416e-02
1.409784e+00	1.052649e+01	3.235418e-02
1.409762e+00	1.157892e+01	3.235235e-02
1.409754e+00	1.263153e+01	3.235572e-02
1.409735e+00	1.368412e+01	3.236442e-02
1.409697e+00	1.473668e+01	3.238899e-02
1.409620e+00	1.578915e+01	3.245538e-02
1.409474e+00	1.684132e+01	3.262731e-02
1.409136e+00	1.789247e+01	3.333567e-02
1.407242e+00	1.894178e+01	3.424967e-02
1.397810e+00	1.996067e+01	1.724669e-02
1.413374e+00	2.628244e-02	7.539419e-03
1.405627e+00	1.058313e+00	7.508196e-03
1.402649e+00	2.106552e+00	8.064706e-03
1.401973e+00	3.158305e+00	8.199018e-03
1.401792e+00	4.210745e+00	8.237256e-03
1.401711e+00	5.263288e+00	8.254048e-03
1.401682e+00	6.315864e+00	8.261004e-03
1.401674e+00	7.368464e+00	8.263779e-03
1.401672e+00	8.421078e+00	8.264919e-03
1.401698e+00	9.473516e+00	8.265390e-03
1.401697e+00	1.052648e+01	8.265204e-03
1.401671e+00	1.157893e+01	8.264858e-03
1.401674e+00	1.263154e+01	8.263835e-03
1.401681e+00	1.368414e+01	8.261198e-03
1.401707e+00	1.473672e+01	8.254700e-03
1.401782e+00	1.578926e+01	8.239107e-03
1.401947e+00	1.684171e+01	8.204858e-03
1.402527e+00	1.789352e+01	8.098859e-03
1.403816e+00	1.894232e+01	7.699377e-03
1.409688e+00	1.996839e+01	8.647897e-03
1.412295e+00	1.417887e-02	2.081854e-02
1.396419e+00	1.059813e+00	2.140727e-02
1.395353e+00	2.106489e+00	2.377869e-02
1.395763e+00	3.158247e+00	2.414498e-02
1.395929e+00	4.210665e+00	2.424487e-02
1.396006e+00	5.263225e+00	2.428650e-02
1.396043e+00	6.315825e+00	2.430463e-02
1.396061e+00	7.368441e+00	2.431289e-02
1.396069e+00	8.421063e+00	2.431698e-02
1.396092e+00	9.473522e+00	2.431657e-02
1.396092e+00	1.052648e+01	2.431639e-02
1.396069e+00	1.157894e+01	2.431701e-02
1.396061e+00	1.263156e+01	2.431306e-02
1.396044e+00	1.368418e+01	2.430507e-02
1.396009e+00	1.473678e+01	2.428776e-02
1.395935e+00	1.578934e+01	2.424829e-02
1.395781e+00	1.684178e+01	2.415583e-02
1.395418e+00	1.789365e+01	2.384701e-02
1.395682e+00	1.894340e+01	2.303131e-02
1.417282e+00	1.998093e+01	1.782057e-02
1.413702e+00	2.803943e-02	2.797687e-02
1.387631e+00	1.056805e+00	1.420290e-02
1.386552e+00	2.106033e+00	1.389327e-02
1.386361e+00	3.158126e+00	1.407917e-02
1.386322e+00	4.210620e+00	1.415525e-02
1.386307e+00	5.263204e+00	1.418611e-02
1.386304e+00	6.315814e+00	1.420171e-02
1.386305e+00	7.368435e+00	1.421049e-02
1.386305e+00	8.421059e+00	1.421577e-02
1.386330e+00	9.473519e+00	1.421106e-02
1.386330e+00	1.052648e+01	1.421092e-02
1.386305e+00	1.157894e+01	1.421567e-02
1.386305e+00	1.263157e+01	1.421074e-02
1.386303e+00	1.368419e+01	1.420215e-02
1.386306e+00	1.473680e+01	1.418693e-02
1.386319e+00	1.578938e+01	1.415708e-02
1.386352e+00	1.684188e+01	1.408441e-02
1.386516e+00	1.789398e+01	1.391391e-02
1.387087e+00	1.894381e+01	1.418195e-02
1.414237e+00	1.996920e+01	2.550323e-02
1.396594e+00	1.738029e-02	2.743440e-02
1.415175e+00	1.054609e+00	3.132401e-02
1.417882e+00	2.105660e+00	2.676570e-02
1.418209e+00	3.158015e+00	2.589843e-02
1.418309e+00	4.210576e+00	2.565855e-02
1.418349e+00	5.263183e+00	2.555605e-02
1.418371e+00	6.315803e+00	2.551194e-02
1.418386e+00	7.368428e+00	2.549232e-02
1.418394e+00	8.421055e+00	2.548251e-02
1.418418e+00	9.473517e+00	2.548754e-02
1.418417e+00	1.052648e+01	2.548775e-02
1.418393e+00	1.157894e+01	2.548207e-02
1.418386e+00	1.263157e+01	2.549174e-02
1.418372e+00	1.368420e+01	2.551067e-02
1.418350e+00	1.473682e+01	2.555263e-02
1.418312e+00	1.578942e+01	2.564947e-02
1.418220e+00	1.684199e+01	2.587070e-02
1.417940e+00	1.789437e+01	2.664479e-02
1.416585e+00	1.894560e+01	2.937442e-02
1.397648e+00	1.998099e+01	2.973157e-02
1.384304e+00	1.919562e-02	3.536633e-02
1.387961e+00	1.055116e+00	5.000104e-02
1.390447e+00	2.105730e+00	5.036507e-02
1.390984e+00	3.158034e+00	5.041200e-02
1.391154e+00	4.210584e+00	5.042847e-02
1.391229e+00	5.263186e+00	5.043377e-02
1.391265e+00	6.315805e+00	5.043747e-02
1.391284e+00	7.368430e+00	5.044028e-02
1.391292e+00	8.421056e+00	5.044237e-02
1.391317e+00	9.473515e+00	5.044472e-02
1.391317e+00	1.052648e+01	5.044455e-02
1.391292e+00	1.157894e+01	5.044214e-02
1.391284e+00	1.263157e+01	5.044035e-02
1.391266e+00	1.368420e+01	5.043756e-02
1.391231e+00	1.473681e+01	5.043380e-02
1.391159e+00	1.578942e+01	5.042846e-02
1.390998e+00	1.684197e+01	5.041268e-02
1.390512e+00	1.789430e+01	5.037801e-02
1.388944e+00	1.894553e+01	5.072918e-02
1.384068e+00	1.997918e+01	3.687317e-02
1.372101e+00	2.041916e-02	3.370691e-02
1.368303e+00	1.054787e+00	5.606194e-02
1.369626e+00	2.105682e+00	5.738236e-02
1.369956e+00	3.158022e+00	5.759962e-02
1.370067e+00	4.210579e+00	5.766565e-02
1.370117e+00	5.263184e+00	5.769297e-02
1.370142e+00	6.315804e+00	5.770668e-02
1.370154e+00	7.368429e+00	5.771422e-02
1.370160e+00	8.421056e+00	5.771855e-02
1.370186e+00	9.473501e+00	5.772101e-02
1.370186e+00	1.052650e+01	5.772116e-02
1.370160e+00	1.157894e+01	5.771847e-02
1.370155e+00	1.263157e+01	5.771356e-02
1.370142e+00	1.368420e+01	5.770545e-02
1.370118e+00	1.473682e+01	5.769047e-02
1.370069e+00	1.578942e+01	5.765979e-02
1.369964e+00	1.684198e+01	5.758220e-02
1.369658e+00	1.789434e+01	5.731177e-02
1.368466e+00	1.894572e+01	5.642014e-02
1.371394e+00	1.997921e+01	3.451974e-02
1.361548e+00	1.703397e-02	3.138587e-02
1.351235e+00	1.054596e+00	5.784010e-02
1.351828e+00	2.105651e+00	5.936905e-02
1.352072e+00	3.158013e+00	5.961692e-02
1.352154e+00	4.210576e+00	5.969573e-02
1.352191e+00	5.263182e+00	5.972937e-02
1.352209e+00	6.315803e+00	5.974614e-02
1.352218e+00	7.368428e+00	5.975523e-02
1.352223e+00	8.421056e+00	5.976026e-02
1.352248e+00	9.473508e+00	5.976278e-02
1.352248e+00	1.052649e+01	5.976318e-02
1.352223e+00	1.157894e+01	5.976020e-02
1.352220e+00	1.263157e+01	5.975390e-02
1.352211e+00	1.368420e+01	5.974372e-02
1.352196e+00	1.473682e+01	5.972452e-02
1.352165e+00	1.578943e+01	5.968433e-02
1.352107e+00	1.684199e+01	5.958250e-02
1.351977e+00	1.789437e+01	5.921552e-02
1.351922e+00	1.894581e+01	5.735769e-02
1.361050e+00	1.998217e+01	3.183613e-02
1.350335e+00	1.547149e-02	3.421348e-02
1.335681e+00	1.054464e+00	5.668726e-02
1.335861e+00	2.105630e+00	5.816175e-02
1.336077e+00	3.158007e+00	5.842527e-02
1.336140e+00	4.210573e+00	5.851136e-02
1.336168e+00	5.263181e+00	5.854803e-02
1.336181e+00	6.315802e+00	5.856619e-02
1.336187e+00	7.368428e+00	5.857597e-02
1.336190e+00	8.421056e+00	5.858146e-02
1.336216e+00	9.473518e+00	5.858404e-02
1.336215e+00	1.052648e+01	5.858438e-02
1.336190e+00	1.157894e+01	5.858137e-02
1.336190e+00	1.263157e+01	5.857475e-02
1.336185e+00	1.368420e+01	5.856400e-02
1.336176e+00	1.473682e+01	5.854371e-02
1.336161e+00	1.578943e+01	5.850121e-02
1.336141e+00	1.684200e+01	5.839481e-02
1.336149e+00	1.789438e+01	5.801656e-02
1.336977e+00	1.894592e+01	5.609506e-02
1.350396e+00	1.998496e+01	3.343706e-02
1.339954e+00	1.747600e-02	3.241258e-02
1.321733e+00	1.054355e+00	5.314217e-02
1.321651e+00	2.105611e+00	5.450964e-02
1.321803e+00	3.158001e+00	5.480478e-02
1.321838e+00	4.210571e+00	5.489782e-02
1.321853e+00	5.263180e+00	5.493630e-02
1.321860e+00	6.315802e+00	5.495504e-02
1.321864e+00	7.368428e+00	5.496500e-02
1.321865e+00	8.421055e+00	5.497087e-02
1.321892e+00	9.473529e+00	5.497301e-02
1.321891e+00	1.052647e+01	5.497296e-02
1.321865e+00	1.157894e+01	5.497071e-02
1.321866e+00	1.263157e+01	5.496462e-02
1.321864e+00	1.368420e+01	5.495437e-02
1.321860e+00	1.473682e+01	5.493511e-02
1.321854e+00	1.578943e+01	5.489534e-02
1.321855e+00	1.684200e+01	5.479835e-02
1.321909e+00	1.789439e+01	5.446856e-02
1.322846e+00	1.894597e+01	5.302190e-02
1.340053e+00	1.998323e+01	3.236161e-02
1.330964e+00	1.697810e-02	2.854978e-02
1.310332e+00	1.054382e+00	4.749740e-02
1.309628e+00	2.105600e+00	4.887593e-02
1.309410e+00	3.157998e+00	4.924603e-02
1.309367e+00	4.210570e+00	4.934718e-02
1.309356e+00	5.263180e+00	4.938701e-02
1.309352e+00	6.315801e+00	4.940586e-02
1.309349e+00	7.368428e+00	4.941569e-02
1.309346e+00	8.421055e+00	4.942177e-02
1.309369e+00	9.473513e+00	4.942475e-02
1.309370e+00	1.052649e+01	4.942435e-02
1.309345e+00	1.157894e+01	4.942172e-02
1.309346e+00	1.263157e+01	4.941662e-02
1.309345e+00	1.368420e+01	4.940766e-02
1.309343e+00	1.473682e+01	4.939076e-02
1.309341e+00	1.578943e+01	4.935637e-02
1.309340e+00	1.684200e+01	4.927519e-02
1.309375e+00	1.789440e+01	4.900320e-02
1.310086e+00	1.894595e+01	4.805872e-02
1.330884e+00	1.998374e+01	2.850312e-02
1.321745e+00	1.519356e-02	2.460104e-02
1.299633e+00	1.054391e+00	4.046013e-02
1.300113e+00	2.105600e+00	4.179605e-02
1.299246e+00	3.157997e+00	4.217327e-02
1.299067e+00	4.210569e+00	4.226160e-02
1.299010e+00	5.263179e+00	4.229530e-02
1.298985e+00	6.315801e+00	4.231097e-02
1.298972e+00	7.368427e+00	4.231902e-02
1.298962e+00	8.421055e+00	4.232383e-02
1.298983e+00	9.473514e+00	4.232661e-02
1.298983e+00	1.052649e+01	4.232637e-02
1.298954e+00	1.157894e+01	4.232374e-02
1.298952e+00	1.263157e+01	4.231942e-02
1.298951e+00	1.368420e+01	4.231191e-02
1.298948e+00	1.473682e+01	4.229769e-02
1.298944e+00	1.578943e+01	4.226848e-02
1.298934e+00	1.684201e+01	4.219914e-02
1.298971e+00	1.789441e+01	4.196519e-02
1.299922e+00	1.894592e+01	4.139245e-02
1.321627e+00	1.998483e+01	2.511841e-02
1.311628e+00	1.415675e-02	2.219136e-02
1.288707e+00	1.052718e+00	2.417043e-02
1.289263e+00	2.105518e+00	3.240359e-02
1.291196e+00	3.157987e+00	3.386417e-02
1.291526e+00	4.210566e+00	3.406488e-02
1.291640e+00	5.263178e+00	3.413269e-02
1.291690e+00	6.315800e+00	3.416239e-02
1.291715e+00	7.368427e+00	3.417718e-02
1.291725e+00	8.421055e+00	3.418468e-02
1.291776e+00	9.473514e+00	3.419649e-02
1.291785e+00	1.052649e+01	3.419894e-02
1.291748e+00	1.157894e+01	3.419162e-02
1.291755e+00	1.263157e+01	3.418979e-02
[...]
CELL_DATA 931
SCALARS Mu double 1
LOOKUP_TABLE default
-2.66312e-11
-3.10664e-11
-3.18437e-11
-3.20552e-11
-3.21323e-11
-3.21718e-11
-3.21894e-11
-3.2205e-11
-3.22268e-11
-3.22102e-11
-3.22278e-11
-3.22073e-11
-3.21913e-11
-3.21714e-11
-3.21368e-11
-3.20551e-11
-3.18426e-11
-3.10702e-11
-2.66293e-11
0.00415121
0.00443406
0.00448509
0.00449967
0.00450535
0.00450804
0.00450948
0.00451029
0.00451071
0.00451085
0.00451071
0.00451029
0.00450948
0.00450804
0.00450535
0.00449967
0.00448509
0.00443406
0.00415121
0.00559784
0.00596326
0.00603655
0.00605728
0.0060653
0.00606909
0.00607111
0.00607224
0.0060729
0.00607312
0.00607289
0.00607226
0.00607116
0.00606918
0.00606547
0.00605767
0.0060378
0.00596923
0.00564305
0.00640968
0.00693568
0.00702847
0.00705412
0.00706391
0.0070685
0.00707094
0.00707229
0.00707316
0.0070734
0.00707305
0.00707236
0.00707106
0.00706873
0.00706438
0.00705529
0.00703244
0.00695572
0.00671908
0.0069648
0.00755651
0.00765777
0.00768596
0.00769675
0.00770181
0.0077045
0.00770599
0.00770694
0.00770723
0.00770685
0.00770605
0.0077046
0.00770201
0.00769715
0.00768698
0.00766127
0.00757311
0.00733451
0.00726833
0.00788298
0.00798796
0.00801715
0.00802839
0.00803369
0.00803651
0.00803807
0.00803905
0.00803939
0.008039
0.0080381
0.00803655
0.00803377
0.00802854
0.00801754
0.00798942
0.00788835
0.007577
0.00733533
0.00794558
0.00804937
0.0080786
0.00808994
0.00809532
0.00809817
0.00809976
0.00810073
0.00810112
0.00810073
0.00809976
0.00809816
0.00809528
0.00808987
0.00807842
0.00804897
0.00794052
0.00752251
0.00717642
0.00775941
0.00786198
0.00789115
0.00790248
0.00790784
0.00791069
0.00791227
0.00791325
0.00791363
0.00791323
0.00791227
0.00791067
0.00790781
0.00790243
0.00789104
0.00786183
0.00775361
0.00731422
0.00680116
0.00734184
0.00744473
0.00747379
0.00748499
0.00749026
0.00749305
0.0074946
0.00749559
0.00749595
0.00749554
0.00749464
0.0074931
0.00749035
0.00748519
0.00747431
0.00744667
0.00734469
0.00694306
0.00622373
0.00671545
0.006818
0.00684641
0.00685723
0.0068623
0.00686497
0.00686644
0.00686742
0.00686774
0.00686733
0.00686651
0.00686508
0.00686251
0.0068577
0.00684762
0.00682229
0.0067289
0.00638513
0.00546651
0.0059058
0.00600398
0.0060307
0.00604079
0.00604548
0.00604795
0.0060493
0.00605022
0.00605051
0.00605011
0.00604939
0.00604809
0.00604576
0.00604139
0.00603228
0.00600961
0.00592591
0.00564692
0.00454778
0.00493779
0.00502658
0.00505052
0.00505952
0.00506368
0.00506586
0.00506705
0.00506788
0.00506812
0.00506775
0.00506713
0.00506598
0.00506393
0.00506008
0.00505208
0.00503231
0.00495926
0.00474823
0.00347496
0.00383336
0.00391132
0.00393196
0.00393968
0.00394323
0.00394508
0.00394609
0.00394679
0.003947
0.00394669
0.00394617
0.0039452
0.00394347
0.00394023
0.00393349
0.00391693
0.00385573
0.00371128
0.00229078
0.0026212
0.00268695
0.00270386
0.00271013
0.00271301
0.0027145
0.00271531
0.00271587
0.00271604
0.0027158
0.00271539
0.00271464
0.00271327
0.00271071
0.0027054
0.00269243
0.00264445
0.00256079
0.00105664
0.00133609
0.00138515
0.0013975
0.00140205
0.00140412
0.00140519
0.00140577
0.00140617
0.0014063
0.00140612
0.00140584
0.00140531
0.00140435
0.00140255
0.00139881
0.00138982
0.00135657
0.00132289
-0.000209143
6.43864e-06
3.77109e-05
4.5225e-05
4.79346e-05
4.91465e-05
4.97616e-05
5.00891e-05
5.03252e-05
5.03915e-05
5.02853e-05
5.01526e-05
4.9865e-05
4.93396e-05
4.83492e-05
4.63025e-05
4.16187e-05
2.43149e-05
3.41971e-05
-0.00147823
-0.00133624
-0.00132229
-0.00131959
-0.00131872
-0.00131838
-0.00131822
-0.00131815
-0.00131807
-0.00131807
-0.0013181
-0.00131809
-0.00131812
-0.00131819
-0.00131834
-0.00131862
-0.0013188
-0.00131969
-0.00126034
-0.0027229
-0.00265853
-0.00266119
-0.0026632
-0.00266413
-0.00266463
-0.00266492
-0.0026651
-0.00266518
-0.00266523
-0.00266519
-0.00266503
-0.00266481
-0.00266443
-0.00266372
-0.00266221
-0.00265782
-0.00264222
-0.00252414
-0.0039124
-0.00392742
-0.00394586
-0.00395235
-0.00395502
-0.00395634
-0.00395707
-0.00395749
-0.00395773
-0.00395783
-0.00395772
-0.0039574
-0.00395693
-0.0039561
-0.00395456
-0.00395128
-0.00394238
-0.0039105
-0.00373133
-0.00501246
-0.00511084
-0.0051444
-0.00515517
-0.0051595
-0.00516161
-0.00516276
-0.00516341
-0.00516379
-0.00516396
-0.00516378
-0.00516331
-0.0051626
-0.00516134
-0.005159
-0.00515403
-0.00514076
-0.00509319
-0.00485636
-0.00599743
-0.00617912
-0.00622714
-0.00624195
-0.00624786
-0.00625073
-0.00625228
-0.00625316
-0.00625368
-0.0062539
-0.00625367
-0.00625306
-0.00625214
-0.00625048
-0.00624739
-0.00624084
-0.00622349
-0.00616118
-0.00587251
-0.00684815
-0.00710615
-0.00716781
-0.00718629
-0.00719359
-0.00719711
-0.007199
-0.00720007
-0.0072007
-0.00720097
-0.00720069
-0.00719995
-0.00719882
-0.00719681
-0.00719304
-0.00718506
-0.00716403
-0.00708828
-0.00675498
-0.00754625
-0.00786968
-0.00794355
-0.00796506
-0.00797352
-0.00797758
-0.00797977
-0.00798099
-0.00798172
-0.00798204
-0.0079817
-0.00798085
-0.00797955
-0.00797723
-0.00797288
-0.00796367
-0.00793946
-0.00785187
-0.00748208
-0.00807533
-0.0084516
-0.00853532
-0.00855931
-0.00856871
-0.00857322
-0.00857565
-0.008577
-0.00857781
-0.00857816
-0.00857778
-0.00857685
-0.0085754
-0.00857283
-0.008568
-0.00855777
-0.00853098
-0.00843343
-0.00803566
-0.00842295
-0.00883826
-0.00892879
-0.00895469
-0.00896483
-0.00896968
-0.00897229
-0.00897375
-0.00897462
-0.00897499
-0.00897458
-0.00897358
-0.00897202
-0.00896926
-0.00896407
-0.00895308
-0.00892435
-0.008819
-0.00840153
-0.00858194
-0.0090205
-0.00911455
-0.00914177
-0.00915241
-0.0091575
-0.00916024
-0.00916177
-0.00916267
-0.00916306
-0.00916263
-0.00916158
-0.00915995
-0.00915706
-0.00915164
-0.00914015
-0.00911018
-0.00899937
-0.00857001
-0.00855017
-0.00899359
-0.00908844
-0.00911622
-0.00912707
-0.00913227
-0.00913505
-0.00913661
-0.00913753
-0.00913793
-0.00913747
-0.00913641
-0.00913475
-0.00913181
-0.00912628
-0.00911457
-0.00908405
-0.00897033
-0.00853641
-0.00832804
-0.0087578
-0.00885102
-0.00887865
-0.00888943
-0.00889459
-0.00889735
-0.00889889
-0.00889981
-0.0089002
-0.00889973
-0.00889868
-0.00889701
-0.00889409
-0.00888859
-0.00887694
-0.0088466
-0.00873265
-0.0083014
-0.00791337
-0.00831811
-0.00840773
-0.00843456
-0.00844501
-0.00844999
-0.00845266
-0.00845415
-0.00845504
-0.00845541
-0.00845494
-0.00845393
-0.00845231
-0.00844947
-0.00844414
-0.00843284
-0.00840343
-0.00829202
-0.00787076
-0.0073058
-0.00768353
-0.00776858
-0.00779417
-0.0078041
-0.00780881
-0.00781132
-0.00781271
-0.00781357
-0.0078139
-0.00781344
-0.0078125
-0.00781098
-0.00780829
-0.00780327
-0.00779262
-0.00776491
-0.00765902
-0.00726026
-0.0065271
-0.00686922
-0.00694837
-0.00697229
-0.00698151
-0.00698586
-0.00698817
-0.00698945
-0.00699026
-0.00699055
-0.00699011
-0.00698926
-0.00698788
-0.00698542
-0.00698084
-0.00697113
-0.00694588
-0.00684858
-0.00648654
-0.00559281
-0.0058951
-0.00596642
-0.00598805
-0.00599634
-0.00600023
-0.00600229
-0.00600342
-0.00600415
-0.00600441
-0.006004
-0.00600326
-0.00600204
-0.00599987
-0.00599583
-0.00598729
-0.00596509
-0.00587837
-0.00556886
-0.00451399
-0.00478328
-0.00484533
-0.00486424
-0.00487142
-0.00487476
-0.00487651
-0.00487748
-0.00487811
-0.00487832
-0.00487795
-0.00487732
-0.00487629
-0.00487445
-0.00487105
-0.00486385
-0.00484524
-0.00477022
-0.0045218
-0.00332803
-0.00355956
-0.0036111
-0.00362692
-0.00363288
-0.00363562
-0.00363705
-0.00363782
-0.00363835
-0.0036385
-0.00363817
-0.00363768
-0.00363686
-0.0036354
-0.00363269
-0.00362701
-0.00361253
-0.00355134
-0.00336813
-0.00207076
-0.00225238
-0.00229269
-0.00230512
-0.00230972
-0.0023118
-0.00231287
-0.00231344
-0.00231385
-0.00231395
-0.00231369
-0.00231335
-0.00231276
-0.00231172
-0.0023098
-0.0023058
-0.00229553
-0.00224973
-0.00213592
-0.000776699
-0.000894077
-0.000921544
-0.000930079
-0.000933128
-0.000934471
-0.000935143
-0.000935488
-0.000935764
-0.000935816
-0.000935625
-0.000935443
-0.000935106
-0.000934522
-0.000933433
-0.000931194
-0.000925232
-0.000895797
-0.000854141
0.00052738
0.00048213
0.000469568
0.000465596
0.000464304
0.000463782
0.000463543
0.000463435
0.000463306
0.000463302
0.00046341
0.000463432
0.000463503
0.000463627
0.000463865
0.000464347
0.000465953
0.00047865
0.000447458
0.00181451
0.00184267
0.00184762
0.00184851
0.00184913
0.00184953
0.00184979
0.00184997
0.00185003
0.0018501
0.00185014
0.00185002
0.00184984
0.00184952
0.00184893
0.0018477
0.00184496
0.00184104
0.00173881
0.00305583
0.00315603
0.00317975
0.00318589
0.00318855
0.00318992
0.0031907
0.00319116
0.00319141
0.00319154
0.0031915
0.00319124
0.00319083
0.00319007
0.00318868
0.00318581
0.00317889
0.00315904
0.00298868
0.00422191
0.00439191
0.00443444
0.004446
0.00445066
0.00445294
0.0044542
0.00445492
0.00445533
0.00445551
0.00445539
0.00445498
0.00445433
0.00445315
0.00445098
0.00444652
0.00443558
0.00440058
0.00416704
0.00528459
0.00552203
0.00558198
0.00559866
0.00560517
0.0056083
0.00560998
0.00561094
0.00561151
0.00561173
0.00561154
0.00561099
0.00561012
0.00560855
0.00560567
0.00559975
0.00558515
0.00553646
0.00524716
0.00621739
0.00652159
0.00659499
0.00661625
0.00662446
0.00662836
0.00663044
0.00663161
0.00663231
0.00663258
0.00663231
0.00663164
0.00663056
0.00662863
0.00662508
0.00661778
0.00659981
0.00653886
0.00620287
0.00699912
0.00736574
0.00744945
0.0074746
0.00748428
0.00748885
0.00749128
0.00749263
0.00749346
0.00749376
0.00749343
0.00749265
0.00749139
0.00748912
0.00748498
0.00747642
0.00745544
0.00738385
0.00701112
0.00761275
0.00803209
0.00812521
0.00815344
0.00816429
0.00816942
0.00817214
0.00817366
0.0081746
0.00817493
0.00817455
0.00817368
0.00817225
0.0081697
0.00816503
0.00815538
0.00813179
0.00805111
0.00765184
0.00804608
0.00850495
0.0086054
0.00863651
0.00864847
0.00865412
0.00865711
0.00865878
0.00865981
0.00866018
0.00865976
0.00865882
0.00865726
0.00865449
0.00864939
0.00863885
0.00861311
0.00852502
0.0081093
0.0082904
0.00877521
0.00888004
0.00891328
0.00892611
0.00893208
0.00893521
0.00893695
0.00893803
0.00893841
0.00893795
0.00893697
0.00893532
0.00893237
0.00892694
0.00891573
0.00888839
0.00879475
0.00837075
0.00833933
0.00883425
0.00894278
0.00897763
0.00899079
0.00899689
0.00900009
0.00900186
0.00900297
0.00900336
0.00900288
0.00900187
0.00900016
0.0089971
0.00899146
0.00897983
0.00895146
0.00885402
0.00842886
0.00819183
0.00868544
0.00879284
0.00882769
0.00884106
0.00884726
0.00885054
0.00885234
0.00885348
0.0088539
0.00885342
0.00885242
0.0088507
0.00884761
0.0088419
0.00883014
0.00880142
0.00870239
0.00828204

