# vtk DataFile Version 2.0
OUTPUT by 3D-VPM
ASCII
DATASET UNSTRUCTURED_GRID
POINTS 1260 double
6.104467e+01	1.113289e+00	-2.637342e+00
6.187166e+01	1.424199e+00	-1.667794e+00
6.147593e+01	2.533451e+00	-2.389592e+00
6.120345e+01	3.536816e+00	-1.933004e+00
6.144909e+01	4.462466e+00	-1.491623e+00
6.149786e+01	5.468188e+00	-1.477915e+00
6.142396e+01	6.458577e+00	-1.405093e+00
6.141600e+01	7.458007e+00	-1.320326e+00
6.141272e+01	8.470723e+00	-1.288081e+00
6.140621e+01	9.489521e+00	-1.272669e+00
6.140622e+01	1.051047e+01	-1.272675e+00
6.141273e+01	1.152926e+01	-1.288096e+00
6.141603e+01	1.254195e+01	-1.320333e+00
6.142401e+01	1.354134e+01	-1.405050e+00
6.149793e+01	1.453168e+01	-1.477791e+00
6.144935e+01	1.553738e+01	-1.491343e+00
6.120377e+01	1.646338e+01	-1.932783e+00
6.147980e+01	1.746619e+01	-2.390125e+00
6.188226e+01	1.858212e+01	-1.645194e+00
6.098573e+01	1.886943e+01	-2.692120e+00
6.039454e+01	1.205899e+00	-2.443660e+00
6.163337e+01	5.718558e-01	-9.277936e-01
6.086006e+01	2.197012e+00	-1.449249e+00
6.113595e+01	3.090559e+00	-5.868122e-01
6.136335e+01	4.208376e+00	-2.451838e-01
6.124725e+01	5.276373e+00	-1.855255e-01
6.120744e+01	6.309168e+00	-7.374789e-02
6.118567e+01	7.364520e+00	-4.704523e-03
6.116720e+01	8.419092e+00	3.015363e-02
6.115864e+01	9.472792e+00	4.737415e-02
6.115863e+01	1.052717e+01	4.736884e-02
6.116717e+01	1.158087e+01	3.014084e-02
6.118563e+01	1.263543e+01	-4.708539e-03
6.120738e+01	1.369076e+01	-7.373194e-02
6.124721e+01	1.472354e+01	-1.854662e-01
6.136341e+01	1.579154e+01	-2.451237e-01
6.113612e+01	1.690966e+01	-5.868334e-01
6.086014e+01	1.780317e+01	-1.456128e+00
6.163576e+01	1.942902e+01	-9.232013e-01
6.040939e+01	1.875058e+01	-2.431175e+00
5.968163e+01	4.398133e-01	-1.966208e+00
5.973133e+01	9.928404e-01	-9.932984e-01
6.138582e+01	8.676657e-01	-3.378798e+00
6.209737e+01	2.972590e+00	-2.902834e+00
6.226831e+01	4.031929e+00	-2.515881e+00
6.237240e+01	5.183070e+00	-2.356654e+00
6.240905e+01	6.286432e+00	-2.158805e+00
6.242433e+01	7.349923e+00	-2.033657e+00
6.243156e+01	8.411704e+00	-1.962741e+00
6.243360e+01	9.470882e+00	-1.928271e+00
6.243361e+01	1.052901e+01	-1.928297e+00
6.243157e+01	1.158817e+01	-1.962831e+00
6.242433e+01	1.264990e+01	-2.033841e+00
6.240900e+01	1.371329e+01	-2.159156e+00
6.237229e+01	1.481639e+01	-2.357272e+00
6.226833e+01	1.596693e+01	-2.516856e+00
6.209788e+01	1.702574e+01	-2.903625e+00
6.138657e+01	1.913061e+01	-3.372334e+00
5.972745e+01	1.899510e+01	-1.005435e+00
5.969028e+01	1.956687e+01	-1.963407e+00
5.848061e+01	3.916417e-01	-2.056171e+00
5.901140e+01	8.623655e-01	-8.186101e-01
5.952752e+01	2.486453e-01	-3.589239e+00
5.973184e+01	2.623596e+00	-4.018853e+00
5.996767e+01	4.055229e+00	-3.825754e+00
6.009808e+01	5.214497e+00	-3.650745e+00
6.016921e+01	6.304505e+00	-3.524676e+00
6.021143e+01	7.369361e+00	-3.438096e+00
6.023486e+01	8.423812e+00	-3.385068e+00
6.024535e+01	9.474759e+00	-3.360103e+00
6.024537e+01	1.052508e+01	-3.360156e+00
6.023493e+01	1.157601e+01	-3.385237e+00
6.021156e+01	1.263042e+01	-3.438414e+00
6.016939e+01	1.369518e+01	-3.525200e+00
6.009849e+01	1.478503e+01	-3.651635e+00
5.996861e+01	1.594398e+01	-3.826737e+00
5.973390e+01	1.737435e+01	-4.018850e+00
5.953070e+01	1.974327e+01	-3.593990e+00
5.901636e+01	1.914142e+01	-8.103667e-01
5.848841e+01	1.960956e+01	-2.051747e+00
5.760008e+01	3.452977e-01	-1.710381e+00
5.808986e+01	4.751374e-01	-3.808570e-01
5.823722e+01	-8.113379e-02	-3.426952e+00
5.827290e+01	2.412203e+00	-4.066832e+00
5.840255e+01	3.944712e+00	-3.917974e+00
5.849645e+01	5.164240e+00	-3.749944e+00
5.855428e+01	6.279121e+00	-3.622451e+00
5.858866e+01	7.355835e+00	-3.535017e+00
5.860798e+01	8.417348e+00	-3.481162e+00
5.861673e+01	9.472838e+00	-3.455670e+00
5.861675e+01	1.052694e+01	-3.455748e+00
5.860803e+01	1.158240e+01	-3.481419e+00
5.858878e+01	1.264384e+01	-3.535505e+00
5.855446e+01	1.372041e+01	-3.623249e+00
5.849691e+01	1.483505e+01	-3.751300e+00
5.840357e+01	1.605399e+01	-3.919383e+00
5.827463e+01	1.758392e+01	-4.066651e+00
5.823877e+01	2.006965e+01	-3.436754e+00
5.809242e+01	1.953184e+01	-3.727074e-01
5.760688e+01	1.965829e+01	-1.701045e+00
5.673294e+01	1.327644e-01	-1.508128e+00
5.705039e+01	5.737382e-01	-3.273300e-01
5.712383e+01	-2.162617e-01	-3.306453e+00
5.708951e+01	2.290558e+00	-3.991350e+00
5.716441e+01	3.869855e+00	-3.849104e+00
5.722938e+01	5.121031e+00	-3.676220e+00
5.727412e+01	6.254671e+00	-3.543083e+00
5.730244e+01	7.342188e+00	-3.451282e+00
5.731890e+01	8.410442e+00	-3.394607e+00
5.732650e+01	9.470719e+00	-3.367734e+00
5.732651e+01	1.052901e+01	-3.367821e+00
5.731893e+01	1.158925e+01	-3.394891e+00
5.730250e+01	1.265741e+01	-3.451811e+00
5.727421e+01	1.374474e+01	-3.543907e+00
5.722965e+01	1.487806e+01	-3.677553e+00
5.716509e+01	1.612845e+01	-3.850134e+00
5.709052e+01	1.770426e+01	-3.989987e+00
5.712384e+01	2.020308e+01	-3.316687e+00
5.705254e+01	1.942734e+01	-3.211993e-01
5.674076e+01	1.987263e+01	-1.498651e+00
5.580273e+01	1.749826e-01	-1.519879e+00
5.611277e+01	6.449295e-01	-2.503731e-01
5.604739e+01	-2.967280e-01	-3.160630e+00
5.601319e+01	2.221231e+00	-3.884620e+00
5.605876e+01	3.821865e+00	-3.740766e+00
5.610398e+01	5.089517e+00	-3.561508e+00
5.613789e+01	6.234790e+00	-3.422857e+00
5.616069e+01	7.330260e+00	-3.327029e+00
5.617448e+01	8.404117e+00	-3.267811e+00
5.618100e+01	9.468733e+00	-3.239706e+00
5.618100e+01	1.053097e+01	-3.239792e+00
5.617449e+01	1.159554e+01	-3.268082e+00
5.616070e+01	1.266929e+01	-3.327512e+00
5.613791e+01	1.376456e+01	-3.423585e+00
5.610412e+01	1.490949e+01	-3.562580e+00
5.605917e+01	1.617624e+01	-3.741038e+00
5.601381e+01	1.777281e+01	-3.881746e+00
5.604716e+01	2.028259e+01	-3.170298e+00
5.611627e+01	1.935799e+01	-2.418083e-01
5.580892e+01	1.982823e+01	-1.511158e+00
5.488473e+01	2.663550e-01	-1.403153e+00
5.514619e+01	6.570532e-01	-1.278652e-01
5.502062e+01	-3.367110e-01	-3.007159e+00
5.498403e+01	2.181460e+00	-3.774237e+00
5.501300e+01	3.792292e+00	-3.627014e+00
5.504485e+01	5.067952e+00	-3.442143e+00
5.507031e+01	6.219845e+00	-3.299007e+00
5.508828e+01	7.320638e+00	-3.199978e+00
5.509953e+01	8.398774e+00	-3.138714e+00
5.510497e+01	9.467020e+00	-3.109613e+00
5.510497e+01	1.053267e+01	-3.109688e+00
5.509953e+01	1.160087e+01	-3.138943e+00
5.508827e+01	1.267890e+01	-3.200365e+00
5.507030e+01	1.377950e+01	-3.299628e+00
5.504492e+01	1.493103e+01	-3.442918e+00
5.501330e+01	1.620570e+01	-3.626468e+00
5.498456e+01	1.781205e+01	-3.769962e+00
5.502059e+01	2.032199e+01	-3.016640e+00
5.514858e+01	1.934751e+01	-1.171682e-01
5.488955e+01	1.973581e+01	-1.391113e+00
5.395917e+01	2.792101e-01	-1.309852e+00
5.415736e+01	6.666778e-01	-4.799830e-02
5.402061e+01	-3.426621e-01	-2.889461e+00
5.397752e+01	2.162158e+00	-3.670291e+00
5.399542e+01	3.775740e+00	-3.519012e+00
5.401797e+01	5.054291e+00	-3.329787e+00
5.403699e+01	6.209419e+00	-3.183413e+00
5.405095e+01	7.313452e+00	-3.082024e+00
5.405993e+01	8.394604e+00	-3.019213e+00
5.406435e+01	9.465656e+00	-2.989347e+00
5.406435e+01	1.053403e+01	-2.989400e+00
5.405992e+01	1.160504e+01	-3.019365e+00
5.405092e+01	1.268610e+01	-3.082275e+00
5.403696e+01	1.378993e+01	-3.183800e+00
5.401802e+01	1.494471e+01	-3.330173e+00
5.399570e+01	1.622221e+01	-3.517738e+00
5.397810e+01	1.783096e+01	-3.664864e+00
5.402073e+01	2.032742e+01	-2.898619e+00
5.415876e+01	1.933851e+01	-3.650307e-02
5.396272e+01	1.972397e+01	-1.296684e+00
5.302272e+01	3.142369e-01	-1.268340e+00
5.317071e+01	6.602464e-01	1.701920e-02
5.302552e+01	-3.275481e-01	-2.801211e+00
5.298096e+01	2.158311e+00	-3.575951e+00
5.299118e+01	3.768703e+00	-3.419939e+00
5.300713e+01	5.046702e+00	-3.227551e+00
5.302135e+01	6.202757e+00	-3.079184e+00
5.303208e+01	7.308504e+00	-2.976248e+00
5.303909e+01	8.391609e+00	-2.912208e+00
5.304262e+01	9.464656e+00	-2.881738e+00
5.304262e+01	1.053504e+01	-2.881743e+00
5.303908e+01	1.160806e+01	-2.912151e+00
5.303199e+01	1.269105e+01	-2.975969e+00
5.302125e+01	1.379656e+01	-3.078914e+00
5.300714e+01	1.495225e+01	-3.227008e+00
5.299145e+01	1.622914e+01	-3.417620e+00
5.298161e+01	1.783452e+01	-3.569569e+00
5.302580e+01	2.031188e+01	-2.809808e+00
5.317150e+01	1.934599e+01	2.944117e-02
5.302501e+01	1.968799e+01	-1.255177e+00
5.207838e+01	3.507235e-01	-1.223046e+00
5.218059e+01	6.352119e-01	7.644677e-02
5.203282e+01	-2.980263e-01	-2.734667e+00
5.198798e+01	2.165574e+00	-3.490849e+00
5.199302e+01	3.768594e+00	-3.329802e+00
5.200427e+01	5.043731e+00	-3.135097e+00
5.201480e+01	6.199299e+00	-2.983610e+00
5.202301e+01	7.305520e+00	-2.879760e+00
5.202856e+01	8.389623e+00	-2.816945e+00
5.203134e+01	9.463979e+00	-2.786235e+00
5.203134e+01	1.053573e+01	-2.786173e+00
5.202854e+01	1.161004e+01	-2.816772e+00
5.202303e+01	1.269410e+01	-2.881232e+00
5.201480e+01	1.380014e+01	-2.984910e+00
5.200431e+01	1.495519e+01	-3.134000e+00
5.199332e+01	1.622917e+01	-3.326757e+00
5.198870e+01	1.782703e+01	-3.483668e+00
5.203326e+01	2.028201e+01	-2.742590e+00
5.218070e+01	1.937218e+01	8.957278e-02
5.208001e+01	1.965099e+01	-1.209202e+00
5.112150e+01	3.753649e-01	-1.181883e+00
5.118710e+01	5.969735e-01	1.270116e-01
5.104056e+01	-2.581173e-01	-2.686490e+00
5.099588e+01	2.180734e+00	-3.413570e+00
5.099740e+01	3.773453e+00	-3.247466e+00
5.100533e+01	5.044208e+00	-3.051269e+00
5.101324e+01	6.198182e+00	-2.898663e+00
5.101956e+01	7.304009e+00	-2.794208e+00
5.102386e+01	8.388486e+00	-2.731672e+00
5.102603e+01	9.463582e+00	-2.701093e+00
5.102603e+01	1.053613e+01	-2.701003e+00
5.102383e+01	1.161114e+01	-2.731660e+00
5.101955e+01	1.269561e+01	-2.796703e+00
5.101325e+01	1.380137e+01	-2.900807e+00
5.100542e+01	1.495477e+01	-3.050285e+00
5.099775e+01	1.622432e+01	-3.244217e+00
5.099665e+01	1.781172e+01	-3.405777e+00
5.104113e+01	2.024181e+01	-2.693681e+00
5.118663e+01	1.941149e+01	1.404629e-01
5.112250e+01	1.962658e+01	-1.167593e+00
5.015394e+01	3.967168e-01	-1.146944e+00
5.019198e+01	5.484222e-01	1.694549e-01
5.004739e+01	-2.105656e-01	-2.652084e+00
5.000348e+01	2.201508e+00	-3.342654e+00
5.000265e+01	3.781796e+00	-3.171680e+00
5.000823e+01	5.047128e+00	-2.974679e+00
5.001426e+01	6.198616e+00	-2.823757e+00
[...]
CELL_DATA 1178
SCALARS Mu double 1
LOOKUP_TABLE default
-0.388429
-0.434839
-0.445113
-0.448285
-0.449531
-0.450112
-0.450415
-0.45058
-0.450664
-0.450691
-0.450664
-0.45058
-0.450415
-0.450112
-0.449531
-0.448285
-0.445113
-0.434839
-0.388429
-0.510131
-0.594683
-0.616974
-0.624665
-0.627855
-0.629376
-0.630171
-0.630603
-0.630824
-0.630893
-0.630827
-0.630608
-0.630178
-0.629383
-0.627864
-0.624669
-0.616953
-0.594531
-0.509768
-0.565402
-0.676259
-0.708906
-0.721304
-0.726769
-0.729481
-0.73093
-0.731726
-0.732133
-0.732261
-0.732142
-0.731746
-0.730963
-0.729527
-0.726831
-0.721339
-0.708845
-0.676044
-0.567553
-0.5965
-0.724128
-0.764294
-0.780705
-0.788374
-0.792329
-0.794491
-0.79569
-0.796305
-0.796497
-0.796315
-0.795713
-0.794527
-0.792381
-0.788441
-0.780711
-0.764093
-0.72369
-0.599882
-0.616157
-0.754595
-0.800147
-0.819703
-0.829262
-0.834366
-0.837218
-0.838823
-0.839649
-0.839907
-0.839656
-0.838838
-0.837242
-0.834395
-0.829287
-0.81961
-0.799729
-0.753863
-0.620006
-0.629462
-0.77515
-0.824573
-0.846525
-0.857613
-0.863703
-0.867176
-0.869157
-0.870184
-0.870502
-0.870184
-0.869157
-0.867173
-0.863686
-0.85756
-0.846289
-0.823906
-0.774108
-0.633433
-0.63891
-0.789621
-0.841854
-0.865629
-0.87793
-0.884838
-0.888843
-0.891155
-0.892362
-0.892735
-0.892353
-0.891135
-0.888804
-0.884767
-0.877784
-0.865235
-0.840944
-0.78829
-0.642855
-0.645861
-0.800146
-0.854446
-0.879611
-0.892871
-0.900442
-0.904899
-0.907495
-0.908859
-0.909278
-0.908838
-0.907451
-0.904819
-0.900312
-0.892624
-0.879062
-0.853314
-0.798557
-0.649722
-0.651118
-0.808004
-0.863847
-0.890074
-0.904089
-0.912208
-0.917035
-0.91987
-0.921366
-0.921824
-0.921333
-0.919799
-0.916913
-0.912002
-0.903739
-0.889378
-0.86252
-0.80619
-0.654877
-0.655184
-0.813999
-0.871014
-0.898055
-0.91267
-0.921219
-0.926358
-0.929393
-0.931
-0.93149
-0.930954
-0.929291
-0.926181
-0.920941
-0.912171
-0.897221
-0.869514
-0.811993
-0.658841
-0.658388
-0.818659
-0.87657
-0.904239
-0.919324
-0.928202
-0.933353
-0.936781
-0.938511
-0.939032
-0.938454
-0.936687
-0.933422
-0.927882
-0.918774
-0.903285
-0.874921
-0.816489
-0.661948
-0.660949
-0.822338
-0.88094
-0.909098
-0.924554
-0.933726
-0.939242
-0.942613
-0.944431
-0.944972
-0.944365
-0.94251
-0.939127
-0.933362
-0.923934
-0.908042
-0.879166
-0.820031
-0.664423
-0.663021
-0.825283
-0.884419
-0.91296
-0.928706
-0.938104
-0.943837
-0.947298
-0.94915
-0.949712
-0.94908
-0.947156
-0.943615
-0.937678
-0.92802
-0.911817
-0.882541
-0.82286
-0.666419
-0.664715
-0.827667
-0.887216
-0.916056
-0.932031
-0.941591
-0.947475
-0.951026
-0.95292
-0.953498
-0.952849
-0.950851
-0.947181
-0.941111
-0.931284
-0.91484
-0.885252
-0.825147
-0.668047
-0.666097
-0.829594
-0.889464
-0.918544
-0.934709
-0.944423
-0.950403
-0.954048
-0.955985
-0.956559
-0.955888
-0.953846
-0.950085
-0.943903
-0.933924
-0.917287
-0.887452
-0.827017
-0.669388
-0.667253
-0.831199
-0.891318
-0.920587
-0.936901
-0.946741
-0.952803
-0.956494
-0.958367
-0.959029
-0.958341
-0.955882
-0.952377
-0.946158
-0.93607
-0.919281
-0.889251
-0.828559
-0.670503
-0.668225
-0.832528
-0.892849
-0.922268
-0.938724
-0.948632
-0.95476
-0.958469
-0.960483
-0.961076
-0.960326
-0.958144
-0.954299
-0.947591
-0.937793
-0.920911
-0.890737
-0.829835
-0.671435
-0.669047
-0.833641
-0.894119
-0.923653
-0.940183
-0.950182
-0.956367
-0.960143
-0.962458
-0.963208
-0.962042
-0.959854
-0.955938
-0.949468
-0.93926
-0.922276
-0.89198
-0.830914
-0.672233
-0.669767
-0.834672
-0.895229
-0.924909
-0.941505
-0.951463
-0.957689
-0.96148
-0.963593
-0.96431
-0.963546
-0.961351
-0.957315
-0.950829
-0.940496
-0.923416
-0.893019
-0.831825
-0.672916
-0.670312
-0.835344
-0.896019
-0.925722
-0.942395
-0.952498
-0.958791
-0.962623
-0.964705
-0.965348
-0.964681
-0.962445
-0.958452
-0.951955
-0.941544
-0.924384
-0.893894
-0.832588
-0.673485
-0.670778
-0.835965
-0.896752
-0.926487
-0.943239
-0.953408
-0.959746
-0.963602
-0.965689
-0.966309
-0.965575
-0.963436
-0.959372
-0.952866
-0.942406
-0.9252
-0.894666
-0.833238
-0.673966
-0.671201
-0.836527
-0.897403
-0.927221
-0.943991
-0.954198
-0.960565
-0.964442
-0.966536
-0.96716
-0.966427
-0.964225
-0.960186
-0.953631
-0.94313
-0.925872
-0.895265
-0.833767
-0.674364
-0.671574
-0.837024
-0.897976
-0.927847
-0.944655
-0.954893
-0.961277
-0.965168
-0.967284
-0.96792
-0.96719
-0.964957
-0.96089
-0.954257
-0.943745
-0.926479
-0.895817
-0.834246
-0.674719
-0.671901
-0.837465
-0.898476
-0.928371
-0.945229
-0.955506
-0.961918
-0.965836
-0.967943
-0.9686
-0.967847
-0.965649
-0.961531
-0.954898
-0.944353
-0.927025
-0.896261
-0.834667
-0.67503
-0.672181
-0.837848
-0.89886
-0.928876
-0.945762
-0.956053
-0.96248
-0.966416
-0.968528
-0.96916
-0.968423
-0.96618
-0.96197
-0.955345
-0.944872
-0.92751
-0.896732
-0.835035
-0.675302
-0.672432
-0.838191
-0.899304
-0.929302
-0.946225
-0.956537
-0.962983
-0.966931
-0.969046
-0.969698
-0.968958
-0.966693
-0.962563
-0.955913
-0.945337
-0.927944
-0.897097
-0.835372
-0.675543
-0.67265
-0.838473
-0.899433
-0.929681
-0.946642
-0.956974
-0.963416
-0.967382
-0.969528
-0.970182
-0.969434
-0.967162
-0.963034
-0.95637
-0.945756
-0.928334
-0.897476
-0.835673
-0.675758
-0.672843
-0.838734
-0.899801
-0.930017
-0.94701
-0.957366
-0.963823
-0.96782
-0.969982
-0.970669
-0.969866
-0.967549
-0.963444
-0.956781
-0.946143
-0.928686
-0.89776
-0.835933
-0.675947
-0.673019
-0.838981
-0.900132
-0.930327
-0.947327
-0.957681
-0.964209
-0.968202
-0.970361
-0.971052
-0.970207
-0.967921
-0.963822
-0.957088
-0.946483
-0.928995
-0.898061
-0.836171
-0.676117
-0.673184
-0.839214
-0.900475
-0.930633
-0.947652
-0.958038
-0.964544
-0.968532
-0.9707
-0.971412
-0.970585
-0.968296
-0.964105
-0.957431
-0.946776
-0.929278
-0.898315
-0.836391
-0.676271
-0.673336
-0.839438
-0.900733
-0.930907
-0.947952
-0.958539
-0.96489
-0.96909
-0.971099
-0.971747
-0.971032
-0.968664
-0.964525
-0.957764
-0.947021
-0.929528
-0.898543
-0.836589
-0.676412
-0.673093
-0.832934
-0.900547
-0.931022
-0.948003
-0.95862
-0.965148
-0.969415
-0.971412
-0.972045
-0.971313
-0.969027
-0.965407
-0.958068
-0.947317
-0.929762
-0.898751
-0.83677
-0.676538
-0.673109
-0.838233
-0.900522
-0.931105
-0.948293
-0.958806
-0.965382
-0.969683
-0.971677
-0.972301
-0.971567
-0.969306
-0.965783
-0.95836
-0.947568
-0.929975
-0.898935
-0.83693
-0.676652
-0.673397
-0.839334
-0.900867
-0.931315
-0.948502
-0.959012
-0.965615
-0.970051
-0.972024
-0.97254
-0.971793
-0.969506
-0.96541
-0.958569
-0.947775
-0.930156
-0.899072
-0.83707
-0.676757
-0.673604
-0.839754
-0.901216
-0.931532
-0.948696
-0.959212
-0.965862
-0.970156
-0.972154
-0.972747
-0.971998
-0.969691
-0.965496
-0.958798
-0.947957
-0.930312
-0.899211
-0.837196
-0.676852
-0.673756
-0.839992
-0.901407
-0.931681
-0.948861
-0.959426
-0.966021
-0.970411
-0.972329
-0.972929
-0.972154
-0.969843
-0.965629
-0.958887
-0.948089
-0.930449
-0.899337
-0.83731
-0.676936
-0.673875
-0.840163
-0.901591
-0.931873
-0.949026
-0.959545
-0.966179
-0.970492
-0.972491
-0.973094
-0.972311
-0.970005
-0.965796
-0.959061
-0.948218
-0.930574
-0.899452
-0.83741
-0.677013
-0.673972
-0.840299
-0.90173
-0.932019
-0.949157
-0.959648
-0.966291
-0.970629
-0.972706
-0.973241
-0.972472
-0.970159
-0.965913
-0.959131
-0.948335
-0.93073
-0.899558
-0.837505
-0.677083
-0.674055
-0.840414
-0.901851
-0.932148
-0.949367
-0.959803
-0.966422
-0.970753
-0.972774
-0.973387
-0.972691
-0.970305
-0.966032
-0.95925
-0.948466
-0.930802
-0.899682
-0.837596
-0.677151
-0.67413
-0.840515
-0.901958
-0.932259
-0.94945
-0.959925
-0.966547
-0.97095
-0.972724
-0.973462
-0.972732
-0.970365
-0.96615
-0.959404
-0.948576
-0.930894
-0.899772
-0.837678
-0.677212
-0.674198
-0.840603
-0.90205
-0.932345
-0.94942
-0.960026
-0.966664
-0.970992
-0.972961
-0.973695
-0.972848
-0.970146
-0.966318
-0.959473
-0.948614
-0.930956
-0.899821
-0.837742
-0.677265
-0.674258
-0.84068
-0.902131
-0.932425
-0.949485
-0.960115
-0.966749
-0.971085
-0.973081
-0.973718
-0.972906
-0.970484
-0.966326
-0.959536
-0.948734
-0.93109
-0.899936
-0.83783
-0.677332
-0.67431
-0.84075
-0.902206
-0.932504
-0.949582
-0.96021
-0.967018
-0.971233
-0.973196
-0.973804
-0.973005
-0.970645
-0.966413
-0.959631
-0.948933
-0.93116
-0.900019
-0.837902
-0.677385
-0.674361
-0.840818
-0.902278
-0.932589
-0.949749
-0.960329
-0.966975
-0.971287
-0.973286
-0.973891
-0.973088
-0.970748
-0.966503
-0.959712
-0.948919
-0.931231
-0.90009
-0.837968
-0.677434
-0.674408
-0.84088
-0.902346
-0.932665
-0.949841
-0.960414
-0.967024
-0.97135
-0.973367
-0.974031
-0.97314
-0.970837
-0.966663
-0.959791
-0.948975
-0.931295
-0.900155
-0.838031
-0.67748
-0.67445
-0.840931
-0.902395
-0.932701
-0.949911
-0.960555
-0.967096
-0.971419
-0.973434
-0.974045
-0.973248
-0.970958
-0.966758
-0.959867
-0.949038
-0.931354
-0.900214
-0.838086
-0.677522
-0.674494
-0.840983
-0.902448
-0.932754
-0.949967
-0.960535
-0.967169
-0.971481
-0.973485
-0.974101
-0.973326
-0.971033
-0.966759
-0.959927
-0.949097
-0.931411
-0.900268
-0.838137
-0.677563
-0.674532
-0.841035
-0.902512
-0.932835
-0.950032
-0.96057
-0.96722
-0.971574
-0.973597
-0.974172
-0.973392
-0.971098
-0.966815
-0.959977
-0.949151
-0.931465
-0.90032
-0.838186
-0.677601
-0.674563
-0.841077
-0.902561
-0.932881
-0.949981
-0.960609
-0.967262
-0.971636
-0.973667
-0.974236
-0.973453
-0.971158
-0.966875
-0.960066
-0.949221
-0.931526
-0.90037
-0.838231
-0.677636
-0.674597
-0.841121
-0.902607
-0.932929
-0.950109
-0.960653
-0.967309
-0.971687
-0.973721
-0.974284
-0.973456
-0.97113
-0.966912
-0.960116
-0.949275
-0.931577
-0.900417
-0.838273
-0.677668
-0.674628
-0.841162
-0.90265
-0.932977
-0.95017
-0.960703
-0.967357
-0.971735
-0.973766
-0.974328
-0.973492
-0.971168
-0.967092
-0.960134
-0.949308
-0.931614
-0.900459
-0.838313
-0.677699
-0.674656
-0.8412
-0.902692
-0.933023
-0.950252
-0.960752
-0.967403
-0.971781
-0.973811
-0.974371
-0.973531
-0.971212
-0.967153
-0.960184
-0.949349
-0.931655
-0.900498
-0.83835
-0.677728
-0.674684
-0.841236
-0.902732
-0.933066
-0.950302
-0.960796
-0.967442
-0.971794
-0.973849
-0.974408
-0.973574
-0.971267
-0.967281
-0.960261
-0.949395
-0.931694
-0.900536
-0.838385
-0.677755
-0.67471
-0.84127
-0.90277
-0.933108
-0.950345
-0.960838
-0.967482
-0.971834
-0.973904
-0.974506
-0.973629
-0.97135
-0.967322
-0.960292
-0.949434
-0.931732
-0.900572
-0.838419
-0.677781
-0.674735
-0.841302
-0.902806
-0.933151
-0.950391
-0.960933
-0.967553
-0.971876
-0.973897
-0.974498
-0.973663
-0.97135
-0.967205
-0.960267
-0.949464
-0.931766
-0.900606
-0.83845
-0.677805
-0.674759
-0.841335
-0.902839
-0.933187
-0.950428
-0.960939
-0.967594
-0.971912
-0.973932
-0.974602
-0.973733
-0.971418
-0.967176
-0.960304
-0.949493
-0.931798
-0.900637
-0.838479
-0.677828
-0.674781
-0.841364
-0.90287
-0.933216
-0.950411
-0.960962
-0.967628
-0.971945
-0.973957
-0.974573
-0.973748
-0.971466
-0.967192
-0.960335
-0.949592
-0.931833
-0.900668
-0.838507
-0.67785
-0.674804
-0.84139
-0.902899
-0.933245
-0.950432
-0.96099
-0.967662
-0.972023
-0.973995
-0.974628
-0.973778
-0.971495
-0.96722
-0.960368
-0.949636
-0.931868
-0.900698
-0.838534
-0.677869
-0.674824
-0.841417
-0.902924
-0.933269
-0.950456
-0.961015
-0.96769
-0.97206
-0.97402
-0.97463
-0.973798
-0.971486
-0.967243
-0.960397
-0.949669
-0.931899
-0.900726
-0.838559
-0.677889
-0.674839
-0.841437
-0.902946
-0.933288
-0.950481
-0.961041
-0.967719
-0.972119
-0.974049
-0.974651
-0.973817
-0.971502
-0.967263
-0.960396
-0.949697
-0.931927
-0.900752
-0.838583
-0.677907
-0.674856
-0.841458
-0.90297
-0.933315
-0.950521
-0.961071
-0.96775
-0.972159
-0.974092
-0.974728
-0.973845
-0.971524
-0.967276
-0.960413
-0.949721
-0.931953
-0.900777
-0.838606
-0.677925

