# vtk DataFile Version 2.0
OUTPUT by 3D-VPM
ASCII
DATASET UNSTRUCTURED_GRID
POINTS 3980 double
1.938302e+02	4.174454e+00	-5.315070e+00
1.959561e+02	1.104146e+00	-3.582196e+00
1.960443e+02	8.884608e-01	-4.406412e+00
1.943522e+02	2.393577e+00	-5.295250e+00
1.969924e+02	4.975387e+00	-4.924360e+00
1.967947e+02	5.761383e+00	-4.425051e+00
1.966062e+02	7.025104e+00	-4.276384e+00
1.970266e+02	7.869507e+00	-3.969994e+00
1.973712e+02	8.694811e+00	-3.694493e+00
1.967024e+02	9.588105e+00	-3.551750e+00
1.966355e+02	1.043093e+01	-3.525563e+00
1.973242e+02	1.132476e+01	-3.781012e+00
1.971478e+02	1.217723e+01	-4.032523e+00
1.966438e+02	1.305344e+01	-4.387323e+00
1.967721e+02	1.459324e+01	-4.611999e+00
1.969811e+02	1.525610e+01	-4.779457e+00
1.939960e+02	1.836661e+01	-4.646204e+00
1.961940e+02	1.693129e+01	-6.511822e+00
1.954741e+02	1.900978e+01	-3.556946e+00
1.961789e+02	1.803615e+01	-6.314267e+00
1.953584e+02	2.353646e+00	-6.259919e+00
1.966030e+02	2.923355e+00	-6.059350e+00
1.951847e+02	3.525614e+00	-6.231360e+00
1.960933e+02	3.561562e+00	-3.621080e+00
1.970652e+02	4.631358e+00	-3.488982e+00
1.957523e+02	5.670556e+00	-4.176617e+00
1.984197e+02	5.762994e+00	-3.572712e+00
1.976433e+02	7.485968e+00	-2.723649e+00
1.972826e+02	8.421088e+00	-2.600015e+00
1.981638e+02	9.399374e+00	-2.482966e+00
1.981401e+02	1.068817e+01	-2.496403e+00
1.972218e+02	1.168708e+01	-2.652677e+00
1.974860e+02	1.259585e+01	-2.785424e+00
1.983500e+02	1.448620e+01	-3.549075e+00
1.956295e+02	1.455184e+01	-4.610785e+00
1.964895e+02	1.652659e+01	-3.624192e+00
1.966507e+02	1.710839e+01	-2.754593e+00
1.949164e+02	1.654299e+01	-2.710604e+00
1.945189e+02	1.671736e+01	-4.286926e+00
1.957017e+02	1.692618e+01	-5.613999e+00
1.945460e+02	2.428969e+00	-3.834364e+00
1.950441e+02	7.971595e-01	-4.674753e+00
1.956263e+02	3.322001e-01	-4.836389e+00
1.953465e+02	8.349531e-01	-3.645863e+00
1.982947e+02	3.813613e+00	-4.355327e+00
1.982952e+02	4.993657e+00	-2.739677e+00
1.990134e+02	5.567328e+00	-3.114525e+00
1.991932e+02	7.408719e+00	-3.607889e+00
1.991473e+02	8.401263e+00	-2.708174e+00
1.994313e+02	9.427729e+00	-3.081288e+00
1.994136e+02	1.063660e+01	-3.077364e+00
1.991136e+02	1.166344e+01	-2.718124e+00
1.991376e+02	1.271254e+01	-3.528229e+00
1.985721e+02	1.453281e+01	-2.934442e+00
1.979824e+02	1.518003e+01	-2.650975e+00
1.977152e+02	1.634936e+01	-3.191728e+00
1.932537e+02	1.638855e+01	-3.767615e+00
1.952920e+02	1.798099e+01	-4.358484e+00
1.965844e+02	1.879785e+01	-5.883951e+00
1.937642e+02	1.717593e+01	-4.456702e+00
1.929315e+02	5.356014e-01	-5.905080e+00
1.943119e+02	-1.103617e-01	-4.784146e+00
1.938698e+02	2.727941e+00	-6.637965e+00
1.965186e+02	1.375379e+00	-2.873384e+00
1.956118e+02	4.490272e+00	-5.107681e+00
1.965210e+02	4.578544e+00	-2.955697e+00
1.976773e+02	5.967978e+00	-2.444307e+00
1.973921e+02	6.894236e+00	-2.320652e+00
1.980698e+02	8.089461e+00	-1.615822e+00
1.979666e+02	9.488045e+00	-1.693566e+00
1.979471e+02	1.054391e+01	-1.708551e+00
1.980314e+02	1.191532e+01	-1.627738e+00
1.972881e+02	1.315370e+01	-2.319068e+00
1.973607e+02	1.403414e+01	-2.666371e+00
1.963361e+02	1.540082e+01	-2.973928e+00
1.965728e+02	1.691717e+01	-4.976117e+00
1.969030e+02	1.882683e+01	-2.861093e+00
1.932635e+02	1.692347e+01	-4.916764e+00
1.960531e+02	1.758013e+01	-4.306724e+00
1.951932e+02	1.872330e+01	-4.026789e+00
1.920263e+02	3.530469e-01	-4.781507e+00
1.924352e+02	1.984287e+00	-3.313678e+00
1.926308e+02	3.016607e+00	-3.830890e+00
1.941948e+02	9.664456e-01	-4.309112e+00
1.971894e+02	1.617117e+00	-6.545575e+00
1.978926e+02	3.867981e+00	-6.898623e+00
1.982629e+02	5.527711e+00	-6.832553e+00
1.984997e+02	6.962116e+00	-6.664731e+00
1.986481e+02	8.227545e+00	-6.505306e+00
1.987099e+02	9.428793e+00	-6.431908e+00
1.987101e+02	1.062236e+01	-6.426618e+00
1.986492e+02	1.183389e+01	-6.485323e+00
1.985004e+02	1.311566e+01	-6.615979e+00
1.982573e+02	1.456039e+01	-6.735596e+00
1.978854e+02	1.620064e+01	-6.743846e+00
1.972036e+02	1.845413e+01	-6.456848e+00
1.946642e+02	1.949603e+01	-3.062705e+00
1.924632e+02	1.719369e+01	-3.257298e+00
1.924322e+02	1.829691e+01	-3.020126e+00
1.923958e+02	1.950533e+01	-5.225614e+00
1.914840e+02	2.387753e-01	-4.209038e+00
1.908063e+02	9.243362e-01	-5.294610e+00
1.919946e+02	2.548718e+00	-2.643596e+00
1.939202e+02	4.961313e-01	-3.232501e+00
1.949039e+02	7.993449e-01	-7.539900e+00
1.951627e+02	3.713759e+00	-8.305606e+00
1.954058e+02	5.547814e+00	-8.226599e+00
1.955843e+02	6.992311e+00	-8.084028e+00
1.957013e+02	8.258047e+00	-7.964614e+00
1.957599e+02	9.441036e+00	-7.899854e+00
1.957629e+02	1.060234e+01	-7.899349e+00
1.957110e+02	1.179278e+01	-7.961467e+00
1.956016e+02	1.307382e+01	-8.072495e+00
1.954264e+02	1.454509e+01	-8.191118e+00
1.951639e+02	1.641297e+01	-8.170208e+00
1.948610e+02	1.912596e+01	-7.230870e+00
1.938362e+02	2.008141e+01	-3.348146e+00
1.919482e+02	1.761944e+01	-2.414864e+00
1.907902e+02	1.940477e+01	-5.653728e+00
1.914238e+02	1.966302e+01	-4.344849e+00
1.910785e+02	-6.226157e-01	-4.623683e+00
1.914719e+02	1.726084e+00	-2.255304e+00
1.907034e+02	1.298632e+00	-3.379409e+00
1.932184e+02	-9.989639e-01	-3.684723e+00
1.931661e+02	5.105746e-01	-7.825593e+00
1.931325e+02	3.508651e+00	-8.579988e+00
1.932986e+02	5.441839e+00	-8.510511e+00
1.934416e+02	6.930192e+00	-8.371575e+00
1.935389e+02	8.223025e+00	-8.261623e+00
1.935890e+02	9.428016e+00	-8.203457e+00
1.935919e+02	1.060946e+01	-8.203459e+00
1.935485e+02	1.182075e+01	-8.260298e+00
1.934606e+02	1.312805e+01	-8.363184e+00
1.933358e+02	1.464187e+01	-8.475812e+00
1.932163e+02	1.658541e+01	-8.464084e+00
1.932904e+02	1.941608e+01	-7.635802e+00
1.931039e+02	2.102153e+01	-3.763717e+00
1.909040e+02	1.876539e+01	-3.291341e+00
1.913439e+02	1.811091e+01	-2.315266e+00
1.910901e+02	2.030628e+01	-4.619564e+00
1.899570e+02	-4.473870e-01	-4.119739e+00
1.905294e+02	1.195484e+00	-2.670623e+00
1.899660e+02	1.465424e+00	-3.618709e+00
1.919362e+02	-1.734575e+00	-3.742426e+00
1.916293e+02	4.226758e-01	-7.926091e+00
1.915408e+02	3.351075e+00	-8.543034e+00
1.916569e+02	5.321587e+00	-8.487129e+00
1.917707e+02	6.851177e+00	-8.354268e+00
1.918508e+02	8.177031e+00	-8.247708e+00
1.918927e+02	9.410929e+00	-8.191571e+00
1.918960e+02	1.061964e+01	-8.191657e+00
1.918617e+02	1.185789e+01	-8.246951e+00
1.917936e+02	1.319282e+01	-8.348589e+00
1.917031e+02	1.473376e+01	-8.466073e+00
1.916311e+02	1.669606e+01	-8.487585e+00
1.917500e+02	1.952753e+01	-7.854781e+00
1.918941e+02	2.168856e+01	-3.758658e+00
1.899523e+02	1.847233e+01	-3.605781e+00
1.905959e+02	1.874297e+01	-2.787059e+00
1.901857e+02	2.066210e+01	-4.248166e+00
1.891205e+02	-6.220137e-01	-3.504679e+00
1.892022e+02	1.914558e+00	-2.908659e+00
1.891307e+02	1.334773e+00	-3.443136e+00
1.907597e+02	-2.050675e+00	-3.498945e+00
1.902412e+02	3.247834e-01	-7.828418e+00
1.901864e+02	3.221827e+00	-8.404112e+00
1.902764e+02	5.214381e+00	-8.361796e+00
1.903668e+02	6.776732e+00	-8.234291e+00
1.904317e+02	8.132856e+00	-8.129060e+00
1.904662e+02	9.394326e+00	-8.073260e+00
1.904695e+02	1.062916e+01	-8.073480e+00
1.904425e+02	1.189297e+01	-8.129083e+00
1.903886e+02	1.325316e+01	-8.231891e+00
1.903167e+02	1.481766e+01	-8.352511e+00
1.902548e+02	1.679704e+01	-8.383283e+00
1.903204e+02	1.964088e+01	-7.814372e+00
1.907412e+02	2.192089e+01	-3.455899e+00
1.891149e+02	1.863442e+01	-3.395444e+00
1.891867e+02	1.804716e+01	-2.877278e+00
1.891787e+02	2.049013e+01	-3.689972e+00
1.885328e+02	-1.688644e-01	-3.041291e+00
1.886065e+02	1.679880e+00	-2.903978e+00
1.882652e+02	1.304128e+00	-3.467786e+00
1.896030e+02	-2.413068e+00	-3.300435e+00
1.889992e+02	2.110641e-01	-7.632737e+00
1.889755e+02	3.108266e+00	-8.230967e+00
1.890500e+02	5.122439e+00	-8.204693e+00
1.891221e+02	6.712250e+00	-8.081628e+00
1.891736e+02	8.094344e+00	-7.976015e+00
1.892014e+02	9.379756e+00	-7.919633e+00
1.892043e+02	1.063758e+01	-7.919866e+00
1.891827e+02	1.192404e+01	-7.976104e+00
1.891392e+02	1.330698e+01	-8.079749e+00
1.890795e+02	1.489454e+01	-8.199982e+00
1.890206e+02	1.689648e+01	-8.223521e+00
1.890440e+02	1.976501e+01	-7.633858e+00
1.896426e+02	2.233565e+01	-3.296707e+00
1.882499e+02	1.869486e+01	-3.468149e+00
1.885735e+02	1.831116e+01	-2.901618e+00
1.886295e+02	2.015221e+01	-3.060606e+00
1.875711e+02	-7.810872e-01	-3.080281e+00
1.878266e+02	1.586597e+00	-2.163852e+00
1.874346e+02	1.143848e+00	-3.289604e+00
1.883757e+02	-2.588694e+00	-3.041827e+00
1.878641e+02	1.066623e-01	-7.409342e+00
1.878556e+02	3.010232e+00	-8.052056e+00
1.879151e+02	5.046651e+00	-8.035676e+00
1.879723e+02	6.658913e+00	-7.916061e+00
1.880150e+02	8.061980e+00	-7.816099e+00
1.880371e+02	9.367592e+00	-7.759460e+00
1.880395e+02	1.064479e+01	-7.759569e+00
1.880222e+02	1.195051e+01	-7.816278e+00
1.879872e+02	1.335334e+01	-7.920877e+00
1.879376e+02	1.496238e+01	-8.038931e+00
1.878845e+02	1.698853e+01	-8.049182e+00
1.878901e+02	1.987524e+01	-7.411405e+00
1.883998e+02	2.257268e+01	-3.066093e+00
1.874294e+02	1.886405e+01	-3.293832e+00
1.878107e+02	1.840138e+01	-2.185881e+00
1.877349e+02	2.067306e+01	-2.998610e+00
1.867939e+02	-3.951524e-01	-2.562670e+00
1.868056e+02	1.773439e+00	-2.416406e+00
1.867977e+02	1.131106e+00	-3.277846e+00
1.872360e+02	-2.598615e+00	-2.743814e+00
1.867973e+02	1.949600e-02	-7.191373e+00
1.867939e+02	2.929760e+00	-7.881838e+00
1.868412e+02	4.985806e+00	-7.877851e+00
1.868858e+02	6.615925e+00	-7.759909e+00
1.869194e+02	8.035790e+00	-7.661170e+00
1.869367e+02	9.357801e+00	-7.604647e+00
1.869385e+02	1.065070e+01	-7.604671e+00
1.869249e+02	1.197207e+01	-7.661900e+00
1.868974e+02	1.339150e+01	-7.768276e+00
1.868576e+02	1.501924e+01	-7.884526e+00
1.868131e+02	1.706725e+01	-7.881061e+00
1.868139e+02	1.996541e+01	-7.192355e+00
1.872340e+02	2.258682e+01	-2.753202e+00
1.867999e+02	1.886918e+01	-3.252920e+00
1.868123e+02	1.818563e+01	-2.423857e+00
1.868609e+02	2.056405e+01	-2.612601e+00
1.858622e+02	-1.529512e-01	-2.511435e+00
1.855527e+02	5.830285e-01	-3.458556e+00
1.855964e+02	2.039666e+00	-3.386282e+00
1.861358e+02	-2.575189e+00	-2.482336e+00
1.857720e+02	-4.944787e-02	-6.991065e+00
1.857687e+02	2.866489e+00	-7.726432e+00
1.858059e+02	4.937811e+00	-7.738451e+00
[...]
CELL_DATA 3762
SCALARS Mu double 1
LOOKUP_TABLE default
-0.388429
-0.434839
-0.445113
-0.448285
-0.449531
-0.450112
-0.450415
-0.45058
-0.450664
-0.450691
-0.450664
-0.45058
-0.450415
-0.450112
-0.449531
-0.448285
-0.445113
-0.434839
-0.388429
-0.510131
-0.594683
-0.616974
-0.624665
-0.627855
-0.629376
-0.630171
-0.630603
-0.630824
-0.630893
-0.630827
-0.630608
-0.630178
-0.629383
-0.627864
-0.624669
-0.616953
-0.594531
-0.509768
-0.565402
-0.676259
-0.708906
-0.721304
-0.726769
-0.729481
-0.73093
-0.731726
-0.732133
-0.732261
-0.732142
-0.731746
-0.730963
-0.729527
-0.726831
-0.721339
-0.708845
-0.676044
-0.567553
-0.5965
-0.724128
-0.764294
-0.780705
-0.788374
-0.792329
-0.794491
-0.79569
-0.796305
-0.796497
-0.796315
-0.795713
-0.794527
-0.792381
-0.788441
-0.780711
-0.764093
-0.72369
-0.599882
-0.616157
-0.754595
-0.800147
-0.819703
-0.829262
-0.834366
-0.837218
-0.838823
-0.839649
-0.839907
-0.839656
-0.838838
-0.837242
-0.834395
-0.829287
-0.81961
-0.799729
-0.753863
-0.620006
-0.629462
-0.77515
-0.824573
-0.846525
-0.857613
-0.863703
-0.867176
-0.869157
-0.870184
-0.870502
-0.870184
-0.869157
-0.867173
-0.863686
-0.85756
-0.846289
-0.823906
-0.774108
-0.633433
-0.63891
-0.789621
-0.841854
-0.865629
-0.87793
-0.884838
-0.888843
-0.891155
-0.892362
-0.892735
-0.892353
-0.891135
-0.888804
-0.884767
-0.877784
-0.865235
-0.840944
-0.78829
-0.642855
-0.645861
-0.800146
-0.854446
-0.879611
-0.892871
-0.900442
-0.904899
-0.907495
-0.908859
-0.909278
-0.908838
-0.907451
-0.904819
-0.900312
-0.892624
-0.879062
-0.853314
-0.798557
-0.649722
-0.651118
-0.808004
-0.863847
-0.890074
-0.904089
-0.912208
-0.917035
-0.91987
-0.921366
-0.921824
-0.921333
-0.919799
-0.916913
-0.912002
-0.903739
-0.889378
-0.86252
-0.80619
-0.654877
-0.655184
-0.813999
-0.871014
-0.898055
-0.91267
-0.921219
-0.926358
-0.929393
-0.931
-0.93149
-0.930954
-0.929291
-0.926181
-0.920941
-0.912171
-0.897221
-0.869514
-0.811993
-0.658841
-0.658388
-0.818659
-0.87657
-0.904239
-0.919324
-0.928202
-0.933353
-0.936781
-0.938511
-0.939032
-0.938454
-0.936687
-0.933422
-0.927882
-0.918774
-0.903285
-0.874921
-0.816489
-0.661948
-0.660949
-0.822338
-0.88094
-0.909098
-0.924554
-0.933726
-0.939242
-0.942613
-0.944431
-0.944972
-0.944365
-0.94251
-0.939127
-0.933362
-0.923934
-0.908042
-0.879166
-0.820031
-0.664423
-0.663021
-0.825283
-0.884419
-0.91296
-0.928706
-0.938104
-0.943837
-0.947298
-0.94915
-0.949712
-0.94908
-0.947156
-0.943615
-0.937678
-0.92802
-0.911817
-0.882541
-0.82286
-0.666419
-0.664715
-0.827667
-0.887216
-0.916056
-0.932031
-0.941591
-0.947475
-0.951026
-0.95292
-0.953498
-0.952849
-0.950851
-0.947181
-0.941111
-0.931284
-0.91484
-0.885252
-0.825147
-0.668047
-0.666097
-0.829594
-0.889464
-0.918544
-0.934709
-0.944423
-0.950403
-0.954048
-0.955985
-0.956559
-0.955888
-0.953846
-0.950085
-0.943903
-0.933924
-0.917287
-0.887452
-0.827017
-0.669388
-0.667253
-0.831199
-0.891318
-0.920587
-0.936901
-0.946741
-0.952803
-0.956494
-0.958367
-0.959029
-0.958341
-0.955882
-0.952377
-0.946158
-0.93607
-0.919281
-0.889251
-0.828559
-0.670503
-0.668225
-0.832528
-0.892849
-0.922268
-0.938724
-0.948632
-0.95476
-0.958469
-0.960483
-0.961076
-0.960326
-0.958144
-0.954299
-0.947591
-0.937793
-0.920911
-0.890737
-0.829835
-0.671435
-0.669047
-0.833641
-0.894119
-0.923653
-0.940183
-0.950182
-0.956367
-0.960143
-0.962458
-0.963208
-0.962042
-0.959854
-0.955938
-0.949468
-0.93926
-0.922276
-0.89198
-0.830914
-0.672233
-0.669767
-0.834672
-0.895229
-0.924909
-0.941505
-0.951463
-0.957689
-0.96148
-0.963593
-0.96431
-0.963546
-0.961351
-0.957315
-0.950829
-0.940496
-0.923416
-0.893019
-0.831825
-0.672916
-0.670312
-0.835344
-0.896019
-0.925722
-0.942395
-0.952498
-0.958791
-0.962623
-0.964705
-0.965348
-0.964681
-0.962445
-0.958452
-0.951955
-0.941544
-0.924384
-0.893894
-0.832588
-0.673485
-0.670778
-0.835965
-0.896752
-0.926487
-0.943239
-0.953408
-0.959746
-0.963602
-0.965689
-0.966309
-0.965575
-0.963436
-0.959372
-0.952866
-0.942406
-0.9252
-0.894666
-0.833238
-0.673966
-0.671201
-0.836527
-0.897403
-0.927221
-0.943991
-0.954198
-0.960565
-0.964442
-0.966536
-0.96716
-0.966427
-0.964225
-0.960186
-0.953631
-0.94313
-0.925872
-0.895265
-0.833767
-0.674364
-0.671574
-0.837024
-0.897976
-0.927847
-0.944655
-0.954893
-0.961277
-0.965168
-0.967284
-0.96792
-0.96719
-0.964957
-0.96089
-0.954257
-0.943745
-0.926479
-0.895817
-0.834246
-0.674719
-0.671901
-0.837465
-0.898476
-0.928371
-0.945229
-0.955506
-0.961918
-0.965836
-0.967943
-0.9686
-0.967847
-0.965649
-0.961531
-0.954898
-0.944353
-0.927025
-0.896261
-0.834667
-0.67503
-0.672181
-0.837848
-0.89886
-0.928876
-0.945762
-0.956053
-0.96248
-0.966416
-0.968528
-0.96916
-0.968423
-0.96618
-0.96197
-0.955345
-0.944872
-0.92751
-0.896732
-0.835035
-0.675302
-0.672432
-0.838191
-0.899304
-0.929302
-0.946225
-0.956537
-0.962983
-0.966931
-0.969046
-0.969698
-0.968958
-0.966693
-0.962563
-0.955913
-0.945337
-0.927944
-0.897097
-0.835372
-0.675543
-0.67265
-0.838473
-0.899433
-0.929681
-0.946642
-0.956974
-0.963416
-0.967382
-0.969528
-0.970182
-0.969434
-0.967162
-0.963034
-0.95637
-0.945756
-0.928334
-0.897476
-0.835673
-0.675758
-0.672843
-0.838734
-0.899801
-0.930017
-0.94701
-0.957366
-0.963823
-0.96782
-0.969982
-0.970669
-0.969866
-0.967549
-0.963444
-0.956781
-0.946143
-0.928686
-0.89776
-0.835933
-0.675947
-0.673019
-0.838981
-0.900132
-0.930327
-0.947327
-0.957681
-0.964209
-0.968202
-0.970361
-0.971052
-0.970207
-0.967921
-0.963822
-0.957088
-0.946483
-0.928995
-0.898061
-0.836171
-0.676117
-0.673184
-0.839214
-0.900475
-0.930633
-0.947652
-0.958038
-0.964544
-0.968532
-0.9707
-0.971412
-0.970585
-0.968296
-0.964105
-0.957431
-0.946776
-0.929278
-0.898315
-0.836391
-0.676271
-0.673336
-0.839438
-0.900733
-0.930907
-0.947952
-0.958539
-0.96489
-0.96909
-0.971099
-0.971747
-0.971032
-0.968664
-0.964525
-0.957764
-0.947021
-0.929528
-0.898543
-0.836589
-0.676412
-0.673093
-0.832934
-0.900547
-0.931022
-0.948003
-0.95862
-0.965148
-0.969415
-0.971412
-0.972045
-0.971313
-0.969027
-0.965407
-0.958068
-0.947317
-0.929762
-0.898751
-0.83677
-0.676538
-0.673109
-0.838233
-0.900522
-0.931105
-0.948293
-0.958806
-0.965382
-0.969683
-0.971677
-0.972301
-0.971567
-0.969306
-0.965783
-0.95836
-0.947568
-0.929975
-0.898935
-0.83693
-0.676652
-0.673397
-0.839334
-0.900867
-0.931315
-0.948502
-0.959012
-0.965615
-0.970051
-0.972024
-0.97254
-0.971793
-0.969506
-0.96541
-0.958569
-0.947775
-0.930156
-0.899072
-0.83707
-0.676757
-0.673604
-0.839754
-0.901216
-0.931532
-0.948696
-0.959212
-0.965862
-0.970156
-0.972154
-0.972747
-0.971998
-0.969691
-0.965496
-0.958798
-0.947957
-0.930312
-0.899211
-0.837196
-0.676852
-0.673756
-0.839992
-0.901407
-0.931681
-0.948861
-0.959426
-0.966021
-0.970411
-0.972329
-0.972929
-0.972154
-0.969843
-0.965629
-0.958887
-0.948089
-0.930449
-0.899337
-0.83731
-0.676936
-0.673875
-0.840163
-0.901591
-0.931873
-0.949026
-0.959545
-0.966179
-0.970492
-0.972491
-0.973094
-0.972311
-0.970005
-0.965796
-0.959061
-0.948218
-0.930574
-0.899452
-0.83741
-0.677013
-0.673972
-0.840299
-0.90173
-0.932019
-0.949157
-0.959648
-0.966291
-0.970629
-0.972706
-0.973241
-0.972472
-0.970159
-0.965913
-0.959131
-0.948335
-0.93073
-0.899558
-0.837505
-0.677083
-0.674055
-0.840414
-0.901851
-0.932148
-0.949367
-0.959803
-0.966422
-0.970753
-0.972774
-0.973387
-0.972691
-0.970305
-0.966032
-0.95925
-0.948466
-0.930802
-0.899682
-0.837596
-0.677151
-0.67413
-0.840515
-0.901958
-0.932259
-0.94945
-0.959925
-0.966547
-0.97095
-0.972724
-0.973462
-0.972732
-0.970365
-0.96615
-0.959404
-0.948576
-0.930894
-0.899772
-0.837678
-0.677212
-0.674198
-0.840603
-0.90205
-0.932345
-0.94942
-0.960026
-0.966664
-0.970992
-0.972961
-0.973695
-0.972848
-0.970146
-0.966318
-0.959473
-0.948614
-0.930956
-0.899821
-0.837742
-0.677265
-0.674258
-0.84068
-0.902131
-0.932425
-0.949485
-0.960115
-0.966749
-0.971085
-0.973081
-0.973718
-0.972906
-0.970484
-0.966326
-0.959536
-0.948734
-0.93109
-0.899936
-0.83783
-0.677332
-0.67431
-0.84075
-0.902206
-0.932504
-0.949582
-0.96021
-0.967018
-0.971233
-0.973196
-0.973804
-0.973005
-0.970645
-0.966413
-0.959631
-0.948933
-0.93116
-0.900019
-0.837902
-0.677385
-0.674361
-0.840818
-0.902278
-0.932589
-0.949749
-0.960329
-0.966975
-0.971287
-0.973286
-0.973891
-0.973088
-0.970748
-0.966503
-0.959712
-0.948919
-0.931231
-0.90009
-0.837968
-0.677434
-0.674408
-0.84088
-0.902346
-0.932665
-0.949841
-0.960414
-0.967024
-0.97135
-0.973367
-0.974031
-0.97314
-0.970837
-0.966663
-0.959791
-0.948975
-0.931295
-0.900155
-0.838031
-0.67748
-0.67445
-0.840931
-0.902395
-0.932701
-0.949911
-0.960555
-0.967096
-0.971419
-0.973434
-0.974045
-0.973248
-0.970958
-0.966758
-0.959867
-0.949038
-0.931354
-0.900214
-0.838086
-0.677522
-0.674494
-0.840983
-0.902448
-0.932754
-0.949967
-0.960535
-0.967169
-0.971481
-0.973485
-0.974101
-0.973326
-0.971033
-0.966759
-0.959927
-0.949097
-0.931411
-0.900268
-0.838137
-0.677563
-0.674532
-0.841035
-0.902512
-0.932835
-0.950032
-0.96057
-0.96722
-0.971574
-0.973597
-0.974172
-0.973392
-0.971098
-0.966815
-0.959977
-0.949151
-0.931465
-0.90032
-0.838186
-0.677601
-0.674563
-0.841077
-0.902561
-0.932881
-0.949981
-0.960609
-0.967262
-0.971636
-0.973667
-0.974236
-0.973453
-0.971158
-0.966875
-0.960066
-0.949221
-0.931526
-0.90037
-0.838231
-0.677636
-0.674597
-0.841121
-0.902607
-0.932929
-0.950109
-0.960653
-0.967309
-0.971687
-0.973721
-0.974284
-0.973456
-0.97113
-0.966912
-0.960116
-0.949275
-0.931577
-0.900417
-0.838273
-0.677668
-0.674628
-0.841162
-0.90265
-0.932977
-0.95017
-0.960703
-0.967357
-0.971735
-0.973766
-0.974328
-0.973492
-0.971168
-0.967092
-0.960134
-0.949308
-0.931614
-0.900459
-0.838313
-0.677699
-0.674656
-0.8412
-0.902692
-0.933023
-0.950252
-0.960752
-0.967403
-0.971781
-0.973811
-0.974371
-0.973531
-0.971212
-0.967153
-0.960184
-0.949349
-0.931655
-0.900498
-0.83835
-0.677728
-0.674684
-0.841236
-0.902732
-0.933066
-0.950302
-0.960796
-0.967442
-0.971794
-0.973849
-0.974408
-0.973574
-0.971267
-0.967281
-0.960261
-0.949395
-0.931694
-0.900536
-0.838385
-0.677755
-0.67471
-0.84127
-0.90277
-0.933108
-0.950345
-0.960838
-0.967482
-0.971834
-0.973904
-0.974506
-0.973629
-0.97135
-0.967322
-0.960292
-0.949434
-0.931732
-0.900572
-0.838419
-0.677781
-0.674735
-0.841302
-0.902806
-0.933151
-0.950391
-0.960933
-0.967553
-0.971876
-0.973897
-0.974498
-0.973663
-0.97135
-0.967205
-0.960267
-0.949464
-0.931766
-0.900606
-0.83845
-0.677805
-0.674759
-0.841335
-0.902839
-0.933187
-0.950428
-0.960939
-0.967594
-0.971912
-0.973932
-0.974602
-0.973733
-0.971418
-0.967176
-0.960304
-0.949493
-0.931798
-0.900637
-0.838479
-0.677828
-0.674781
-0.841364
-0.90287
-0.933216
-0.950411
-0.960962
-0.967628
-0.971945
-0.973957
-0.974573
-0.973748
-0.971466
-0.967192
-0.960335
-0.949592
-0.931833
-0.900668
-0.838507
-0.67785
-0.674804
-0.84139
-0.902899
-0.933245
-0.950432
-0.96099
-0.967662
-0.972023
-0.973995
-0.974628
-0.973778
-0.971495
-0.96722
-0.960368
-0.949636
-0.931868
-0.900698
-0.838534
-0.677869
-0.674824
-0.841417
-0.902924
-0.933269
-0.950456
-0.961015
-0.96769
-0.97206
-0.97402
-0.97463
-0.973798
-0.971486
-0.967243
-0.960397
-0.949669
-0.931899
-0.900726
-0.838559
-0.677889
-0.674839
-0.841437
-0.902946
-0.933288
-0.950481
-0.961041
-0.967719
-0.972119
-0.974049
-0.974651
-0.973817
-0.971502
-0.967263
-0.960396
-0.949697
-0.931927
-0.900752
-0.838583
-0.677907
-0.674856
-0.841458
-0.90297
-0.933315
-0.950521
-0.961071
-0.96775
-0.972159
-0.974092
-0.974728
-0.973845
-0.971524
-0.967276
-0.960413
-0.949721
-0.931953
-0.900777
-0.838606
-0.677925
-0.674876
-0.841481
-0.902995
-0.93334
-0.95055
-0.961098
-0.967774
-0.97216
-0.974122
-0.974765
-0.973875
-0.971551
-0.967298
-0.960435
-0.949745
-0.931976
-0.9008
-0.838627
-0.677942
-0.67489
-0.841502
-0.903017
-0.933365
-0.950565
-0.961167
-0.967803
-0.972182
-0.974148
-0.974794
-0.973902
-0.971577
-0.967322
-0.960459
-0.949779
-0.932001
-0.900822
-0.838648
-0.677958
-0.674906
-0.841521
-0.903038
-0.933388
-0.950589
-0.961201
-0.967837
-0.972208
-0.974173
-0.974819
-0.973926
-0.9716
-0.967343
-0.960476
-0.949733
-0.932018
-0.900842
-0.838667
-0.677973
-0.674921
-0.841543
-0.903059
-0.933409
-0.950609
-0.961185
-0.967865
-0.972259
-0.974629
-0.974899
-0.973964
-0.971643
-0.967457
-0.961978
-0.949833
-0.932052
-0.900866
-0.838687
-0.677988
-0.674935
-0.841562
-0.903079
-0.93343
-0.950629
-0.961202
-0.967896
-0.972312
-0.974752
-0.97497
-0.974015
-0.971713
-0.967635
-0.962331
-0.949975
-0.93211
-0.900898
-0.83871
-0.678004
-0.674949
-0.841579
-0.903098
-0.93345
-0.950651
-0.961225
-0.967926
-0.972352
-0.97481
-0.975024
-0.974065
-0.971777
-0.967727
-0.962467
-0.950076
-0.932165
-0.900932
-0.838734
-0.678021
-0.674962
-0.841596
-0.903116
-0.933469
-0.950671
-0.961246
-0.967948
-0.972359
-0.974421
-0.975038
-0.974101
-0.971824
-0.96779
-0.962543
-0.950139
-0.932207
-0.900963
-0.838762
-0.678038
-0.674975
-0.841612
-0.903133
-0.933486
-0.950689
-0.961264
-0.967961
-0.972357
-0.974359
-0.975035
-0.974123
-0.971858
-0.967834
-0.962594
-0.950183
-0.932241
-0.90099
-0.838784
-0.678053
-0.674986
-0.841627
-0.903149
-0.933503
-0.950705
-0.961279
-0.967973
-0.972365
-0.974354
-0.97504
-0.974142
-0.971885
-0.967867
-0.962631
-0.950216
-0.932268
-0.901014
-0.838804
-0.678068
-0.674997
-0.841641
-0.903165
-0.933518
-0.950721
-0.961294
-0.967986
-0.972376
-0.974362
-0.975054
-0.974169
-0.971909
-0.967894
-0.962661
-0.950243
-0.932292
-0.901035
-0.838822
-0.678081
-0.675008
-0.841655
-0.903179
-0.933533
-0.950736
-0.961309
-0.968
-0.972387
-0.974374
-0.975071
-0.974192
-0.971931
-0.967917
-0.962685
-0.950266
-0.932312
-0.901055
-0.838839
-0.678093
-0.675018
-0.841668
-0.903193
-0.933548
-0.950752
-0.961333
-0.968121
-0.97241
-0.97439
-0.975087
-0.97421
-0.971949
-0.967937
-0.962707
-0.950286
-0.93233
-0.901072
-0.838854
-0.678105
-0.675028
-0.841681
-0.903207
-0.933563
-0.950769
-0.961355
-0.96816
-0.972434
-0.974407
-0.975103
-0.974227
-0.971966
-0.967955
-0.962726
-0.950303
-0.932346
-0.901087
-0.838868
-0.678116
-0.675038
-0.841693
-0.90322
-0.933577
-0.950785
-0.961373
-0.968182
-0.972453
-0.974424
-0.975119
-0.974243
-0.971982
-0.967971
-0.962743
-0.95032
-0.932361
-0.901101
-0.838881
-0.678126
-0.675047
-0.841705
-0.903233
-0.933591
-0.950799
-0.961389
-0.968199
-0.97247
-0.974439
-0.975134
-0.974257
-0.971997
-0.967987
-0.962759
-0.950334
-0.932375
-0.901114
-0.838893
-0.678135
-0.675056
-0.841716
-0.903245
-0.933603
-0.950813
-0.961403
-0.968214
-0.972485
-0.974453
-0.975148
-0.974271
-0.97201
-0.968001
-0.962773
-0.950348
-0.932388
-0.901127
-0.838904
-0.678144
-0.675064
-0.841727
-0.903257
-0.933616
-0.950826
-0.961416
-0.968228
-0.972498
-0.974466
-0.975161
-0.974285
-0.972023
-0.968014
-0.962787
-0.950361
-0.9324
-0.901138
-0.838915
-0.678152
-0.675072
-0.841737
-0.903268
-0.933627
-0.950838
-0.961429
-0.968241
-0.972511
-0.974479
-0.975174
-0.974297
-0.972036
-0.968029
-0.962815
-0.950376
-0.932412
-0.901149
-0.838925
-0.67816
-0.67508
-0.841747
-0.903278
-0.933638
-0.950849
-0.96144
-0.968253
-0.972523
-0.974491
-0.975186
-0.974309
-0.972048
-0.968044
-0.962833
-0.950397
-0.932556
-0.901167
-0.838936
-0.678168
-0.675088
-0.841757
-0.903289
-0.933649
-0.95086
-0.961452
-0.968264
-0.972535
-0.974504
-0.975203
-0.974349
-0.972065
-0.968058
-0.962849
-0.950411
-0.932463
-0.901181
-0.838947
-0.678176
-0.675095
-0.841766
-0.903299
-0.933659
-0.950871
-0.961463
-0.968276
-0.972546
-0.974516
-0.975217
-0.974367
-0.972079
-0.96807
-0.962859
-0.950418
-0.932455
-0.901187
-0.838956
-0.678183
-0.675102
-0.841775
-0.903308
-0.933669
-0.95088
-0.961472
-0.968281
-0.972509
-0.974521
-0.975227
-0.97438
-0.972092
-0.968082
-0.96287
-0.950427
-0.93246
-0.901193
-0.838964
-0.67819
-0.675109
-0.841783
-0.903317
-0.933678
-0.950889
-0.96148
-0.968287
-0.972508
-0.974527
-0.975237
-0.974391
-0.972103
-0.968092
-0.96288
-0.950439
-0.932468
-0.901201
-0.838972
-0.678196
-0.675115
-0.841791
-0.903325
-0.933687
-0.950898
-0.961488
-0.968294
-0.972514
-0.974534
-0.975245
-0.9744
-0.972112
-0.968102
-0.96289
-0.950449
-0.932476
-0.901209
-0.838979
-0.678202
-0.675121
-0.841799
-0.903334
-0.933695
-0.950906
-0.961496
-0.968302
-0.972522
-0.974542
-0.975254
-0.974409
-0.972122
-0.968111
-0.962899
-0.950458
-0.932485
-0.901217
-0.838987
-0.678208
-0.675127
-0.841806
-0.903341
-0.933703
-0.950914
-0.961505
-0.96831
-0.972529
-0.97455
-0.975262
-0.974418
-0.972131
-0.96812
-0.962908
-0.950466
-0.932493
-0.901225
-0.838994
-0.678213
-0.675132
-0.841813
-0.903349
-0.933711
-0.950922
-0.961513
-0.968318
-0.972537
-0.974558
-0.975271
-0.974426
-0.972139
-0.968128
-0.962916
-0.950474
-0.932501
-0.901232
-0.839001
-0.678219
-0.675138
-0.84182
-0.903356
-0.933718
-0.95093
-0.96152
-0.968326
-0.972545
-0.974565
-0.975279
-0.974435
-0.972147
-0.968136
-0.962924
-0.950482
-0.932508
-0.90124
-0.839008
-0.678224
-0.675143
-0.841826
-0.903363
-0.933726
-0.950937
-0.961528
-0.968333
-0.972552
-0.974573
-0.975286
-0.974442
-0.972155
-0.968144
-0.962932
-0.95049
-0.932516
-0.901247
-0.839014
-0.678229
-0.67515
-0.841834
-0.903372
-0.933764
-0.950946
-0.961535
-0.968341
-0.97256
-0.97458
-0.975294
-0.97445
-0.972162
-0.968151
-0.962939
-0.950497
-0.932523
-0.901253
-0.83902
-0.678234
-0.675155
-0.841841
-0.90338
-0.933778
-0.950955
-0.961543
-0.968348
-0.972567
-0.974587
-0.975301
-0.974457
-0.972169
-0.968159
-0.962946
-0.950504
-0.932529
-0.90126
-0.839027
-0.678239
-0.67516
-0.841847
-0.903388
-0.933787
-0.950964
-0.961551
-0.968355
-0.972574
-0.974594
-0.975308
-0.974464
-0.972176
-0.968165
-0.962953
-0.95051
-0.932536
-0.901266
-0.839032
-0.678244
-0.675165
-0.841853
-0.903395
-0.933794
-0.950971
-0.961558
-0.968362
-0.972581
-0.974601
-0.975316
-0.974475
-0.972211
-0.968177
-0.96296
-0.950517
-0.932542
-0.901272
-0.839038
-0.678248
-0.675169
-0.841859
-0.903401
-0.933801
-0.950977
-0.961564
-0.968368
-0.972587
-0.974608
-0.975323
-0.974485
-0.972224
-0.968186
-0.962968
-0.950524
-0.932548
-0.901278
-0.839043
-0.678252
-0.675174
-0.841864
-0.903407
-0.933807
-0.950984
-0.96157
-0.968375
-0.972594
-0.974615
-0.97533
-0.974492
-0.972233
-0.968194
-0.962975
-0.95053
-0.932554
-0.901284
-0.839049
-0.678256
-0.675178
-0.84187
-0.903412
-0.933813
-0.95099
-0.961576
-0.968381
-0.9726
-0.974621
-0.975337
-0.974499
-0.97224
-0.968201
-0.962981
-0.950536
-0.93256
-0.901289
-0.839054
-0.67826
-0.675182
-0.841875
-0.903418
-0.933818
-0.950995
-0.961582
-0.968387
-0.972606
-0.974627
-0.975343
-0.974506
-0.972247
-0.968207
-0.962987
-0.950542
-0.932566
-0.901294
-0.839059
-0.678264
-0.675185
-0.841879
-0.903421
-0.933792
-0.950999
-0.961587
-0.968392
-0.972611
-0.974633
-0.975349
-0.974512
-0.972253
-0.968213
-0.962993
-0.950548
-0.932571
-0.9013
-0.839063
-0.678268
-0.675189
-0.841883
-0.903424
-0.93379
-0.951002
-0.961592
-0.968398
-0.972617
-0.97464
-0.97536
-0.974519
-0.972259
-0.968219
-0.962998
-0.950553
-0.932576
-0.901305
-0.839068
-0.678272
-0.675192
-0.841887
-0.903428
-0.933793
-0.951005
-0.961596
-0.968403
-0.972623
-0.974646
-0.975366
-0.974525
-0.972264
-0.968225
-0.963004
-0.950558
-0.932581
-0.90131
-0.839073
-0.678275
-0.675195
-0.841891
-0.903431
-0.933794
-0.95101
-0.961601
-0.968408
-0.972628
-0.974651
-0.975372
-0.974531
-0.97227
-0.96823
-0.963009
-0.950563
-0.932586
-0.901314
-0.839077
-0.678279
-0.675198
-0.841894
-0.903435
-0.933798
-0.951015
-0.961606
-0.968412
-0.972633
-0.974658
-0.975382
-0.974537
-0.972275
-0.968235
-0.963014
-0.950568
-0.932591
-0.901319
-0.839081
-0.678282
-0.675201
-0.841898
-0.903439
-0.933802
-0.951019
-0.961611
-0.968417
-0.972638
-0.974663
-0.975388
-0.974543
-0.972281
-0.96824
-0.963019
-0.950573
-0.932596
-0.901323
-0.839085
-0.678285
-0.675204
-0.841902
-0.903443
-0.933806
-0.951023
-0.961615
-0.968422
-0.972643
-0.974668
-0.975393
-0.974548
-0.972285
-0.968245
-0.963024
-0.950577
-0.9326
-0.901328
-0.839089
-0.678289
-0.675207
-0.841906
-0.903447
-0.93381
-0.951027
-0.961619
-0.968426
-0.972647
-0.974673
-0.975398
-0.974553
-0.97229
-0.968249
-0.963028
-0.950582
-0.932605
-0.901332
-0.839093
-0.678292
-0.67521