# vtk DataFile Version 2.0
OUTPUT by 3D-VPM
ASCII
DATASET UNSTRUCTURED_GRID
POINTS 1120 double
1.453798e+00	4.206640e-02	2.695654e-02
1.467200e+00	1.062350e+00	3.734957e-02
1.468633e+00	2.107777e+00	3.251029e-02
1.468713e+00	3.158746e+00	3.090005e-02
1.468691e+00	4.210888e+00	3.039189e-02
1.468689e+00	5.263349e+00	3.018068e-02
1.468686e+00	6.315914e+00	3.008789e-02
1.468677e+00	7.368507e+00	3.003863e-02
1.468671e+00	8.421112e+00	3.001500e-02
1.468680e+00	9.473520e+00	2.999920e-02
1.468681e+00	1.052647e+01	3.000016e-02
1.468667e+00	1.157890e+01	3.000937e-02
1.468676e+00	1.263149e+01	3.003642e-02
1.468685e+00	1.368409e+01	3.008360e-02
1.468687e+00	1.473666e+01	3.017125e-02
1.468688e+00	1.578913e+01	3.036733e-02
1.468704e+00	1.684132e+01	3.082532e-02
1.468663e+00	1.789249e+01	3.221372e-02
1.467367e+00	1.894115e+01	3.432009e-02
1.455686e+00	1.995543e+01	2.953358e-02
1.465612e+00	2.984545e-02	8.011081e-03
1.455636e+00	1.058369e+00	7.934485e-03
1.452684e+00	2.106555e+00	8.959663e-03
1.451930e+00	3.158309e+00	9.269299e-03
1.451726e+00	4.210747e+00	9.364015e-03
1.451635e+00	5.263289e+00	9.406364e-03
1.451603e+00	6.315865e+00	9.424145e-03
1.451594e+00	7.368464e+00	9.431483e-03
1.451591e+00	8.421078e+00	9.434650e-03
1.451619e+00	9.473514e+00	9.434324e-03
1.451619e+00	1.052648e+01	9.434170e-03
1.451590e+00	1.157893e+01	9.434768e-03
1.451593e+00	1.263154e+01	9.431589e-03
1.451602e+00	1.368414e+01	9.424529e-03
1.451631e+00	1.473671e+01	9.407663e-03
1.451715e+00	1.578926e+01	9.367582e-03
1.451899e+00	1.684170e+01	9.279433e-03
1.452546e+00	1.789351e+01	9.010435e-03
1.453842e+00	1.894218e+01	8.331243e-03
1.461771e+00	1.996179e+01	1.376749e-02
1.464387e+00	2.069862e-02	1.624383e-02
1.456841e+00	1.060175e+00	2.218910e-02
1.455014e+00	2.107161e+00	2.613374e-02
1.455547e+00	3.158433e+00	2.620556e-02
1.455753e+00	4.210736e+00	2.618371e-02
1.455848e+00	5.263258e+00	2.616775e-02
1.455892e+00	6.315843e+00	2.616167e-02
1.455913e+00	7.368451e+00	2.616000e-02
1.455923e+00	8.421069e+00	2.615978e-02
1.455949e+00	9.473522e+00	2.616085e-02
1.455949e+00	1.052648e+01	2.616075e-02
1.455924e+00	1.157893e+01	2.615942e-02
1.455914e+00	1.263155e+01	2.615976e-02
1.455893e+00	1.368416e+01	2.616113e-02
1.455851e+00	1.473675e+01	2.616636e-02
1.455761e+00	1.578927e+01	2.618038e-02
1.455570e+00	1.684161e+01	2.619872e-02
1.455104e+00	1.789308e+01	2.615516e-02
1.455482e+00	1.894168e+01	2.438750e-02
1.467744e+00	1.997542e+01	1.395369e-02
1.474621e+00	2.765331e-02	2.681959e-02
1.442253e+00	1.057615e+00	2.371621e-02
1.441319e+00	2.106204e+00	2.387942e-02
1.441475e+00	3.158178e+00	2.415753e-02
1.441553e+00	4.210641e+00	2.425622e-02
1.441591e+00	5.263213e+00	2.429693e-02
1.441611e+00	6.315820e+00	2.431637e-02
1.441622e+00	7.368438e+00	2.432650e-02
1.441627e+00	8.421061e+00	2.433211e-02
1.441653e+00	9.473518e+00	2.432890e-02
1.441653e+00	1.052648e+01	2.432877e-02
1.441627e+00	1.157894e+01	2.433208e-02
1.441622e+00	1.263156e+01	2.432669e-02
1.441612e+00	1.368418e+01	2.431677e-02
1.441592e+00	1.473679e+01	2.429782e-02
1.441554e+00	1.578936e+01	2.425837e-02
1.441477e+00	1.684183e+01	2.416366e-02
1.441337e+00	1.789382e+01	2.390835e-02
1.441716e+00	1.894319e+01	2.382429e-02
1.475720e+00	1.996742e+01	2.371339e-02
1.451607e+00	2.271548e-02	2.951545e-02
1.472496e+00	1.054725e+00	2.864346e-02
1.473942e+00	2.105699e+00	2.279431e-02
1.473998e+00	3.158027e+00	2.168860e-02
1.474020e+00	4.210581e+00	2.138157e-02
1.474026e+00	5.263185e+00	2.125031e-02
1.474035e+00	6.315804e+00	2.119388e-02
1.474043e+00	7.368429e+00	2.116879e-02
1.474048e+00	8.421055e+00	2.115630e-02
1.474075e+00	9.473515e+00	2.116197e-02
1.474075e+00	1.052648e+01	2.116223e-02
1.474048e+00	1.157894e+01	2.115575e-02
1.474043e+00	1.263157e+01	2.116805e-02
1.474035e+00	1.368420e+01	2.119223e-02
1.474026e+00	1.473682e+01	2.124589e-02
1.474019e+00	1.578942e+01	2.136980e-02
1.473999e+00	1.684198e+01	2.165268e-02
1.473954e+00	1.789434e+01	2.263553e-02
1.473249e+00	1.894551e+01	2.600093e-02
1.452197e+00	1.997653e+01	3.178894e-02
1.439387e+00	1.979113e-02	3.799053e-02
1.444414e+00	1.055467e+00	5.343241e-02
1.447491e+00	2.105799e+00	5.339009e-02
1.448141e+00	3.158055e+00	5.335538e-02
1.448344e+00	4.210592e+00	5.334849e-02
1.448433e+00	5.263190e+00	5.334352e-02
1.448476e+00	6.315807e+00	5.334286e-02
1.448497e+00	7.368431e+00	5.334381e-02
1.448508e+00	8.421057e+00	5.334509e-02
1.448535e+00	9.473514e+00	5.334762e-02
1.448535e+00	1.052649e+01	5.334745e-02
1.448508e+00	1.157894e+01	5.334478e-02
1.448498e+00	1.263157e+01	5.334381e-02
1.448477e+00	1.368419e+01	5.334278e-02
1.448435e+00	1.473681e+01	5.334312e-02
1.448349e+00	1.578941e+01	5.334737e-02
1.448159e+00	1.684195e+01	5.335278e-02
1.447577e+00	1.789424e+01	5.338884e-02
1.445691e+00	1.894531e+01	5.399665e-02
1.439089e+00	1.997838e+01	4.029328e-02
1.426458e+00	2.210311e-02	3.878777e-02
1.422758e+00	1.055087e+00	6.093973e-02
1.424399e+00	2.105746e+00	6.223239e-02
1.424803e+00	3.158041e+00	6.243684e-02
1.424937e+00	4.210587e+00	6.249894e-02
1.424997e+00	5.263188e+00	6.252436e-02
1.425026e+00	6.315806e+00	6.253731e-02
1.425041e+00	7.368430e+00	6.254459e-02
1.425048e+00	8.421056e+00	6.254887e-02
1.425076e+00	9.473499e+00	6.255163e-02
1.425076e+00	1.052650e+01	6.255177e-02
1.425048e+00	1.157894e+01	6.254873e-02
1.425042e+00	1.263157e+01	6.254387e-02
1.425027e+00	1.368419e+01	6.253596e-02
1.424998e+00	1.473681e+01	6.252158e-02
1.424940e+00	1.578941e+01	6.249246e-02
1.424815e+00	1.684196e+01	6.241781e-02
1.424448e+00	1.789428e+01	6.215613e-02
1.423053e+00	1.894552e+01	6.131651e-02
1.425391e+00	1.997703e+01	3.922018e-02
1.415238e+00	2.076236e-02	3.547008e-02
1.404073e+00	1.054872e+00	6.320057e-02
1.404830e+00	2.105712e+00	6.478115e-02
1.405131e+00	3.158032e+00	6.503263e-02
1.405231e+00	4.210583e+00	6.511245e-02
1.405276e+00	5.263186e+00	6.514643e-02
1.405298e+00	6.315805e+00	6.516339e-02
1.405309e+00	7.368430e+00	6.517261e-02
1.405314e+00	8.421056e+00	6.517775e-02
1.405342e+00	9.473507e+00	6.518072e-02
1.405342e+00	1.052649e+01	6.518112e-02
1.405314e+00	1.157894e+01	6.517763e-02
1.405310e+00	1.263157e+01	6.517116e-02
1.405301e+00	1.368420e+01	6.516073e-02
1.405282e+00	1.473681e+01	6.514112e-02
1.405245e+00	1.578942e+01	6.510010e-02
1.405174e+00	1.684197e+01	6.499576e-02
1.405013e+00	1.789431e+01	6.461844e-02
1.404930e+00	1.894562e+01	6.271614e-02
1.414513e+00	1.997912e+01	3.642137e-02
1.403815e+00	1.652555e-02	3.647370e-02
1.386992e+00	1.054737e+00	6.200449e-02
1.387253e+00	2.105691e+00	6.353902e-02
1.387531e+00	3.158025e+00	6.380907e-02
1.387611e+00	4.210581e+00	6.389720e-02
1.387645e+00	5.263185e+00	6.393470e-02
1.387661e+00	6.315804e+00	6.395323e-02
1.387670e+00	7.368429e+00	6.396319e-02
1.387673e+00	8.421056e+00	6.396877e-02
1.387701e+00	9.473516e+00	6.397195e-02
1.387700e+00	1.052648e+01	6.397230e-02
1.387673e+00	1.157894e+01	6.396862e-02
1.387672e+00	1.263157e+01	6.396177e-02
1.387667e+00	1.368420e+01	6.395068e-02
1.387656e+00	1.473682e+01	6.392972e-02
1.387638e+00	1.578942e+01	6.388570e-02
1.387612e+00	1.684198e+01	6.377521e-02
1.387618e+00	1.789432e+01	6.338096e-02
1.388599e+00	1.894572e+01	6.139248e-02
1.403843e+00	1.998326e+01	3.571537e-02
1.392329e+00	1.894095e-02	3.706387e-02
1.371510e+00	1.054623e+00	5.799669e-02
1.371492e+00	2.105673e+00	5.940111e-02
1.371748e+00	3.158020e+00	5.969749e-02
1.371802e+00	4.210579e+00	5.979151e-02
1.371825e+00	5.263184e+00	5.983038e-02
1.371835e+00	6.315804e+00	5.984924e-02
1.371840e+00	7.368429e+00	5.985920e-02
1.371842e+00	8.421056e+00	5.986502e-02
1.371872e+00	9.473527e+00	5.986771e-02
1.371872e+00	1.052647e+01	5.986771e-02
1.371843e+00	1.157894e+01	5.986482e-02
1.371844e+00	1.263157e+01	5.985858e-02
1.371841e+00	1.368420e+01	5.984812e-02
1.371837e+00	1.473682e+01	5.982839e-02
1.371830e+00	1.578942e+01	5.978741e-02
1.371832e+00	1.684198e+01	5.968713e-02
1.371898e+00	1.789433e+01	5.934589e-02
1.373055e+00	1.894577e+01	5.789250e-02
1.392413e+00	1.998242e+01	3.689635e-02
1.383332e+00	1.960580e-02	3.203887e-02
1.359006e+00	1.054714e+00	5.138843e-02
1.358006e+00	2.105665e+00	5.281962e-02
1.357878e+00	3.158017e+00	5.320949e-02
1.357848e+00	4.210578e+00	5.331447e-02
1.357841e+00	5.263184e+00	5.335516e-02
1.357839e+00	6.315804e+00	5.337421e-02
1.357838e+00	7.368429e+00	5.338402e-02
1.357835e+00	8.421056e+00	5.338994e-02
1.357859e+00	9.473511e+00	5.339373e-02
1.357860e+00	1.052649e+01	5.339351e-02
1.357835e+00	1.157894e+01	5.339015e-02
1.357836e+00	1.263157e+01	5.338515e-02
1.357835e+00	1.368420e+01	5.337640e-02
1.357834e+00	1.473682e+01	5.335969e-02
1.357832e+00	1.578942e+01	5.332532e-02
1.357833e+00	1.684198e+01	5.324356e-02
1.357872e+00	1.789433e+01	5.296972e-02
1.358746e+00	1.894574e+01	5.213375e-02
1.383202e+00	1.998093e+01	3.224082e-02
1.374089e+00	1.757432e-02	2.751638e-02
1.346258e+00	1.054677e+00	4.263061e-02
1.347393e+00	2.105678e+00	4.414614e-02
1.346205e+00	3.158019e+00	4.456768e-02
1.345902e+00	4.210578e+00	4.467813e-02
1.345799e+00	5.263183e+00	4.471801e-02
1.345752e+00	6.315803e+00	4.473629e-02
1.345728e+00	7.368429e+00	4.474535e-02
1.345712e+00	8.421056e+00	4.474994e-02
1.345727e+00	9.473512e+00	4.475301e-02
1.345725e+00	1.052649e+01	4.475398e-02
1.345696e+00	1.157894e+01	4.475197e-02
1.345692e+00	1.263157e+01	4.474822e-02
1.345688e+00	1.368420e+01	4.474195e-02
1.345683e+00	1.473682e+01	4.472915e-02
1.345676e+00	1.578942e+01	4.470178e-02
1.345652e+00	1.684198e+01	4.463297e-02
1.345671e+00	1.789433e+01	4.439708e-02
1.347044e+00	1.894568e+01	4.417281e-02
1.373841e+00	1.998273e+01	2.807912e-02
1.363412e+00	1.553029e-02	2.398426e-02
1.343002e+00	1.051529e+00	2.306689e-02
1.336231e+00	2.105440e+00	2.576348e-02
1.334818e+00	3.158000e+00	3.130674e-02
1.335452e+00	4.210573e+00	3.235818e-02
1.335684e+00	5.263182e+00	3.267764e-02
1.335777e+00	6.315803e+00	3.280852e-02
1.335823e+00	7.368428e+00	3.287177e-02
1.335843e+00	8.421056e+00	3.290039e-02
1.335974e+00	9.473512e+00	3.297371e-02
1.335988e+00	1.052649e+01	3.299124e-02
1.335878e+00	1.157894e+01	3.294645e-02
1.335889e+00	1.263157e+01	3.295390e-02
[...]
CELL_DATA 1045
SCALARS Mu double 1
LOOKUP_TABLE default
-2.66312e-11
-3.10664e-11
-3.18437e-11
-3.20552e-11
-3.21323e-11
-3.21718e-11
-3.21894e-11
-3.2205e-11
-3.22268e-11
-3.22102e-11
-3.22278e-11
-3.22073e-11
-3.21913e-11
-3.21714e-11
-3.21368e-11
-3.20551e-11
-3.18426e-11
-3.10702e-11
-2.66293e-11
0.00415121
0.00443406
0.00448509
0.00449967
0.00450535
0.00450804
0.00450948
0.00451029
0.00451071
0.00451085
0.00451071
0.00451029
0.00450948
0.00450804
0.00450535
0.00449967
0.00448509
0.00443406
0.00415121
0.00559784
0.00596326
0.00603655
0.00605728
0.0060653
0.00606909
0.00607111
0.00607224
0.0060729
0.00607312
0.00607289
0.00607226
0.00607116
0.00606918
0.00606547
0.00605767
0.0060378
0.00596923
0.00564305
0.00640968
0.00693568
0.00702847
0.00705412
0.00706391
0.0070685
0.00707094
0.00707229
0.00707316
0.0070734
0.00707305
0.00707236
0.00707106
0.00706873
0.00706438
0.00705529
0.00703244
0.00695572
0.00671908
0.0069648
0.00755651
0.00765777
0.00768596
0.00769675
0.00770181
0.0077045
0.00770599
0.00770694
0.00770723
0.00770685
0.00770605
0.0077046
0.00770201
0.00769715
0.00768698
0.00766127
0.00757311
0.00733451
0.00726833
0.00788298
0.00798796
0.00801715
0.00802839
0.00803369
0.00803651
0.00803807
0.00803905
0.00803939
0.008039
0.0080381
0.00803655
0.00803377
0.00802854
0.00801754
0.00798942
0.00788835
0.007577
0.00733533
0.00794558
0.00804937
0.0080786
0.00808994
0.00809532
0.00809817
0.00809976
0.00810073
0.00810112
0.00810073
0.00809976
0.00809816
0.00809528
0.00808987
0.00807842
0.00804897
0.00794052
0.00752251
0.00717642
0.00775941
0.00786198
0.00789115
0.00790248
0.00790784
0.00791069
0.00791227
0.00791325
0.00791363
0.00791323
0.00791227
0.00791067
0.00790781
0.00790243
0.00789104
0.00786183
0.00775361
0.00731422
0.00680116
0.00734184
0.00744473
0.00747379
0.00748499
0.00749026
0.00749305
0.0074946
0.00749559
0.00749595
0.00749554
0.00749464
0.0074931
0.00749035
0.00748519
0.00747431
0.00744667
0.00734469
0.00694306
0.00622373
0.00671545
0.006818
0.00684641
0.00685723
0.0068623
0.00686497
0.00686644
0.00686742
0.00686774
0.00686733
0.00686651
0.00686508
0.00686251
0.0068577
0.00684762
0.00682229
0.0067289
0.00638513
0.00546651
0.0059058
0.00600398
0.0060307
0.00604079
0.00604548
0.00604795
0.0060493
0.00605022
0.00605051
0.00605011
0.00604939
0.00604809
0.00604576
0.00604139
0.00603228
0.00600961
0.00592591
0.00564692
0.00454778
0.00493779
0.00502658
0.00505052
0.00505952
0.00506368
0.00506586
0.00506705
0.00506788
0.00506812
0.00506775
0.00506713
0.00506598
0.00506393
0.00506008
0.00505208
0.00503231
0.00495926
0.00474823
0.00347496
0.00383336
0.00391132
0.00393196
0.00393968
0.00394323
0.00394508
0.00394609
0.00394679
0.003947
0.00394669
0.00394617
0.0039452
0.00394347
0.00394023
0.00393349
0.00391693
0.00385573
0.00371128
0.00229078
0.0026212
0.00268695
0.00270386
0.00271013
0.00271301
0.0027145
0.00271531
0.00271587
0.00271604
0.0027158
0.00271539
0.00271464
0.00271327
0.00271071
0.0027054
0.00269243
0.00264445
0.00256079
0.00105664
0.00133609
0.00138515
0.0013975
0.00140205
0.00140412
0.00140519
0.00140577
0.00140617
0.0014063
0.00140612
0.00140584
0.00140531
0.00140435
0.00140255
0.00139881
0.00138982
0.00135657
0.00132289
-0.000209143
6.43864e-06
3.77109e-05
4.5225e-05
4.79346e-05
4.91465e-05
4.97616e-05
5.00891e-05
5.03252e-05
5.03915e-05
5.02853e-05
5.01526e-05
4.9865e-05
4.93396e-05
4.83492e-05
4.63025e-05
4.16187e-05
2.43149e-05
3.41971e-05
-0.00147823
-0.00133624
-0.00132229
-0.00131959
-0.00131872
-0.00131838
-0.00131822
-0.00131815
-0.00131807
-0.00131807
-0.0013181
-0.00131809
-0.00131812
-0.00131819
-0.00131834
-0.00131862
-0.0013188
-0.00131969
-0.00126034
-0.0027229
-0.00265853
-0.00266119
-0.0026632
-0.00266413
-0.00266463
-0.00266492
-0.0026651
-0.00266518
-0.00266523
-0.00266519
-0.00266503
-0.00266481
-0.00266443
-0.00266372
-0.00266221
-0.00265782
-0.00264222
-0.00252414
-0.0039124
-0.00392742
-0.00394586
-0.00395235
-0.00395502
-0.00395634
-0.00395707
-0.00395749
-0.00395773
-0.00395783
-0.00395772
-0.0039574
-0.00395693
-0.0039561
-0.00395456
-0.00395128
-0.00394238
-0.0039105
-0.00373133
-0.00501246
-0.00511084
-0.0051444
-0.00515517
-0.0051595
-0.00516161
-0.00516276
-0.00516341
-0.00516379
-0.00516396
-0.00516378
-0.00516331
-0.0051626
-0.00516134
-0.005159
-0.00515403
-0.00514076
-0.00509319
-0.00485636
-0.00599743
-0.00617912
-0.00622714
-0.00624195
-0.00624786
-0.00625073
-0.00625228
-0.00625316
-0.00625368
-0.0062539
-0.00625367
-0.00625306
-0.00625214
-0.00625048
-0.00624739
-0.00624084
-0.00622349
-0.00616118
-0.00587251
-0.00684815
-0.00710615
-0.00716781
-0.00718629
-0.00719359
-0.00719711
-0.007199
-0.00720007
-0.0072007
-0.00720097
-0.00720069
-0.00719995
-0.00719882
-0.00719681
-0.00719304
-0.00718506
-0.00716403
-0.00708828
-0.00675498
-0.00754625
-0.00786968
-0.00794355
-0.00796506
-0.00797352
-0.00797758
-0.00797977
-0.00798099
-0.00798172
-0.00798204
-0.0079817
-0.00798085
-0.00797955
-0.00797723
-0.00797288
-0.00796367
-0.00793946
-0.00785187
-0.00748208
-0.00807533
-0.0084516
-0.00853532
-0.00855931
-0.00856871
-0.00857322
-0.00857565
-0.008577
-0.00857781
-0.00857816
-0.00857778
-0.00857685
-0.0085754
-0.00857283
-0.008568
-0.00855777
-0.00853098
-0.00843343
-0.00803566
-0.00842295
-0.00883826
-0.00892879
-0.00895469
-0.00896483
-0.00896968
-0.00897229
-0.00897375
-0.00897462
-0.00897499
-0.00897458
-0.00897358
-0.00897202
-0.00896926
-0.00896407
-0.00895308
-0.00892435
-0.008819
-0.00840153
-0.00858194
-0.0090205
-0.00911455
-0.00914177
-0.00915241
-0.0091575
-0.00916024
-0.00916177
-0.00916267
-0.00916306
-0.00916263
-0.00916158
-0.00915995
-0.00915706
-0.00915164
-0.00914015
-0.00911018
-0.00899937
-0.00857001
-0.00855017
-0.00899359
-0.00908844
-0.00911622
-0.00912707
-0.00913227
-0.00913505
-0.00913661
-0.00913753
-0.00913793
-0.00913747
-0.00913641
-0.00913475
-0.00913181
-0.00912628
-0.00911457
-0.00908405
-0.00897033
-0.00853641
-0.00832804
-0.0087578
-0.00885102
-0.00887865
-0.00888943
-0.00889459
-0.00889735
-0.00889889
-0.00889981
-0.0089002
-0.00889973
-0.00889868
-0.00889701
-0.00889409
-0.00888859
-0.00887694
-0.0088466
-0.00873265
-0.0083014
-0.00791337
-0.00831811
-0.00840773
-0.00843456
-0.00844501
-0.00844999
-0.00845266
-0.00845415
-0.00845504
-0.00845541
-0.00845494
-0.00845393
-0.00845231
-0.00844947
-0.00844414
-0.00843284
-0.00840343
-0.00829202
-0.00787076
-0.0073058
-0.00768353
-0.00776858
-0.00779417
-0.0078041
-0.00780881
-0.00781132
-0.00781271
-0.00781357
-0.0078139
-0.00781344
-0.0078125
-0.00781098
-0.00780829
-0.00780327
-0.00779262
-0.00776491
-0.00765902
-0.00726026
-0.0065271
-0.00686922
-0.00694837
-0.00697229
-0.00698151
-0.00698586
-0.00698817
-0.00698945
-0.00699026
-0.00699055
-0.00699011
-0.00698926
-0.00698788
-0.00698542
-0.00698084
-0.00697113
-0.00694588
-0.00684858
-0.00648654
-0.00559281
-0.0058951
-0.00596642
-0.00598805
-0.00599634
-0.00600023
-0.00600229
-0.00600342
-0.00600415
-0.00600441
-0.006004
-0.00600326
-0.00600204
-0.00599987
-0.00599583
-0.00598729
-0.00596509
-0.00587837
-0.00556886
-0.00451399
-0.00478328
-0.00484533
-0.00486424
-0.00487142
-0.00487476
-0.00487651
-0.00487748
-0.00487811
-0.00487832
-0.00487795
-0.00487732
-0.00487629
-0.00487445
-0.00487105
-0.00486385
-0.00484524
-0.00477022
-0.0045218
-0.00332803
-0.00355956
-0.0036111
-0.00362692
-0.00363288
-0.00363562
-0.00363705
-0.00363782
-0.00363835
-0.0036385
-0.00363817
-0.00363768
-0.00363686
-0.0036354
-0.00363269
-0.00362701
-0.00361253
-0.00355134
-0.00336813
-0.00207076
-0.00225238
-0.00229269
-0.00230512
-0.00230972
-0.0023118
-0.00231287
-0.00231344
-0.00231385
-0.00231395
-0.00231369
-0.00231335
-0.00231276
-0.00231172
-0.0023098
-0.0023058
-0.00229553
-0.00224973
-0.00213592
-0.000776699
-0.000894077
-0.000921544
-0.000930079
-0.000933128
-0.000934471
-0.000935143
-0.000935488
-0.000935764
-0.000935816
-0.000935625
-0.000935443
-0.000935106
-0.000934522
-0.000933433
-0.000931194
-0.000925232
-0.000895797
-0.000854141
0.00052738
0.00048213
0.000469568
0.000465596
0.000464304
0.000463782
0.000463543
0.000463435
0.000463306
0.000463302
0.00046341
0.000463432
0.000463503
0.000463627
0.000463865
0.000464347
0.000465953
0.00047865
0.000447458
0.00181451
0.00184267
0.00184762
0.00184851
0.00184913
0.00184953
0.00184979
0.00184997
0.00185003
0.0018501
0.00185014
0.00185002
0.00184984
0.00184952
0.00184893
0.0018477
0.00184496
0.00184104
0.00173881
0.00305583
0.00315603
0.00317975
0.00318589
0.00318855
0.00318992
0.0031907
0.00319116
0.00319141
0.00319154
0.0031915
0.00319124
0.00319083
0.00319007
0.00318868
0.00318581
0.00317889
0.00315904
0.00298868
0.00422191
0.00439191
0.00443444
0.004446
0.00445066
0.00445294
0.0044542
0.00445492
0.00445533
0.00445551
0.00445539
0.00445498
0.00445433
0.00445315
0.00445098
0.00444652
0.00443558
0.00440058
0.00416704
0.00528459
0.00552203
0.00558198
0.00559866
0.00560517
0.0056083
0.00560998
0.00561094
0.00561151
0.00561173
0.00561154
0.00561099
0.00561012
0.00560855
0.00560567
0.00559975
0.00558515
0.00553646
0.00524716
0.00621739
0.00652159
0.00659499
0.00661625
0.00662446
0.00662836
0.00663044
0.00663161
0.00663231
0.00663258
0.00663231
0.00663164
0.00663056
0.00662863
0.00662508
0.00661778
0.00659981
0.00653886
0.00620287
0.00699912
0.00736574
0.00744945
0.0074746
0.00748428
0.00748885
0.00749128
0.00749263
0.00749346
0.00749376
0.00749343
0.00749265
0.00749139
0.00748912
0.00748498
0.00747642
0.00745544
0.00738385
0.00701112
0.00761275
0.00803209
0.00812521
0.00815344
0.00816429
0.00816942
0.00817214
0.00817366
0.0081746
0.00817493
0.00817455
0.00817368
0.00817225
0.0081697
0.00816503
0.00815538
0.00813179
0.00805111
0.00765184
0.00804608
0.00850495
0.0086054
0.00863651
0.00864847
0.00865412
0.00865711
0.00865878
0.00865981
0.00866018
0.00865976
0.00865882
0.00865726
0.00865449
0.00864939
0.00863885
0.00861311
0.00852502
0.0081093
0.0082904
0.00877521
0.00888004
0.00891328
0.00892611
0.00893208
0.00893521
0.00893695
0.00893803
0.00893841
0.00893795
0.00893697
0.00893532
0.00893237
0.00892694
0.00891573
0.00888839
0.00879475
0.00837075
0.00833933
0.00883425
0.00894278
0.00897763
0.00899079
0.00899689
0.00900009
0.00900186
0.00900297
0.00900336
0.00900288
0.00900187
0.00900016
0.0089971
0.00899146
0.00897983
0.00895146
0.00885402
0.00842886
0.00819183
0.00868544
0.00879284
0.00882769
0.00884106
0.00884726
0.00885054
0.00885234
0.00885348
0.0088539
0.00885342
0.00885242
0.0088507
0.00884761
0.0088419
0.00883014
0.00880142
0.00870239
0.00828204
0.00784623
0.00833266
0.00843568
0.00846853
0.00848147
0.0084875
0.0084907
0.00849246
0.00849359
0.008494
0.00849352
0.00849253
0.00849084
0.00848778
0.00848212
0.00847045
0.0084421
0.00834473
0.00793305
0.00731158
0.0077802
0.00787806
0.00790822
0.00792045
0.00792614
0.00792915
0.00793082
0.00793188
0.00793226
0.00793179
0.00793083
0.00792921
0.00792628
0.00792086
0.00790971
0.0078827
0.00778977
0.00739202
0.00660245
0.00703988
0.00713286
0.00715984
0.00717117
0.00717643
0.0071792
0.00718072
0.00718167
0.00718202
0.00718158
0.00718066
0.00717914
0.0071764
0.00717134
0.00716093
0.00713575
0.00704909
0.00667779
0.0057356
0.00613306
0.00621734
0.0062408
0.0062511
0.00625586
0.00625832
0.00625969
0.00626045
0.00626084
0.00626053
0.0062596
0.00625821
0.00625573
0.00625115
0.00624169
0.00621876
0.00614098
0.00580711
0.00472889
0.00507846
0.00515423
0.00517371
0.00518228
0.00518629
0.00518834
0.00518948
0.00518994
0.00519037
0.00519025
0.0051893
0.00518804
0.00518587
0.00518184
0.00517349
0.0051532
0.00508646
0.00479941
0.0036079
0.00390061
0.00396644
0.00398275
0.00398944
0.00399251
0.00399408
0.00399497
0.00399532
0.00399563
0.0039955
0.00399466
0.00399358
0.00399175
0.00398841
0.00398157
0.00396518
0.00391142
0.00367818

