# vtk DataFile Version 2.0
OUTPUT by 3D-VPM
ASCII
DATASET UNSTRUCTURED_GRID
POINTS 820 double
1.319470e+00	2.870879e-02	3.004246e-04
1.317024e+00	1.059219e+00	3.088918e-02
1.319594e+00	2.106643e+00	3.138664e-02
1.320086e+00	3.158292e+00	3.140175e-02
1.320234e+00	4.210682e+00	3.141408e-02
1.320299e+00	5.263232e+00	3.141744e-02
1.320329e+00	6.315829e+00	3.142094e-02
1.320344e+00	7.368443e+00	3.142416e-02
1.320351e+00	8.421065e+00	3.142662e-02
1.320369e+00	9.473509e+00	3.142592e-02
1.320369e+00	1.052649e+01	3.142579e-02
1.320351e+00	1.157894e+01	3.142634e-02
1.320344e+00	1.263156e+01	3.142408e-02
1.320330e+00	1.368417e+01	3.142070e-02
1.320300e+00	1.473677e+01	3.141673e-02
1.320237e+00	1.578933e+01	3.141223e-02
1.320097e+00	1.684174e+01	3.139679e-02
1.319665e+00	1.789353e+01	3.136250e-02
1.317780e+00	1.894378e+01	3.077828e-02
1.318785e+00	1.997069e+01	7.426298e-04
1.334823e+00	2.038137e-02	6.660111e-03
1.327890e+00	1.058713e+00	9.730606e-03
1.325283e+00	2.106718e+00	9.977699e-03
1.324741e+00	3.158355e+00	1.004444e-02
1.324597e+00	4.210764e+00	1.006616e-02
1.324531e+00	5.263297e+00	1.007612e-02
1.324509e+00	6.315869e+00	1.008023e-02
1.324504e+00	7.368467e+00	1.008182e-02
1.324503e+00	8.421080e+00	1.008246e-02
1.324524e+00	9.473519e+00	1.008392e-02
1.324524e+00	1.052648e+01	1.008367e-02
1.324502e+00	1.157892e+01	1.008234e-02
1.324504e+00	1.263153e+01	1.008200e-02
1.324508e+00	1.368413e+01	1.008063e-02
1.324528e+00	1.473671e+01	1.007711e-02
1.324589e+00	1.578924e+01	1.006871e-02
1.324717e+00	1.684167e+01	1.005229e-02
1.325173e+00	1.789340e+01	1.001700e-02
1.326298e+00	1.894226e+01	9.905537e-03
1.332298e+00	1.997743e+01	5.800093e-03
1.330912e+00	1.641194e-02	2.756326e-02
1.309760e+00	1.056324e+00	1.198126e-02
1.308707e+00	2.105927e+00	1.320486e-02
1.308709e+00	3.158091e+00	1.364937e-02
1.308736e+00	4.210605e+00	1.379079e-02
1.308750e+00	5.263196e+00	1.385226e-02
1.308759e+00	6.315810e+00	1.387985e-02
1.308765e+00	7.368433e+00	1.389285e-02
1.308768e+00	8.421059e+00	1.389966e-02
1.308789e+00	9.473524e+00	1.389627e-02
1.308789e+00	1.052648e+01	1.389605e-02
1.308768e+00	1.157894e+01	1.389979e-02
1.308766e+00	1.263157e+01	1.389330e-02
1.308760e+00	1.368419e+01	1.388083e-02
1.308750e+00	1.473680e+01	1.385467e-02
1.308736e+00	1.578940e+01	1.379683e-02
1.308708e+00	1.684192e+01	1.366681e-02
1.308691e+00	1.789413e+01	1.328740e-02
1.309155e+00	1.894516e+01	1.283693e-02
1.336567e+00	1.998041e+01	2.351715e-02
1.323752e+00	1.989657e-02	1.544967e-02
1.314072e+00	1.055649e+00	1.962115e-03
1.313094e+00	2.105820e+00	7.102206e-04
1.312829e+00	3.158063e+00	5.874541e-04
1.312754e+00	4.210595e+00	5.682999e-04
1.312723e+00	5.263191e+00	5.577374e-04
1.312711e+00	6.315808e+00	5.555571e-04
1.312707e+00	7.368431e+00	5.565533e-04
1.312704e+00	8.421057e+00	5.582795e-04
1.312730e+00	9.473522e+00	5.547759e-04
1.312730e+00	1.052648e+01	5.545892e-04
1.312704e+00	1.157894e+01	5.579411e-04
1.312706e+00	1.263157e+01	5.567392e-04
1.312711e+00	1.368419e+01	5.557475e-04
1.312721e+00	1.473681e+01	5.576627e-04
1.312750e+00	1.578941e+01	5.676503e-04
1.312818e+00	1.684194e+01	5.859141e-04
1.313055e+00	1.789419e+01	6.960124e-04
1.313391e+00	1.894470e+01	1.463864e-03
1.324679e+00	1.997931e+01	1.675736e-02
1.314984e+00	1.430264e-02	2.785887e-02
1.327934e+00	1.054403e+00	3.281438e-02
1.330900e+00	2.105599e+00	3.060093e-02
1.331378e+00	3.157995e+00	3.021088e-02
1.331524e+00	4.210568e+00	3.010714e-02
1.331584e+00	5.263178e+00	3.006320e-02
1.331615e+00	6.315801e+00	3.004452e-02
1.331632e+00	7.368427e+00	3.003633e-02
1.331642e+00	8.421055e+00	3.003220e-02
1.331662e+00	9.473520e+00	3.003592e-02
1.331661e+00	1.052648e+01	3.003596e-02
1.331641e+00	1.157895e+01	3.003198e-02
1.331633e+00	1.263157e+01	3.003613e-02
1.331616e+00	1.368420e+01	3.004409e-02
1.331587e+00	1.473682e+01	3.006197e-02
1.331529e+00	1.578943e+01	3.010377e-02
1.331396e+00	1.684201e+01	3.020042e-02
1.330986e+00	1.789442e+01	3.055893e-02
1.329467e+00	1.894577e+01	3.199804e-02
1.316055e+00	1.998411e+01	2.901490e-02
1.301595e+00	1.803899e-02	2.834384e-02
1.303728e+00	1.054587e+00	4.436644e-02
1.305466e+00	2.105628e+00	4.522730e-02
1.305824e+00	3.158004e+00	4.537582e-02
1.305939e+00	4.210571e+00	4.542254e-02
1.305989e+00	5.263180e+00	4.544136e-02
1.306014e+00	6.315802e+00	4.545097e-02
1.306027e+00	7.368428e+00	4.545643e-02
1.306033e+00	8.421055e+00	4.545973e-02
1.306054e+00	9.473518e+00	4.546184e-02
1.306054e+00	1.052648e+01	4.546167e-02
1.306033e+00	1.157894e+01	4.545959e-02
1.306027e+00	1.263157e+01	4.545657e-02
1.306014e+00	1.368420e+01	4.545122e-02
1.305990e+00	1.473682e+01	4.544184e-02
1.305941e+00	1.578943e+01	4.542370e-02
1.305831e+00	1.684200e+01	4.537985e-02
1.305499e+00	1.789440e+01	4.525351e-02
1.304363e+00	1.894586e+01	4.525222e-02
1.301657e+00	1.998123e+01	2.975952e-02
1.291173e+00	1.624034e-02	2.623794e-02
1.286870e+00	1.054341e+00	4.838780e-02
1.287746e+00	2.105589e+00	4.976732e-02
1.287965e+00	3.157994e+00	4.999780e-02
1.288041e+00	4.210567e+00	5.006878e-02
1.288075e+00	5.263178e+00	5.009861e-02
1.288092e+00	6.315801e+00	5.011349e-02
1.288101e+00	7.368427e+00	5.012159e-02
1.288106e+00	8.421055e+00	5.012617e-02
1.288127e+00	9.473504e+00	5.012821e-02
1.288127e+00	1.052650e+01	5.012836e-02
1.288106e+00	1.157894e+01	5.012611e-02
1.288102e+00	1.263157e+01	5.012098e-02
1.288093e+00	1.368420e+01	5.011236e-02
1.288076e+00	1.473682e+01	5.009634e-02
1.288042e+00	1.578943e+01	5.006346e-02
1.287969e+00	1.684201e+01	4.998183e-02
1.287758e+00	1.789443e+01	4.970075e-02
1.286884e+00	1.894602e+01	4.871529e-02
1.290772e+00	1.998305e+01	2.722265e-02
1.281162e+00	1.330082e-02	2.769793e-02
1.272171e+00	1.054182e+00	4.939634e-02
1.272522e+00	2.105562e+00	5.086719e-02
1.272684e+00	3.157986e+00	5.110800e-02
1.272741e+00	4.210564e+00	5.118595e-02
1.272766e+00	5.263177e+00	5.121947e-02
1.272779e+00	6.315800e+00	5.123627e-02
1.272785e+00	7.368427e+00	5.124541e-02
1.272788e+00	8.421055e+00	5.125048e-02
1.272810e+00	9.473512e+00	5.125242e-02
1.272810e+00	1.052649e+01	5.125279e-02
1.272788e+00	1.157895e+01	5.125043e-02
1.272786e+00	1.263157e+01	5.124423e-02
1.272780e+00	1.368420e+01	5.123411e-02
1.272769e+00	1.473682e+01	5.121513e-02
1.272749e+00	1.578944e+01	5.117569e-02
1.272709e+00	1.684202e+01	5.107685e-02
1.272627e+00	1.789445e+01	5.072547e-02
1.272619e+00	1.894610e+01	4.893442e-02
1.280866e+00	1.998640e+01	2.748724e-02
1.270820e+00	1.415357e-02	2.814842e-02
1.258864e+00	1.054058e+00	4.821599e-02
1.258925e+00	2.105541e+00	4.960277e-02
1.259063e+00	3.157980e+00	4.985679e-02
1.259104e+00	4.210562e+00	4.994105e-02
1.259122e+00	5.263176e+00	4.997704e-02
1.259131e+00	6.315799e+00	4.999498e-02
1.259136e+00	7.368426e+00	5.000473e-02
1.259138e+00	8.421055e+00	5.001023e-02
1.259160e+00	9.473522e+00	5.001213e-02
1.259159e+00	1.052648e+01	5.001240e-02
1.259138e+00	1.157895e+01	5.001015e-02
1.259137e+00	1.263157e+01	5.000375e-02
1.259134e+00	1.368420e+01	4.999322e-02
1.259128e+00	1.473682e+01	4.997353e-02
1.259118e+00	1.578944e+01	4.993276e-02
1.259105e+00	1.684202e+01	4.983170e-02
1.259117e+00	1.789447e+01	4.947816e-02
1.259711e+00	1.894620e+01	4.767204e-02
1.270882e+00	1.998602e+01	2.771294e-02
1.261351e+00	1.437407e-02	2.645783e-02
1.247063e+00	1.053958e+00	4.524143e-02
1.246939e+00	2.105522e+00	4.651286e-02
1.247001e+00	3.157974e+00	4.680463e-02
1.247018e+00	4.210559e+00	4.689720e-02
1.247026e+00	5.263174e+00	4.693549e-02
1.247031e+00	6.315799e+00	4.695427e-02
1.247033e+00	7.368426e+00	4.696434e-02
1.247033e+00	8.421055e+00	4.697032e-02
1.247056e+00	9.473533e+00	4.697199e-02
1.247055e+00	1.052647e+01	4.697188e-02
1.247033e+00	1.157895e+01	4.697021e-02
1.247034e+00	1.263157e+01	4.696427e-02
1.247032e+00	1.368420e+01	4.695416e-02
1.247029e+00	1.473683e+01	4.693534e-02
1.247025e+00	1.578944e+01	4.689697e-02
1.247024e+00	1.684203e+01	4.680441e-02
1.247057e+00	1.789448e+01	4.649295e-02
1.247663e+00	1.894626e+01	4.508210e-02
1.261508e+00	1.998627e+01	2.603082e-02
1.252513e+00	1.354625e-02	2.313547e-02
1.237123e+00	1.053934e+00	4.083100e-02
1.236785e+00	2.105509e+00	4.200777e-02
1.236632e+00	3.157970e+00	4.235175e-02
1.236605e+00	4.210558e+00	4.245113e-02
1.236598e+00	5.263174e+00	4.249073e-02
1.236596e+00	6.315798e+00	4.250974e-02
1.236595e+00	7.368426e+00	4.251980e-02
1.236593e+00	8.421055e+00	4.252603e-02
1.236613e+00	9.473518e+00	4.252817e-02
1.236613e+00	1.052648e+01	4.252775e-02
1.236592e+00	1.157895e+01	4.252596e-02
1.236593e+00	1.263157e+01	4.252077e-02
1.236592e+00	1.368420e+01	4.251155e-02
1.236590e+00	1.473683e+01	4.249445e-02
1.236587e+00	1.578944e+01	4.246003e-02
1.236584e+00	1.684203e+01	4.237939e-02
1.236604e+00	1.789449e+01	4.211151e-02
1.237018e+00	1.894626e+01	4.107855e-02
1.252421e+00	1.998694e+01	2.329762e-02
1.243091e+00	1.201046e-02	2.096395e-02
1.228182e+00	1.053885e+00	3.559872e-02
1.228376e+00	2.105494e+00	3.657511e-02
1.228125e+00	3.157966e+00	3.689480e-02
1.228078e+00	4.210556e+00	3.698507e-02
1.228066e+00	5.263173e+00	3.702077e-02
1.228061e+00	6.315798e+00	3.703781e-02
1.228059e+00	7.368426e+00	3.704678e-02
1.228056e+00	8.421055e+00	3.705233e-02
1.228076e+00	9.473518e+00	3.705416e-02
1.228076e+00	1.052648e+01	3.705371e-02
1.228055e+00	1.157895e+01	3.705215e-02
1.228055e+00	1.263157e+01	3.704750e-02
1.228054e+00	1.368420e+01	3.703919e-02
1.228052e+00	1.473683e+01	3.702385e-02
1.228050e+00	1.578944e+01	3.699294e-02
1.228044e+00	1.684203e+01	3.692101e-02
1.228066e+00	1.789451e+01	3.668124e-02
1.228384e+00	1.894626e+01	3.590099e-02
1.243154e+00	1.998785e+01	2.120138e-02
1.234385e+00	1.253478e-02	1.871029e-02
1.218648e+00	1.053638e+00	2.941359e-02
1.221221e+00	2.105467e+00	3.061120e-02
1.221474e+00	3.157961e+00	3.086843e-02
1.221516e+00	4.210554e+00	3.094361e-02
1.221533e+00	5.263172e+00	3.097370e-02
1.221542e+00	6.315797e+00	3.098808e-02
1.221547e+00	7.368425e+00	3.099564e-02
1.221548e+00	8.421054e+00	3.100027e-02
1.221570e+00	9.473519e+00	3.100183e-02
1.221572e+00	1.052648e+01	3.100144e-02
1.221553e+00	1.157895e+01	3.099985e-02
1.221554e+00	1.263157e+01	3.099556e-02
1.221554e+00	1.368420e+01	3.098808e-02
[...]
CELL_DATA 760
SCALARS Mu double 1
LOOKUP_TABLE default
-2.66312e-11
-3.10664e-11
-3.18437e-11
-3.20552e-11
-3.21323e-11
-3.21718e-11
-3.21894e-11
-3.2205e-11
-3.22268e-11
-3.22102e-11
-3.22278e-11
-3.22073e-11
-3.21913e-11
-3.21714e-11
-3.21368e-11
-3.20551e-11
-3.18426e-11
-3.10702e-11
-2.66293e-11
0.00415121
0.00443406
0.00448509
0.00449967
0.00450535
0.00450804
0.00450948
0.00451029
0.00451071
0.00451085
0.00451071
0.00451029
0.00450948
0.00450804
0.00450535
0.00449967
0.00448509
0.00443406
0.00415121
0.00559784
0.00596326
0.00603655
0.00605728
0.0060653
0.00606909
0.00607111
0.00607224
0.0060729
0.00607312
0.00607289
0.00607226
0.00607116
0.00606918
0.00606547
0.00605767
0.0060378
0.00596923
0.00564305
0.00640968
0.00693568
0.00702847
0.00705412
0.00706391
0.0070685
0.00707094
0.00707229
0.00707316
0.0070734
0.00707305
0.00707236
0.00707106
0.00706873
0.00706438
0.00705529
0.00703244
0.00695572
0.00671908
0.0069648
0.00755651
0.00765777
0.00768596
0.00769675
0.00770181
0.0077045
0.00770599
0.00770694
0.00770723
0.00770685
0.00770605
0.0077046
0.00770201
0.00769715
0.00768698
0.00766127
0.00757311
0.00733451
0.00726833
0.00788298
0.00798796
0.00801715
0.00802839
0.00803369
0.00803651
0.00803807
0.00803905
0.00803939
0.008039
0.0080381
0.00803655
0.00803377
0.00802854
0.00801754
0.00798942
0.00788835
0.007577
0.00733533
0.00794558
0.00804937
0.0080786
0.00808994
0.00809532
0.00809817
0.00809976
0.00810073
0.00810112
0.00810073
0.00809976
0.00809816
0.00809528
0.00808987
0.00807842
0.00804897
0.00794052
0.00752251
0.00717642
0.00775941
0.00786198
0.00789115
0.00790248
0.00790784
0.00791069
0.00791227
0.00791325
0.00791363
0.00791323
0.00791227
0.00791067
0.00790781
0.00790243
0.00789104
0.00786183
0.00775361
0.00731422
0.00680116
0.00734184
0.00744473
0.00747379
0.00748499
0.00749026
0.00749305
0.0074946
0.00749559
0.00749595
0.00749554
0.00749464
0.0074931
0.00749035
0.00748519
0.00747431
0.00744667
0.00734469
0.00694306
0.00622373
0.00671545
0.006818
0.00684641
0.00685723
0.0068623
0.00686497
0.00686644
0.00686742
0.00686774
0.00686733
0.00686651
0.00686508
0.00686251
0.0068577
0.00684762
0.00682229
0.0067289
0.00638513
0.00546651
0.0059058
0.00600398
0.0060307
0.00604079
0.00604548
0.00604795
0.0060493
0.00605022
0.00605051
0.00605011
0.00604939
0.00604809
0.00604576
0.00604139
0.00603228
0.00600961
0.00592591
0.00564692
0.00454778
0.00493779
0.00502658
0.00505052
0.00505952
0.00506368
0.00506586
0.00506705
0.00506788
0.00506812
0.00506775
0.00506713
0.00506598
0.00506393
0.00506008
0.00505208
0.00503231
0.00495926
0.00474823
0.00347496
0.00383336
0.00391132
0.00393196
0.00393968
0.00394323
0.00394508
0.00394609
0.00394679
0.003947
0.00394669
0.00394617
0.0039452
0.00394347
0.00394023
0.00393349
0.00391693
0.00385573
0.00371128
0.00229078
0.0026212
0.00268695
0.00270386
0.00271013
0.00271301
0.0027145
0.00271531
0.00271587
0.00271604
0.0027158
0.00271539
0.00271464
0.00271327
0.00271071
0.0027054
0.00269243
0.00264445
0.00256079
0.00105664
0.00133609
0.00138515
0.0013975
0.00140205
0.00140412
0.00140519
0.00140577
0.00140617
0.0014063
0.00140612
0.00140584
0.00140531
0.00140435
0.00140255
0.00139881
0.00138982
0.00135657
0.00132289
-0.000209143
6.43864e-06
3.77109e-05
4.5225e-05
4.79346e-05
4.91465e-05
4.97616e-05
5.00891e-05
5.03252e-05
5.03915e-05
5.02853e-05
5.01526e-05
4.9865e-05
4.93396e-05
4.83492e-05
4.63025e-05
4.16187e-05
2.43149e-05
3.41971e-05
-0.00147823
-0.00133624
-0.00132229
-0.00131959
-0.00131872
-0.00131838
-0.00131822
-0.00131815
-0.00131807
-0.00131807
-0.0013181
-0.00131809
-0.00131812
-0.00131819
-0.00131834
-0.00131862
-0.0013188
-0.00131969
-0.00126034
-0.0027229
-0.00265853
-0.00266119
-0.0026632
-0.00266413
-0.00266463
-0.00266492
-0.0026651
-0.00266518
-0.00266523
-0.00266519
-0.00266503
-0.00266481
-0.00266443
-0.00266372
-0.00266221
-0.00265782
-0.00264222
-0.00252414
-0.0039124
-0.00392742
-0.00394586
-0.00395235
-0.00395502
-0.00395634
-0.00395707
-0.00395749
-0.00395773
-0.00395783
-0.00395772
-0.0039574
-0.00395693
-0.0039561
-0.00395456
-0.00395128
-0.00394238
-0.0039105
-0.00373133
-0.00501246
-0.00511084
-0.0051444
-0.00515517
-0.0051595
-0.00516161
-0.00516276
-0.00516341
-0.00516379
-0.00516396
-0.00516378
-0.00516331
-0.0051626
-0.00516134
-0.005159
-0.00515403
-0.00514076
-0.00509319
-0.00485636
-0.00599743
-0.00617912
-0.00622714
-0.00624195
-0.00624786
-0.00625073
-0.00625228
-0.00625316
-0.00625368
-0.0062539
-0.00625367
-0.00625306
-0.00625214
-0.00625048
-0.00624739
-0.00624084
-0.00622349
-0.00616118
-0.00587251
-0.00684815
-0.00710615
-0.00716781
-0.00718629
-0.00719359
-0.00719711
-0.007199
-0.00720007
-0.0072007
-0.00720097
-0.00720069
-0.00719995
-0.00719882
-0.00719681
-0.00719304
-0.00718506
-0.00716403
-0.00708828
-0.00675498
-0.00754625
-0.00786968
-0.00794355
-0.00796506
-0.00797352
-0.00797758
-0.00797977
-0.00798099
-0.00798172
-0.00798204
-0.0079817
-0.00798085
-0.00797955
-0.00797723
-0.00797288
-0.00796367
-0.00793946
-0.00785187
-0.00748208
-0.00807533
-0.0084516
-0.00853532
-0.00855931
-0.00856871
-0.00857322
-0.00857565
-0.008577
-0.00857781
-0.00857816
-0.00857778
-0.00857685
-0.0085754
-0.00857283
-0.008568
-0.00855777
-0.00853098
-0.00843343
-0.00803566
-0.00842295
-0.00883826
-0.00892879
-0.00895469
-0.00896483
-0.00896968
-0.00897229
-0.00897375
-0.00897462
-0.00897499
-0.00897458
-0.00897358
-0.00897202
-0.00896926
-0.00896407
-0.00895308
-0.00892435
-0.008819
-0.00840153
-0.00858194
-0.0090205
-0.00911455
-0.00914177
-0.00915241
-0.0091575
-0.00916024
-0.00916177
-0.00916267
-0.00916306
-0.00916263
-0.00916158
-0.00915995
-0.00915706
-0.00915164
-0.00914015
-0.00911018
-0.00899937
-0.00857001
-0.00855017
-0.00899359
-0.00908844
-0.00911622
-0.00912707
-0.00913227
-0.00913505
-0.00913661
-0.00913753
-0.00913793
-0.00913747
-0.00913641
-0.00913475
-0.00913181
-0.00912628
-0.00911457
-0.00908405
-0.00897033
-0.00853641
-0.00832804
-0.0087578
-0.00885102
-0.00887865
-0.00888943
-0.00889459
-0.00889735
-0.00889889
-0.00889981
-0.0089002
-0.00889973
-0.00889868
-0.00889701
-0.00889409
-0.00888859
-0.00887694
-0.0088466
-0.00873265
-0.0083014
-0.00791337
-0.00831811
-0.00840773
-0.00843456
-0.00844501
-0.00844999
-0.00845266
-0.00845415
-0.00845504
-0.00845541
-0.00845494
-0.00845393
-0.00845231
-0.00844947
-0.00844414
-0.00843284
-0.00840343
-0.00829202
-0.00787076
-0.0073058
-0.00768353
-0.00776858
-0.00779417
-0.0078041
-0.00780881
-0.00781132
-0.00781271
-0.00781357
-0.0078139
-0.00781344
-0.0078125
-0.00781098
-0.00780829
-0.00780327
-0.00779262
-0.00776491
-0.00765902
-0.00726026
-0.0065271
-0.00686922
-0.00694837
-0.00697229
-0.00698151
-0.00698586
-0.00698817
-0.00698945
-0.00699026
-0.00699055
-0.00699011
-0.00698926
-0.00698788
-0.00698542
-0.00698084
-0.00697113
-0.00694588
-0.00684858
-0.00648654
-0.00559281
-0.0058951
-0.00596642
-0.00598805
-0.00599634
-0.00600023
-0.00600229
-0.00600342
-0.00600415
-0.00600441
-0.006004
-0.00600326
-0.00600204
-0.00599987
-0.00599583
-0.00598729
-0.00596509
-0.00587837
-0.00556886
-0.00451399
-0.00478328
-0.00484533
-0.00486424
-0.00487142
-0.00487476
-0.00487651
-0.00487748
-0.00487811
-0.00487832
-0.00487795
-0.00487732
-0.00487629
-0.00487445
-0.00487105
-0.00486385
-0.00484524
-0.00477022
-0.0045218
-0.00332803
-0.00355956
-0.0036111
-0.00362692
-0.00363288
-0.00363562
-0.00363705
-0.00363782
-0.00363835
-0.0036385
-0.00363817
-0.00363768
-0.00363686
-0.0036354
-0.00363269
-0.00362701
-0.00361253
-0.00355134
-0.00336813
-0.00207076
-0.00225238
-0.00229269
-0.00230512
-0.00230972
-0.0023118
-0.00231287
-0.00231344
-0.00231385
-0.00231395
-0.00231369
-0.00231335
-0.00231276
-0.00231172
-0.0023098
-0.0023058
-0.00229553
-0.00224973
-0.00213592
-0.000776699
-0.000894077
-0.000921544
-0.000930079
-0.000933128
-0.000934471
-0.000935143
-0.000935488
-0.000935764
-0.000935816
-0.000935625
-0.000935443
-0.000935106
-0.000934522
-0.000933433
-0.000931194
-0.000925232
-0.000895797
-0.000854141
0.00052738
0.00048213
0.000469568
0.000465596
0.000464304
0.000463782
0.000463543
0.000463435
0.000463306
0.000463302
0.00046341
0.000463432
0.000463503
0.000463627
0.000463865
0.000464347
0.000465953
0.00047865
0.000447458
0.00181451
0.00184267
0.00184762
0.00184851
0.00184913
0.00184953
0.00184979
0.00184997
0.00185003
0.0018501
0.00185014
0.00185002
0.00184984
0.00184952
0.00184893
0.0018477
0.00184496
0.00184104
0.00173881
0.00305583
0.00315603
0.00317975
0.00318589
0.00318855
0.00318992
0.0031907
0.00319116
0.00319141
0.00319154
0.0031915
0.00319124
0.00319083
0.00319007
0.00318868
0.00318581
0.00317889
0.00315904
0.00298868

