# vtk DataFile Version 2.0
OUTPUT by 3D-VPM
ASCII
DATASET UNSTRUCTURED_GRID
POINTS 800 double
1.311114e+00	2.781255e-02	-9.087728e-04
1.307209e+00	1.058851e+00	3.003548e-02
1.309709e+00	2.106544e+00	3.078966e-02
1.310172e+00	3.158263e+00	3.085471e-02
1.310309e+00	4.210671e+00	3.088023e-02
1.310370e+00	5.263227e+00	3.088928e-02
1.310398e+00	6.315826e+00	3.089517e-02
1.310412e+00	7.368442e+00	3.089941e-02
1.310418e+00	8.421064e+00	3.090233e-02
1.310437e+00	9.473509e+00	3.090136e-02
1.310436e+00	1.052649e+01	3.090123e-02
1.310418e+00	1.157894e+01	3.090208e-02
1.310412e+00	1.263156e+01	3.089936e-02
1.310399e+00	1.368417e+01	3.089501e-02
1.310371e+00	1.473678e+01	3.088878e-02
1.310312e+00	1.578934e+01	3.087893e-02
1.310181e+00	1.684177e+01	3.085141e-02
1.309774e+00	1.789361e+01	3.077477e-02
1.307948e+00	1.894398e+01	3.006225e-02
1.310461e+00	1.997167e+01	-6.052590e-04
1.326211e+00	1.970797e-02	6.647913e-03
1.318984e+00	1.058804e+00	1.002468e-02
1.316417e+00	2.106763e+00	1.023645e-02
1.315887e+00	3.158371e+00	1.030004e-02
1.315745e+00	4.210770e+00	1.032248e-02
1.315680e+00	5.263300e+00	1.033296e-02
1.315657e+00	6.315871e+00	1.033734e-02
1.315652e+00	7.368467e+00	1.033907e-02
1.315651e+00	8.421080e+00	1.033979e-02
1.315672e+00	9.473520e+00	1.034125e-02
1.315672e+00	1.052648e+01	1.034100e-02
1.315651e+00	1.157892e+01	1.033968e-02
1.315652e+00	1.263153e+01	1.033927e-02
1.315657e+00	1.368413e+01	1.033778e-02
1.315676e+00	1.473670e+01	1.033402e-02
1.315736e+00	1.578924e+01	1.032517e-02
1.315863e+00	1.684165e+01	1.030820e-02
1.316307e+00	1.789336e+01	1.027587e-02
1.317399e+00	1.894222e+01	1.020225e-02
1.323860e+00	1.997840e+01	5.650784e-03
1.321426e+00	1.731171e-02	2.753565e-02
1.300691e+00	1.056051e+00	1.050025e-02
1.299599e+00	2.105884e+00	1.161519e-02
1.299570e+00	3.158079e+00	1.202982e-02
1.299587e+00	4.210600e+00	1.216205e-02
1.299596e+00	5.263194e+00	1.221924e-02
1.299603e+00	6.315809e+00	1.224516e-02
1.299608e+00	7.368432e+00	1.225758e-02
1.299610e+00	8.421058e+00	1.226421e-02
1.299631e+00	9.473524e+00	1.226057e-02
1.299631e+00	1.052648e+01	1.226035e-02
1.299610e+00	1.157894e+01	1.226432e-02
1.299608e+00	1.263157e+01	1.225803e-02
1.299603e+00	1.368419e+01	1.224611e-02
1.299596e+00	1.473681e+01	1.222151e-02
1.299586e+00	1.578940e+01	1.216770e-02
1.299568e+00	1.684193e+01	1.204617e-02
1.299577e+00	1.789417e+01	1.169259e-02
1.300036e+00	1.894529e+01	1.130074e-02
1.327073e+00	1.997992e+01	2.367087e-02
1.314884e+00	1.798552e-02	1.458455e-02
1.306389e+00	1.055523e+00	1.031813e-03
1.305520e+00	2.105799e+00	-2.652969e-04
1.305278e+00	3.158057e+00	-4.002284e-04
1.305208e+00	4.210592e+00	-4.237062e-04
1.305180e+00	5.263190e+00	-4.357962e-04
1.305169e+00	6.315807e+00	-4.388721e-04
1.305165e+00	7.368431e+00	-4.384828e-04
1.305162e+00	8.421057e+00	-4.371779e-04
1.305188e+00	9.473522e+00	-4.401888e-04
1.305188e+00	1.052648e+01	-4.403769e-04
1.305161e+00	1.157894e+01	-4.375063e-04
1.305164e+00	1.263157e+01	-4.383035e-04
1.305169e+00	1.368419e+01	-4.386835e-04
1.305178e+00	1.473681e+01	-4.358473e-04
1.305204e+00	1.578941e+01	-4.242756e-04
1.305267e+00	1.684195e+01	-4.015623e-04
1.305485e+00	1.789421e+01	-2.784398e-04
1.305757e+00	1.894480e+01	5.009407e-04
1.315738e+00	1.998102e+01	1.593710e-02
1.305807e+00	1.450488e-02	2.761775e-02
1.318175e+00	1.054377e+00	3.273049e-02
1.321078e+00	2.105592e+00	3.076852e-02
1.321555e+00	3.157993e+00	3.043265e-02
1.321701e+00	4.210567e+00	3.034468e-02
1.321762e+00	5.263178e+00	3.030762e-02
1.321793e+00	6.315800e+00	3.029189e-02
1.321810e+00	7.368427e+00	3.028501e-02
1.321819e+00	8.421055e+00	3.028152e-02
1.321839e+00	9.473520e+00	3.028509e-02
1.321838e+00	1.052648e+01	3.028511e-02
1.321819e+00	1.157895e+01	3.028132e-02
1.321810e+00	1.263157e+01	3.028485e-02
1.321794e+00	1.368420e+01	3.029157e-02
1.321765e+00	1.473682e+01	3.030666e-02
1.321707e+00	1.578943e+01	3.034204e-02
1.321573e+00	1.684201e+01	3.042432e-02
1.321164e+00	1.789443e+01	3.073603e-02
1.319677e+00	1.894579e+01	3.203659e-02
1.306841e+00	1.998409e+01	2.872128e-02
1.292493e+00	1.775098e-02	2.745227e-02
1.294430e+00	1.054528e+00	4.363627e-02
1.296090e+00	2.105617e+00	4.453557e-02
1.296430e+00	3.158000e+00	4.469240e-02
1.296539e+00	4.210570e+00	4.474162e-02
1.296586e+00	5.263179e+00	4.476157e-02
1.296610e+00	6.315801e+00	4.477169e-02
1.296622e+00	7.368428e+00	4.477736e-02
1.296628e+00	8.421055e+00	4.478077e-02
1.296649e+00	9.473519e+00	4.478282e-02
1.296649e+00	1.052648e+01	4.478265e-02
1.296628e+00	1.157894e+01	4.478063e-02
1.296622e+00	1.263157e+01	4.477750e-02
1.296610e+00	1.368420e+01	4.477195e-02
1.296587e+00	1.473682e+01	4.476209e-02
1.296541e+00	1.578943e+01	4.474288e-02
1.296437e+00	1.684200e+01	4.469667e-02
1.296120e+00	1.789441e+01	4.456270e-02
1.295030e+00	1.894589e+01	4.453189e-02
1.292561e+00	1.998156e+01	2.890778e-02
1.282237e+00	1.569674e-02	2.553858e-02
1.277864e+00	1.054292e+00	4.744291e-02
1.278694e+00	2.105579e+00	4.882245e-02
1.278902e+00	3.157991e+00	4.905289e-02
1.278973e+00	4.210566e+00	4.912390e-02
1.279006e+00	5.263178e+00	4.915378e-02
1.279022e+00	6.315800e+00	4.916868e-02
1.279031e+00	7.368427e+00	4.917679e-02
1.279035e+00	8.421055e+00	4.918137e-02
1.279056e+00	9.473505e+00	4.918335e-02
1.279056e+00	1.052650e+01	4.918350e-02
1.279035e+00	1.157894e+01	4.918131e-02
1.279031e+00	1.263157e+01	4.917619e-02
1.279022e+00	1.368420e+01	4.916756e-02
1.279006e+00	1.473682e+01	4.915153e-02
1.278974e+00	1.578943e+01	4.911863e-02
1.278905e+00	1.684201e+01	4.903706e-02
1.278705e+00	1.789444e+01	4.875633e-02
1.277865e+00	1.894605e+01	4.776572e-02
1.281854e+00	1.998359e+01	2.645716e-02
1.272259e+00	1.311095e-02	2.721036e-02
1.263420e+00	1.054136e+00	4.835916e-02
1.263748e+00	2.105553e+00	4.981777e-02
1.263902e+00	3.157983e+00	5.005642e-02
1.263955e+00	4.210563e+00	5.013375e-02
1.263979e+00	5.263176e+00	5.016704e-02
1.263991e+00	6.315800e+00	5.018373e-02
1.263997e+00	7.368427e+00	5.019282e-02
1.264000e+00	8.421055e+00	5.019786e-02
1.264021e+00	9.473512e+00	5.019973e-02
1.264021e+00	1.052649e+01	5.020010e-02
1.264000e+00	1.157895e+01	5.019781e-02
1.263998e+00	1.263157e+01	5.019166e-02
1.263992e+00	1.368420e+01	5.018160e-02
1.263982e+00	1.473682e+01	5.016275e-02
1.263962e+00	1.578944e+01	5.012364e-02
1.263925e+00	1.684202e+01	5.002567e-02
1.263848e+00	1.789446e+01	4.967770e-02
1.263844e+00	1.894614e+01	4.790102e-02
1.271971e+00	1.998663e+01	2.702962e-02
1.262021e+00	1.385185e-02	2.739119e-02
1.250355e+00	1.054013e+00	4.716531e-02
1.250408e+00	2.105532e+00	4.853641e-02
1.250537e+00	3.157977e+00	4.878798e-02
1.250577e+00	4.210561e+00	4.887148e-02
1.250594e+00	5.263175e+00	4.890715e-02
1.250602e+00	6.315799e+00	4.892496e-02
1.250607e+00	7.368426e+00	4.893463e-02
1.250609e+00	8.421055e+00	4.894010e-02
1.250630e+00	9.473523e+00	4.894192e-02
1.250629e+00	1.052648e+01	4.894219e-02
1.250609e+00	1.157895e+01	4.894003e-02
1.250608e+00	1.263157e+01	4.893369e-02
1.250605e+00	1.368420e+01	4.892325e-02
1.250599e+00	1.473683e+01	4.890375e-02
1.250590e+00	1.578944e+01	4.886342e-02
1.250578e+00	1.684202e+01	4.876354e-02
1.250590e+00	1.789448e+01	4.841457e-02
1.251157e+00	1.894623e+01	4.662932e-02
1.262095e+00	1.998629e+01	2.691593e-02
1.252636e+00	1.410136e-02	2.577018e-02
1.238775e+00	1.053914e+00	4.424255e-02
1.238655e+00	2.105512e+00	4.549699e-02
1.238711e+00	3.157971e+00	4.578637e-02
1.238726e+00	4.210558e+00	4.587816e-02
1.238734e+00	5.263174e+00	4.591611e-02
1.238738e+00	6.315798e+00	4.593474e-02
1.238740e+00	7.368426e+00	4.594475e-02
1.238741e+00	8.421055e+00	4.595070e-02
1.238762e+00	9.473533e+00	4.595230e-02
1.238762e+00	1.052647e+01	4.595219e-02
1.238740e+00	1.157895e+01	4.595059e-02
1.238741e+00	1.263157e+01	4.594471e-02
1.238739e+00	1.368420e+01	4.593468e-02
1.238736e+00	1.473683e+01	4.591605e-02
1.238732e+00	1.578944e+01	4.587810e-02
1.238731e+00	1.684203e+01	4.578664e-02
1.238762e+00	1.789449e+01	4.547911e-02
1.239332e+00	1.894629e+01	4.408081e-02
1.252781e+00	1.998655e+01	2.536642e-02
1.243780e+00	1.312199e-02	2.252964e-02
1.228973e+00	1.053887e+00	3.995138e-02
1.228678e+00	2.105499e+00	4.110276e-02
1.228537e+00	3.157967e+00	4.144172e-02
1.228512e+00	4.210557e+00	4.153995e-02
1.228506e+00	5.263173e+00	4.157914e-02
1.228504e+00	6.315798e+00	4.159797e-02
1.228503e+00	7.368426e+00	4.160796e-02
1.228501e+00	8.421055e+00	4.161414e-02
1.228521e+00	9.473518e+00	4.161619e-02
1.228521e+00	1.052648e+01	4.161577e-02
1.228501e+00	1.157895e+01	4.161407e-02
1.228501e+00	1.263157e+01	4.160891e-02
1.228500e+00	1.368420e+01	4.159975e-02
1.228498e+00	1.473683e+01	4.158277e-02
1.228495e+00	1.578944e+01	4.154864e-02
1.228492e+00	1.684203e+01	4.146872e-02
1.228510e+00	1.789450e+01	4.120337e-02
1.228891e+00	1.894629e+01	4.017150e-02
1.243696e+00	1.998732e+01	2.269142e-02
1.234373e+00	1.174709e-02	2.055011e-02
1.220144e+00	1.053829e+00	3.488568e-02
1.220359e+00	2.105484e+00	3.582571e-02
1.220144e+00	3.157963e+00	3.614054e-02
1.220104e+00	4.210555e+00	3.623002e-02
1.220094e+00	5.263172e+00	3.626546e-02
1.220090e+00	6.315797e+00	3.628240e-02
1.220088e+00	7.368425e+00	3.629135e-02
1.220086e+00	8.421054e+00	3.629688e-02
1.220105e+00	9.473519e+00	3.629862e-02
1.220106e+00	1.052648e+01	3.629816e-02
1.220085e+00	1.157895e+01	3.629669e-02
1.220085e+00	1.263157e+01	3.629205e-02
1.220084e+00	1.368420e+01	3.628376e-02
1.220082e+00	1.473683e+01	3.626847e-02
1.220080e+00	1.578945e+01	3.623771e-02
1.220074e+00	1.684204e+01	3.616619e-02
1.220093e+00	1.789452e+01	3.592810e-02
1.220362e+00	1.894630e+01	3.514260e-02
1.234446e+00	1.998812e+01	2.076325e-02
1.225782e+00	1.229283e-02	1.823134e-02
1.211178e+00	1.053626e+00	2.905587e-02
1.213267e+00	2.105459e+00	3.004457e-02
1.213462e+00	3.157958e+00	3.029302e-02
1.213495e+00	4.210553e+00	3.036692e-02
1.213510e+00	5.263171e+00	3.039660e-02
1.213517e+00	6.315797e+00	3.041081e-02
1.213521e+00	7.368425e+00	3.041830e-02
1.213522e+00	8.421054e+00	3.042291e-02
1.213543e+00	9.473520e+00	3.042433e-02
1.213545e+00	1.052648e+01	3.042391e-02
1.213526e+00	1.157895e+01	3.042240e-02
1.213527e+00	1.263157e+01	3.041809e-02
[...]
CELL_DATA 741
SCALARS Mu double 1
LOOKUP_TABLE default
-2.66312e-11
-3.10664e-11
-3.18437e-11
-3.20552e-11
-3.21323e-11
-3.21718e-11
-3.21894e-11
-3.2205e-11
-3.22268e-11
-3.22102e-11
-3.22278e-11
-3.22073e-11
-3.21913e-11
-3.21714e-11
-3.21368e-11
-3.20551e-11
-3.18426e-11
-3.10702e-11
-2.66293e-11
0.00415121
0.00443406
0.00448509
0.00449967
0.00450535
0.00450804
0.00450948
0.00451029
0.00451071
0.00451085
0.00451071
0.00451029
0.00450948
0.00450804
0.00450535
0.00449967
0.00448509
0.00443406
0.00415121
0.00559784
0.00596326
0.00603655
0.00605728
0.0060653
0.00606909
0.00607111
0.00607224
0.0060729
0.00607312
0.00607289
0.00607226
0.00607116
0.00606918
0.00606547
0.00605767
0.0060378
0.00596923
0.00564305
0.00640968
0.00693568
0.00702847
0.00705412
0.00706391
0.0070685
0.00707094
0.00707229
0.00707316
0.0070734
0.00707305
0.00707236
0.00707106
0.00706873
0.00706438
0.00705529
0.00703244
0.00695572
0.00671908
0.0069648
0.00755651
0.00765777
0.00768596
0.00769675
0.00770181
0.0077045
0.00770599
0.00770694
0.00770723
0.00770685
0.00770605
0.0077046
0.00770201
0.00769715
0.00768698
0.00766127
0.00757311
0.00733451
0.00726833
0.00788298
0.00798796
0.00801715
0.00802839
0.00803369
0.00803651
0.00803807
0.00803905
0.00803939
0.008039
0.0080381
0.00803655
0.00803377
0.00802854
0.00801754
0.00798942
0.00788835
0.007577
0.00733533
0.00794558
0.00804937
0.0080786
0.00808994
0.00809532
0.00809817
0.00809976
0.00810073
0.00810112
0.00810073
0.00809976
0.00809816
0.00809528
0.00808987
0.00807842
0.00804897
0.00794052
0.00752251
0.00717642
0.00775941
0.00786198
0.00789115
0.00790248
0.00790784
0.00791069
0.00791227
0.00791325
0.00791363
0.00791323
0.00791227
0.00791067
0.00790781
0.00790243
0.00789104
0.00786183
0.00775361
0.00731422
0.00680116
0.00734184
0.00744473
0.00747379
0.00748499
0.00749026
0.00749305
0.0074946
0.00749559
0.00749595
0.00749554
0.00749464
0.0074931
0.00749035
0.00748519
0.00747431
0.00744667
0.00734469
0.00694306
0.00622373
0.00671545
0.006818
0.00684641
0.00685723
0.0068623
0.00686497
0.00686644
0.00686742
0.00686774
0.00686733
0.00686651
0.00686508
0.00686251
0.0068577
0.00684762
0.00682229
0.0067289
0.00638513
0.00546651
0.0059058
0.00600398
0.0060307
0.00604079
0.00604548
0.00604795
0.0060493
0.00605022
0.00605051
0.00605011
0.00604939
0.00604809
0.00604576
0.00604139
0.00603228
0.00600961
0.00592591
0.00564692
0.00454778
0.00493779
0.00502658
0.00505052
0.00505952
0.00506368
0.00506586
0.00506705
0.00506788
0.00506812
0.00506775
0.00506713
0.00506598
0.00506393
0.00506008
0.00505208
0.00503231
0.00495926
0.00474823
0.00347496
0.00383336
0.00391132
0.00393196
0.00393968
0.00394323
0.00394508
0.00394609
0.00394679
0.003947
0.00394669
0.00394617
0.0039452
0.00394347
0.00394023
0.00393349
0.00391693
0.00385573
0.00371128
0.00229078
0.0026212
0.00268695
0.00270386
0.00271013
0.00271301
0.0027145
0.00271531
0.00271587
0.00271604
0.0027158
0.00271539
0.00271464
0.00271327
0.00271071
0.0027054
0.00269243
0.00264445
0.00256079
0.00105664
0.00133609
0.00138515
0.0013975
0.00140205
0.00140412
0.00140519
0.00140577
0.00140617
0.0014063
0.00140612
0.00140584
0.00140531
0.00140435
0.00140255
0.00139881
0.00138982
0.00135657
0.00132289
-0.000209143
6.43864e-06
3.77109e-05
4.5225e-05
4.79346e-05
4.91465e-05
4.97616e-05
5.00891e-05
5.03252e-05
5.03915e-05
5.02853e-05
5.01526e-05
4.9865e-05
4.93396e-05
4.83492e-05
4.63025e-05
4.16187e-05
2.43149e-05
3.41971e-05
-0.00147823
-0.00133624
-0.00132229
-0.00131959
-0.00131872
-0.00131838
-0.00131822
-0.00131815
-0.00131807
-0.00131807
-0.0013181
-0.00131809
-0.00131812
-0.00131819
-0.00131834
-0.00131862
-0.0013188
-0.00131969
-0.00126034
-0.0027229
-0.00265853
-0.00266119
-0.0026632
-0.00266413
-0.00266463
-0.00266492
-0.0026651
-0.00266518
-0.00266523
-0.00266519
-0.00266503
-0.00266481
-0.00266443
-0.00266372
-0.00266221
-0.00265782
-0.00264222
-0.00252414
-0.0039124
-0.00392742
-0.00394586
-0.00395235
-0.00395502
-0.00395634
-0.00395707
-0.00395749
-0.00395773
-0.00395783
-0.00395772
-0.0039574
-0.00395693
-0.0039561
-0.00395456
-0.00395128
-0.00394238
-0.0039105
-0.00373133
-0.00501246
-0.00511084
-0.0051444
-0.00515517
-0.0051595
-0.00516161
-0.00516276
-0.00516341
-0.00516379
-0.00516396
-0.00516378
-0.00516331
-0.0051626
-0.00516134
-0.005159
-0.00515403
-0.00514076
-0.00509319
-0.00485636
-0.00599743
-0.00617912
-0.00622714
-0.00624195
-0.00624786
-0.00625073
-0.00625228
-0.00625316
-0.00625368
-0.0062539
-0.00625367
-0.00625306
-0.00625214
-0.00625048
-0.00624739
-0.00624084
-0.00622349
-0.00616118
-0.00587251
-0.00684815
-0.00710615
-0.00716781
-0.00718629
-0.00719359
-0.00719711
-0.007199
-0.00720007
-0.0072007
-0.00720097
-0.00720069
-0.00719995
-0.00719882
-0.00719681
-0.00719304
-0.00718506
-0.00716403
-0.00708828
-0.00675498
-0.00754625
-0.00786968
-0.00794355
-0.00796506
-0.00797352
-0.00797758
-0.00797977
-0.00798099
-0.00798172
-0.00798204
-0.0079817
-0.00798085
-0.00797955
-0.00797723
-0.00797288
-0.00796367
-0.00793946
-0.00785187
-0.00748208
-0.00807533
-0.0084516
-0.00853532
-0.00855931
-0.00856871
-0.00857322
-0.00857565
-0.008577
-0.00857781
-0.00857816
-0.00857778
-0.00857685
-0.0085754
-0.00857283
-0.008568
-0.00855777
-0.00853098
-0.00843343
-0.00803566
-0.00842295
-0.00883826
-0.00892879
-0.00895469
-0.00896483
-0.00896968
-0.00897229
-0.00897375
-0.00897462
-0.00897499
-0.00897458
-0.00897358
-0.00897202
-0.00896926
-0.00896407
-0.00895308
-0.00892435
-0.008819
-0.00840153
-0.00858194
-0.0090205
-0.00911455
-0.00914177
-0.00915241
-0.0091575
-0.00916024
-0.00916177
-0.00916267
-0.00916306
-0.00916263
-0.00916158
-0.00915995
-0.00915706
-0.00915164
-0.00914015
-0.00911018
-0.00899937
-0.00857001
-0.00855017
-0.00899359
-0.00908844
-0.00911622
-0.00912707
-0.00913227
-0.00913505
-0.00913661
-0.00913753
-0.00913793
-0.00913747
-0.00913641
-0.00913475
-0.00913181
-0.00912628
-0.00911457
-0.00908405
-0.00897033
-0.00853641
-0.00832804
-0.0087578
-0.00885102
-0.00887865
-0.00888943
-0.00889459
-0.00889735
-0.00889889
-0.00889981
-0.0089002
-0.00889973
-0.00889868
-0.00889701
-0.00889409
-0.00888859
-0.00887694
-0.0088466
-0.00873265
-0.0083014
-0.00791337
-0.00831811
-0.00840773
-0.00843456
-0.00844501
-0.00844999
-0.00845266
-0.00845415
-0.00845504
-0.00845541
-0.00845494
-0.00845393
-0.00845231
-0.00844947
-0.00844414
-0.00843284
-0.00840343
-0.00829202
-0.00787076
-0.0073058
-0.00768353
-0.00776858
-0.00779417
-0.0078041
-0.00780881
-0.00781132
-0.00781271
-0.00781357
-0.0078139
-0.00781344
-0.0078125
-0.00781098
-0.00780829
-0.00780327
-0.00779262
-0.00776491
-0.00765902
-0.00726026
-0.0065271
-0.00686922
-0.00694837
-0.00697229
-0.00698151
-0.00698586
-0.00698817
-0.00698945
-0.00699026
-0.00699055
-0.00699011
-0.00698926
-0.00698788
-0.00698542
-0.00698084
-0.00697113
-0.00694588
-0.00684858
-0.00648654
-0.00559281
-0.0058951
-0.00596642
-0.00598805
-0.00599634
-0.00600023
-0.00600229
-0.00600342
-0.00600415
-0.00600441
-0.006004
-0.00600326
-0.00600204
-0.00599987
-0.00599583
-0.00598729
-0.00596509
-0.00587837
-0.00556886
-0.00451399
-0.00478328
-0.00484533
-0.00486424
-0.00487142
-0.00487476
-0.00487651
-0.00487748
-0.00487811
-0.00487832
-0.00487795
-0.00487732
-0.00487629
-0.00487445
-0.00487105
-0.00486385
-0.00484524
-0.00477022
-0.0045218
-0.00332803
-0.00355956
-0.0036111
-0.00362692
-0.00363288
-0.00363562
-0.00363705
-0.00363782
-0.00363835
-0.0036385
-0.00363817
-0.00363768
-0.00363686
-0.0036354
-0.00363269
-0.00362701
-0.00361253
-0.00355134
-0.00336813
-0.00207076
-0.00225238
-0.00229269
-0.00230512
-0.00230972
-0.0023118
-0.00231287
-0.00231344
-0.00231385
-0.00231395
-0.00231369
-0.00231335
-0.00231276
-0.00231172
-0.0023098
-0.0023058
-0.00229553
-0.00224973
-0.00213592
-0.000776699
-0.000894077
-0.000921544
-0.000930079
-0.000933128
-0.000934471
-0.000935143
-0.000935488
-0.000935764
-0.000935816
-0.000935625
-0.000935443
-0.000935106
-0.000934522
-0.000933433
-0.000931194
-0.000925232
-0.000895797
-0.000854141
0.00052738
0.00048213
0.000469568
0.000465596
0.000464304
0.000463782
0.000463543
0.000463435
0.000463306
0.000463302
0.00046341
0.000463432
0.000463503
0.000463627
0.000463865
0.000464347
0.000465953
0.00047865
0.000447458
0.00181451
0.00184267
0.00184762
0.00184851
0.00184913
0.00184953
0.00184979
0.00184997
0.00185003
0.0018501
0.00185014
0.00185002
0.00184984
0.00184952
0.00184893
0.0018477
0.00184496
0.00184104
0.00173881

