# vtk DataFile Version 2.0
OUTPUT by 3D-VPM
ASCII
DATASET UNSTRUCTURED_GRID
POINTS 1100 double
1.444282e+00	4.144742e-02	2.513869e-02
1.457166e+00	1.062325e+00	3.726739e-02
1.458795e+00	2.107837e+00	3.284076e-02
1.458940e+00	3.158798e+00	3.135836e-02
1.458941e+00	4.210918e+00	3.089317e-02
1.458946e+00	5.263365e+00	3.069820e-02
1.458945e+00	6.315923e+00	3.061187e-02
1.458937e+00	7.368513e+00	3.056568e-02
1.458931e+00	8.421116e+00	3.054350e-02
1.458939e+00	9.473521e+00	3.052829e-02
1.458940e+00	1.052647e+01	3.052920e-02
1.458927e+00	1.157889e+01	3.053812e-02
1.458936e+00	1.263149e+01	3.056358e-02
1.458944e+00	1.368408e+01	3.060782e-02
1.458944e+00	1.473664e+01	3.068939e-02
1.458939e+00	1.578910e+01	3.087040e-02
1.458934e+00	1.684127e+01	3.128930e-02
1.458833e+00	1.789243e+01	3.256346e-02
1.457374e+00	1.894118e+01	3.443552e-02
1.445885e+00	1.995605e+01	2.787844e-02
1.456955e+00	2.928494e-02	7.989559e-03
1.447368e+00	1.058344e+00	7.690422e-03
1.444376e+00	2.106551e+00	8.645063e-03
1.443629e+00	3.158307e+00	8.917583e-03
1.443427e+00	4.210746e+00	9.000286e-03
1.443337e+00	5.263289e+00	9.037181e-03
1.443305e+00	6.315865e+00	9.052654e-03
1.443296e+00	7.368464e+00	9.059023e-03
1.443293e+00	8.421078e+00	9.061762e-03
1.443321e+00	9.473514e+00	9.061548e-03
1.443321e+00	1.052648e+01	9.061390e-03
1.443292e+00	1.157893e+01	9.061839e-03
1.443296e+00	1.263154e+01	9.059106e-03
1.443304e+00	1.368414e+01	9.052977e-03
1.443333e+00	1.473671e+01	9.038305e-03
1.443416e+00	1.578926e+01	9.003413e-03
1.443598e+00	1.684170e+01	8.926614e-03
1.444239e+00	1.789351e+01	8.691609e-03
1.445550e+00	1.894221e+01	8.062575e-03
1.452963e+00	1.996299e+01	1.248577e-02
1.455710e+00	1.927907e-02	1.672370e-02
1.446823e+00	1.060278e+00	2.222221e-02
1.445093e+00	2.107022e+00	2.600001e-02
1.445623e+00	3.158394e+00	2.611507e-02
1.445828e+00	4.210721e+00	2.611514e-02
1.445923e+00	5.263251e+00	2.610977e-02
1.445967e+00	6.315839e+00	2.610810e-02
1.445988e+00	7.368449e+00	2.610821e-02
1.445998e+00	8.421068e+00	2.610875e-02
1.446023e+00	9.473522e+00	2.610962e-02
1.446023e+00	1.052648e+01	2.610950e-02
1.445998e+00	1.157893e+01	2.610846e-02
1.445989e+00	1.263155e+01	2.610805e-02
1.445968e+00	1.368416e+01	2.610774e-02
1.445926e+00	1.473675e+01	2.610886e-02
1.445836e+00	1.578929e+01	2.611305e-02
1.445647e+00	1.684165e+01	2.611138e-02
1.445183e+00	1.789320e+01	2.602592e-02
1.445521e+00	1.894184e+01	2.456962e-02
1.459463e+00	1.997667e+01	1.441387e-02
1.464848e+00	2.773990e-02	2.714412e-02
1.432865e+00	1.057473e+00	2.222784e-02
1.431915e+00	2.106174e+00	2.229926e-02
1.432006e+00	3.158169e+00	2.257949e-02
1.432062e+00	4.210637e+00	2.268037e-02
1.432091e+00	5.263212e+00	2.272217e-02
1.432106e+00	6.315819e+00	2.274208e-02
1.432115e+00	7.368437e+00	2.275243e-02
1.432119e+00	8.421060e+00	2.275816e-02
1.432145e+00	9.473518e+00	2.275465e-02
1.432145e+00	1.052648e+01	2.275452e-02
1.432119e+00	1.157894e+01	2.275813e-02
1.432115e+00	1.263156e+01	2.275264e-02
1.432106e+00	1.368418e+01	2.274252e-02
1.432091e+00	1.473679e+01	2.272314e-02
1.432063e+00	1.578936e+01	2.268272e-02
1.432006e+00	1.684184e+01	2.258620e-02
1.431923e+00	1.789384e+01	2.232972e-02
1.432332e+00	1.894330e+01	2.229456e-02
1.465872e+00	1.996766e+01	2.434664e-02
1.442382e+00	2.183944e-02	2.901770e-02
1.463000e+00	1.054707e+00	2.916848e-02
1.464726e+00	2.105693e+00	2.350020e-02
1.464837e+00	3.158025e+00	2.242653e-02
1.464874e+00	4.210581e+00	2.212858e-02
1.464887e+00	5.263185e+00	2.200122e-02
1.464899e+00	6.315804e+00	2.194642e-02
1.464908e+00	7.368429e+00	2.192204e-02
1.464914e+00	8.421055e+00	2.190989e-02
1.464941e+00	9.473515e+00	2.191548e-02
1.464941e+00	1.052648e+01	2.191574e-02
1.464914e+00	1.157894e+01	2.190936e-02
1.464909e+00	1.263157e+01	2.192133e-02
1.464899e+00	1.368420e+01	2.194482e-02
1.464887e+00	1.473682e+01	2.199693e-02
1.464874e+00	1.578942e+01	2.211718e-02
1.464840e+00	1.684198e+01	2.239176e-02
1.464747e+00	1.789434e+01	2.334656e-02
1.463898e+00	1.894553e+01	2.663177e-02
1.443049e+00	1.997727e+01	3.131543e-02
1.430243e+00	1.961472e-02	3.763997e-02
1.434998e+00	1.055409e+00	5.286634e-02
1.437973e+00	2.105788e+00	5.289360e-02
1.438605e+00	3.158051e+00	5.287342e-02
1.438803e+00	4.210591e+00	5.287070e-02
1.438890e+00	5.263190e+00	5.286754e-02
1.438932e+00	6.315807e+00	5.286764e-02
1.438953e+00	7.368431e+00	5.286891e-02
1.438963e+00	8.421056e+00	5.287032e-02
1.438989e+00	9.473514e+00	5.287281e-02
1.438989e+00	1.052649e+01	5.287264e-02
1.438963e+00	1.157894e+01	5.287003e-02
1.438953e+00	1.263157e+01	5.286892e-02
1.438933e+00	1.368419e+01	5.286760e-02
1.438892e+00	1.473681e+01	5.286723e-02
1.438808e+00	1.578941e+01	5.286980e-02
1.438622e+00	1.684196e+01	5.287151e-02
1.438056e+00	1.789425e+01	5.289520e-02
1.436225e+00	1.894534e+01	5.346113e-02
1.429938e+00	1.997854e+01	3.980224e-02
1.417385e+00	2.186094e-02	3.797982e-02
1.413679e+00	1.055037e+00	6.012521e-02
1.415266e+00	2.105735e+00	6.141994e-02
1.415658e+00	3.158038e+00	6.162638e-02
1.415788e+00	4.210586e+00	6.168905e-02
1.415846e+00	5.263187e+00	6.171473e-02
1.415875e+00	6.315805e+00	6.172778e-02
1.415890e+00	7.368430e+00	6.173508e-02
1.415896e+00	8.421056e+00	6.173935e-02
1.415924e+00	9.473499e+00	6.174205e-02
1.415924e+00	1.052650e+01	6.174219e-02
1.415896e+00	1.157894e+01	6.173922e-02
1.415890e+00	1.263157e+01	6.173438e-02
1.415876e+00	1.368419e+01	6.172646e-02
1.415848e+00	1.473681e+01	6.171203e-02
1.415791e+00	1.578942e+01	6.168273e-02
1.415669e+00	1.684197e+01	6.160775e-02
1.415312e+00	1.789429e+01	6.134501e-02
1.413951e+00	1.894556e+01	6.049951e-02
1.416385e+00	1.997740e+01	3.842584e-02
1.406291e+00	2.016021e-02	3.466304e-02
1.395265e+00	1.054826e+00	6.230587e-02
1.395995e+00	2.105702e+00	6.387495e-02
1.396287e+00	3.158029e+00	6.412555e-02
1.396384e+00	4.210582e+00	6.420507e-02
1.396427e+00	5.263186e+00	6.423891e-02
1.396448e+00	6.315805e+00	6.425581e-02
1.396459e+00	7.368429e+00	6.426498e-02
1.396464e+00	8.421056e+00	6.427008e-02
1.396492e+00	9.473507e+00	6.427295e-02
1.396491e+00	1.052649e+01	6.427336e-02
1.396464e+00	1.157894e+01	6.426999e-02
1.396461e+00	1.263157e+01	6.426357e-02
1.396451e+00	1.368420e+01	6.425322e-02
1.396433e+00	1.473681e+01	6.423374e-02
1.396397e+00	1.578942e+01	6.419298e-02
1.396328e+00	1.684198e+01	6.408930e-02
1.396173e+00	1.789432e+01	6.371425e-02
1.396094e+00	1.894565e+01	6.182178e-02
1.405605e+00	1.997957e+01	3.560506e-02
1.394883e+00	1.624148e-02	3.615027e-02
1.378440e+00	1.054691e+00	6.111932e-02
1.378688e+00	2.105681e+00	6.264144e-02
1.378956e+00	3.158022e+00	6.291030e-02
1.379033e+00	4.210580e+00	6.299797e-02
1.379065e+00	5.263184e+00	6.303528e-02
1.379081e+00	6.315804e+00	6.305372e-02
1.379089e+00	7.368429e+00	6.306363e-02
1.379092e+00	8.421056e+00	6.306918e-02
1.379120e+00	9.473517e+00	6.307221e-02
1.379119e+00	1.052648e+01	6.307258e-02
1.379093e+00	1.157894e+01	6.306907e-02
1.379092e+00	1.263157e+01	6.306228e-02
1.379086e+00	1.368420e+01	6.305129e-02
1.379076e+00	1.473682e+01	6.303051e-02
1.379058e+00	1.578942e+01	6.298687e-02
1.379034e+00	1.684198e+01	6.287731e-02
1.379040e+00	1.789433e+01	6.248621e-02
1.379994e+00	1.894575e+01	6.051064e-02
1.394932e+00	1.998366e+01	3.531178e-02
1.383594e+00	1.879410e-02	3.630748e-02
1.363219e+00	1.054578e+00	5.719307e-02
1.363189e+00	2.105662e+00	5.859020e-02
1.363426e+00	3.158017e+00	5.888687e-02
1.363476e+00	4.210577e+00	5.898063e-02
1.363497e+00	5.263183e+00	5.901939e-02
1.363507e+00	6.315803e+00	5.903824e-02
1.363512e+00	7.368429e+00	5.904821e-02
1.363513e+00	8.421056e+00	5.905403e-02
1.363543e+00	9.473527e+00	5.905652e-02
1.363542e+00	1.052647e+01	5.905653e-02
1.363514e+00	1.157894e+01	5.905387e-02
1.363514e+00	1.263157e+01	5.904768e-02
1.363512e+00	1.368420e+01	5.903730e-02
1.363508e+00	1.473682e+01	5.901771e-02
1.363501e+00	1.578942e+01	5.897707e-02
1.363503e+00	1.684198e+01	5.887755e-02
1.363567e+00	1.789434e+01	5.853861e-02
1.364685e+00	1.894581e+01	5.708722e-02
1.383663e+00	1.998247e+01	3.622325e-02
1.374605e+00	1.911422e-02	3.141153e-02
1.350910e+00	1.054657e+00	5.075596e-02
1.349960e+00	2.105654e+00	5.217902e-02
1.349809e+00	3.158014e+00	5.256860e-02
1.349773e+00	4.210577e+00	5.267252e-02
1.349764e+00	5.263183e+00	5.271297e-02
1.349762e+00	6.315803e+00	5.273199e-02
1.349760e+00	7.368429e+00	5.274181e-02
1.349757e+00	8.421056e+00	5.274775e-02
1.349781e+00	9.473512e+00	5.275122e-02
1.349782e+00	1.052649e+01	5.275098e-02
1.349757e+00	1.157894e+01	5.274795e-02
1.349757e+00	1.263157e+01	5.274296e-02
1.349757e+00	1.368420e+01	5.273421e-02
1.349756e+00	1.473682e+01	5.271753e-02
1.349753e+00	1.578942e+01	5.268328e-02
1.349754e+00	1.684199e+01	5.260184e-02
1.349793e+00	1.789434e+01	5.232869e-02
1.350638e+00	1.894577e+01	5.147191e-02
1.374499e+00	1.998143e+01	3.152780e-02
1.365368e+00	1.718405e-02	2.702101e-02
1.338577e+00	1.054632e+00	4.237513e-02
1.339574e+00	2.105665e+00	4.380406e-02
1.338410e+00	3.158015e+00	4.424134e-02
1.338122e+00	4.210576e+00	4.434524e-02
1.338024e+00	5.263183e+00	4.438297e-02
1.337980e+00	6.315803e+00	4.440029e-02
1.337957e+00	7.368429e+00	4.440891e-02
1.337941e+00	8.421056e+00	4.441346e-02
1.337959e+00	9.473512e+00	4.441646e-02
1.337957e+00	1.052649e+01	4.441711e-02
1.337926e+00	1.157894e+01	4.441488e-02
1.337922e+00	1.263157e+01	4.441101e-02
1.337919e+00	1.368420e+01	4.440449e-02
1.337913e+00	1.473682e+01	4.439146e-02
1.337907e+00	1.578942e+01	4.436386e-02
1.337886e+00	1.684199e+01	4.429549e-02
1.337911e+00	1.789435e+01	4.406205e-02
1.339214e+00	1.894572e+01	4.375298e-02
1.365136e+00	1.998308e+01	2.759167e-02
1.354766e+00	1.525152e-02	2.367418e-02
1.333690e+00	1.051602e+00	2.283759e-02
1.327583e+00	2.105464e+00	2.680628e-02
1.327480e+00	3.157998e+00	3.220986e-02
1.328135e+00	4.210572e+00	3.305619e-02
1.328367e+00	5.263181e+00	3.331143e-02
1.328462e+00	6.315802e+00	3.341520e-02
1.328509e+00	7.368428e+00	3.346518e-02
1.328529e+00	8.421056e+00	3.348794e-02
1.328644e+00	9.473512e+00	3.354766e-02
1.328659e+00	1.052649e+01	3.356100e-02
1.328566e+00	1.157894e+01	3.352305e-02
1.328577e+00	1.263157e+01	3.352802e-02
[...]
CELL_DATA 1026
SCALARS Mu double 1
LOOKUP_TABLE default
-2.66312e-11
-3.10664e-11
-3.18437e-11
-3.20552e-11
-3.21323e-11
-3.21718e-11
-3.21894e-11
-3.2205e-11
-3.22268e-11
-3.22102e-11
-3.22278e-11
-3.22073e-11
-3.21913e-11
-3.21714e-11
-3.21368e-11
-3.20551e-11
-3.18426e-11
-3.10702e-11
-2.66293e-11
0.00415121
0.00443406
0.00448509
0.00449967
0.00450535
0.00450804
0.00450948
0.00451029
0.00451071
0.00451085
0.00451071
0.00451029
0.00450948
0.00450804
0.00450535
0.00449967
0.00448509
0.00443406
0.00415121
0.00559784
0.00596326
0.00603655
0.00605728
0.0060653
0.00606909
0.00607111
0.00607224
0.0060729
0.00607312
0.00607289
0.00607226
0.00607116
0.00606918
0.00606547
0.00605767
0.0060378
0.00596923
0.00564305
0.00640968
0.00693568
0.00702847
0.00705412
0.00706391
0.0070685
0.00707094
0.00707229
0.00707316
0.0070734
0.00707305
0.00707236
0.00707106
0.00706873
0.00706438
0.00705529
0.00703244
0.00695572
0.00671908
0.0069648
0.00755651
0.00765777
0.00768596
0.00769675
0.00770181
0.0077045
0.00770599
0.00770694
0.00770723
0.00770685
0.00770605
0.0077046
0.00770201
0.00769715
0.00768698
0.00766127
0.00757311
0.00733451
0.00726833
0.00788298
0.00798796
0.00801715
0.00802839
0.00803369
0.00803651
0.00803807
0.00803905
0.00803939
0.008039
0.0080381
0.00803655
0.00803377
0.00802854
0.00801754
0.00798942
0.00788835
0.007577
0.00733533
0.00794558
0.00804937
0.0080786
0.00808994
0.00809532
0.00809817
0.00809976
0.00810073
0.00810112
0.00810073
0.00809976
0.00809816
0.00809528
0.00808987
0.00807842
0.00804897
0.00794052
0.00752251
0.00717642
0.00775941
0.00786198
0.00789115
0.00790248
0.00790784
0.00791069
0.00791227
0.00791325
0.00791363
0.00791323
0.00791227
0.00791067
0.00790781
0.00790243
0.00789104
0.00786183
0.00775361
0.00731422
0.00680116
0.00734184
0.00744473
0.00747379
0.00748499
0.00749026
0.00749305
0.0074946
0.00749559
0.00749595
0.00749554
0.00749464
0.0074931
0.00749035
0.00748519
0.00747431
0.00744667
0.00734469
0.00694306
0.00622373
0.00671545
0.006818
0.00684641
0.00685723
0.0068623
0.00686497
0.00686644
0.00686742
0.00686774
0.00686733
0.00686651
0.00686508
0.00686251
0.0068577
0.00684762
0.00682229
0.0067289
0.00638513
0.00546651
0.0059058
0.00600398
0.0060307
0.00604079
0.00604548
0.00604795
0.0060493
0.00605022
0.00605051
0.00605011
0.00604939
0.00604809
0.00604576
0.00604139
0.00603228
0.00600961
0.00592591
0.00564692
0.00454778
0.00493779
0.00502658
0.00505052
0.00505952
0.00506368
0.00506586
0.00506705
0.00506788
0.00506812
0.00506775
0.00506713
0.00506598
0.00506393
0.00506008
0.00505208
0.00503231
0.00495926
0.00474823
0.00347496
0.00383336
0.00391132
0.00393196
0.00393968
0.00394323
0.00394508
0.00394609
0.00394679
0.003947
0.00394669
0.00394617
0.0039452
0.00394347
0.00394023
0.00393349
0.00391693
0.00385573
0.00371128
0.00229078
0.0026212
0.00268695
0.00270386
0.00271013
0.00271301
0.0027145
0.00271531
0.00271587
0.00271604
0.0027158
0.00271539
0.00271464
0.00271327
0.00271071
0.0027054
0.00269243
0.00264445
0.00256079
0.00105664
0.00133609
0.00138515
0.0013975
0.00140205
0.00140412
0.00140519
0.00140577
0.00140617
0.0014063
0.00140612
0.00140584
0.00140531
0.00140435
0.00140255
0.00139881
0.00138982
0.00135657
0.00132289
-0.000209143
6.43864e-06
3.77109e-05
4.5225e-05
4.79346e-05
4.91465e-05
4.97616e-05
5.00891e-05
5.03252e-05
5.03915e-05
5.02853e-05
5.01526e-05
4.9865e-05
4.93396e-05
4.83492e-05
4.63025e-05
4.16187e-05
2.43149e-05
3.41971e-05
-0.00147823
-0.00133624
-0.00132229
-0.00131959
-0.00131872
-0.00131838
-0.00131822
-0.00131815
-0.00131807
-0.00131807
-0.0013181
-0.00131809
-0.00131812
-0.00131819
-0.00131834
-0.00131862
-0.0013188
-0.00131969
-0.00126034
-0.0027229
-0.00265853
-0.00266119
-0.0026632
-0.00266413
-0.00266463
-0.00266492
-0.0026651
-0.00266518
-0.00266523
-0.00266519
-0.00266503
-0.00266481
-0.00266443
-0.00266372
-0.00266221
-0.00265782
-0.00264222
-0.00252414
-0.0039124
-0.00392742
-0.00394586
-0.00395235
-0.00395502
-0.00395634
-0.00395707
-0.00395749
-0.00395773
-0.00395783
-0.00395772
-0.0039574
-0.00395693
-0.0039561
-0.00395456
-0.00395128
-0.00394238
-0.0039105
-0.00373133
-0.00501246
-0.00511084
-0.0051444
-0.00515517
-0.0051595
-0.00516161
-0.00516276
-0.00516341
-0.00516379
-0.00516396
-0.00516378
-0.00516331
-0.0051626
-0.00516134
-0.005159
-0.00515403
-0.00514076
-0.00509319
-0.00485636
-0.00599743
-0.00617912
-0.00622714
-0.00624195
-0.00624786
-0.00625073
-0.00625228
-0.00625316
-0.00625368
-0.0062539
-0.00625367
-0.00625306
-0.00625214
-0.00625048
-0.00624739
-0.00624084
-0.00622349
-0.00616118
-0.00587251
-0.00684815
-0.00710615
-0.00716781
-0.00718629
-0.00719359
-0.00719711
-0.007199
-0.00720007
-0.0072007
-0.00720097
-0.00720069
-0.00719995
-0.00719882
-0.00719681
-0.00719304
-0.00718506
-0.00716403
-0.00708828
-0.00675498
-0.00754625
-0.00786968
-0.00794355
-0.00796506
-0.00797352
-0.00797758
-0.00797977
-0.00798099
-0.00798172
-0.00798204
-0.0079817
-0.00798085
-0.00797955
-0.00797723
-0.00797288
-0.00796367
-0.00793946
-0.00785187
-0.00748208
-0.00807533
-0.0084516
-0.00853532
-0.00855931
-0.00856871
-0.00857322
-0.00857565
-0.008577
-0.00857781
-0.00857816
-0.00857778
-0.00857685
-0.0085754
-0.00857283
-0.008568
-0.00855777
-0.00853098
-0.00843343
-0.00803566
-0.00842295
-0.00883826
-0.00892879
-0.00895469
-0.00896483
-0.00896968
-0.00897229
-0.00897375
-0.00897462
-0.00897499
-0.00897458
-0.00897358
-0.00897202
-0.00896926
-0.00896407
-0.00895308
-0.00892435
-0.008819
-0.00840153
-0.00858194
-0.0090205
-0.00911455
-0.00914177
-0.00915241
-0.0091575
-0.00916024
-0.00916177
-0.00916267
-0.00916306
-0.00916263
-0.00916158
-0.00915995
-0.00915706
-0.00915164
-0.00914015
-0.00911018
-0.00899937
-0.00857001
-0.00855017
-0.00899359
-0.00908844
-0.00911622
-0.00912707
-0.00913227
-0.00913505
-0.00913661
-0.00913753
-0.00913793
-0.00913747
-0.00913641
-0.00913475
-0.00913181
-0.00912628
-0.00911457
-0.00908405
-0.00897033
-0.00853641
-0.00832804
-0.0087578
-0.00885102
-0.00887865
-0.00888943
-0.00889459
-0.00889735
-0.00889889
-0.00889981
-0.0089002
-0.00889973
-0.00889868
-0.00889701
-0.00889409
-0.00888859
-0.00887694
-0.0088466
-0.00873265
-0.0083014
-0.00791337
-0.00831811
-0.00840773
-0.00843456
-0.00844501
-0.00844999
-0.00845266
-0.00845415
-0.00845504
-0.00845541
-0.00845494
-0.00845393
-0.00845231
-0.00844947
-0.00844414
-0.00843284
-0.00840343
-0.00829202
-0.00787076
-0.0073058
-0.00768353
-0.00776858
-0.00779417
-0.0078041
-0.00780881
-0.00781132
-0.00781271
-0.00781357
-0.0078139
-0.00781344
-0.0078125
-0.00781098
-0.00780829
-0.00780327
-0.00779262
-0.00776491
-0.00765902
-0.00726026
-0.0065271
-0.00686922
-0.00694837
-0.00697229
-0.00698151
-0.00698586
-0.00698817
-0.00698945
-0.00699026
-0.00699055
-0.00699011
-0.00698926
-0.00698788
-0.00698542
-0.00698084
-0.00697113
-0.00694588
-0.00684858
-0.00648654
-0.00559281
-0.0058951
-0.00596642
-0.00598805
-0.00599634
-0.00600023
-0.00600229
-0.00600342
-0.00600415
-0.00600441
-0.006004
-0.00600326
-0.00600204
-0.00599987
-0.00599583
-0.00598729
-0.00596509
-0.00587837
-0.00556886
-0.00451399
-0.00478328
-0.00484533
-0.00486424
-0.00487142
-0.00487476
-0.00487651
-0.00487748
-0.00487811
-0.00487832
-0.00487795
-0.00487732
-0.00487629
-0.00487445
-0.00487105
-0.00486385
-0.00484524
-0.00477022
-0.0045218
-0.00332803
-0.00355956
-0.0036111
-0.00362692
-0.00363288
-0.00363562
-0.00363705
-0.00363782
-0.00363835
-0.0036385
-0.00363817
-0.00363768
-0.00363686
-0.0036354
-0.00363269
-0.00362701
-0.00361253
-0.00355134
-0.00336813
-0.00207076
-0.00225238
-0.00229269
-0.00230512
-0.00230972
-0.0023118
-0.00231287
-0.00231344
-0.00231385
-0.00231395
-0.00231369
-0.00231335
-0.00231276
-0.00231172
-0.0023098
-0.0023058
-0.00229553
-0.00224973
-0.00213592
-0.000776699
-0.000894077
-0.000921544
-0.000930079
-0.000933128
-0.000934471
-0.000935143
-0.000935488
-0.000935764
-0.000935816
-0.000935625
-0.000935443
-0.000935106
-0.000934522
-0.000933433
-0.000931194
-0.000925232
-0.000895797
-0.000854141
0.00052738
0.00048213
0.000469568
0.000465596
0.000464304
0.000463782
0.000463543
0.000463435
0.000463306
0.000463302
0.00046341
0.000463432
0.000463503
0.000463627
0.000463865
0.000464347
0.000465953
0.00047865
0.000447458
0.00181451
0.00184267
0.00184762
0.00184851
0.00184913
0.00184953
0.00184979
0.00184997
0.00185003
0.0018501
0.00185014
0.00185002
0.00184984
0.00184952
0.00184893
0.0018477
0.00184496
0.00184104
0.00173881
0.00305583
0.00315603
0.00317975
0.00318589
0.00318855
0.00318992
0.0031907
0.00319116
0.00319141
0.00319154
0.0031915
0.00319124
0.00319083
0.00319007
0.00318868
0.00318581
0.00317889
0.00315904
0.00298868
0.00422191
0.00439191
0.00443444
0.004446
0.00445066
0.00445294
0.0044542
0.00445492
0.00445533
0.00445551
0.00445539
0.00445498
0.00445433
0.00445315
0.00445098
0.00444652
0.00443558
0.00440058
0.00416704
0.00528459
0.00552203
0.00558198
0.00559866
0.00560517
0.0056083
0.00560998
0.00561094
0.00561151
0.00561173
0.00561154
0.00561099
0.00561012
0.00560855
0.00560567
0.00559975
0.00558515
0.00553646
0.00524716
0.00621739
0.00652159
0.00659499
0.00661625
0.00662446
0.00662836
0.00663044
0.00663161
0.00663231
0.00663258
0.00663231
0.00663164
0.00663056
0.00662863
0.00662508
0.00661778
0.00659981
0.00653886
0.00620287
0.00699912
0.00736574
0.00744945
0.0074746
0.00748428
0.00748885
0.00749128
0.00749263
0.00749346
0.00749376
0.00749343
0.00749265
0.00749139
0.00748912
0.00748498
0.00747642
0.00745544
0.00738385
0.00701112
0.00761275
0.00803209
0.00812521
0.00815344
0.00816429
0.00816942
0.00817214
0.00817366
0.0081746
0.00817493
0.00817455
0.00817368
0.00817225
0.0081697
0.00816503
0.00815538
0.00813179
0.00805111
0.00765184
0.00804608
0.00850495
0.0086054
0.00863651
0.00864847
0.00865412
0.00865711
0.00865878
0.00865981
0.00866018
0.00865976
0.00865882
0.00865726
0.00865449
0.00864939
0.00863885
0.00861311
0.00852502
0.0081093
0.0082904
0.00877521
0.00888004
0.00891328
0.00892611
0.00893208
0.00893521
0.00893695
0.00893803
0.00893841
0.00893795
0.00893697
0.00893532
0.00893237
0.00892694
0.00891573
0.00888839
0.00879475
0.00837075
0.00833933
0.00883425
0.00894278
0.00897763
0.00899079
0.00899689
0.00900009
0.00900186
0.00900297
0.00900336
0.00900288
0.00900187
0.00900016
0.0089971
0.00899146
0.00897983
0.00895146
0.00885402
0.00842886
0.00819183
0.00868544
0.00879284
0.00882769
0.00884106
0.00884726
0.00885054
0.00885234
0.00885348
0.0088539
0.00885342
0.00885242
0.0088507
0.00884761
0.0088419
0.00883014
0.00880142
0.00870239
0.00828204
0.00784623
0.00833266
0.00843568
0.00846853
0.00848147
0.0084875
0.0084907
0.00849246
0.00849359
0.008494
0.00849352
0.00849253
0.00849084
0.00848778
0.00848212
0.00847045
0.0084421
0.00834473
0.00793305
0.00731158
0.0077802
0.00787806
0.00790822
0.00792045
0.00792614
0.00792915
0.00793082
0.00793188
0.00793226
0.00793179
0.00793083
0.00792921
0.00792628
0.00792086
0.00790971
0.0078827
0.00778977
0.00739202
0.00660245
0.00703988
0.00713286
0.00715984
0.00717117
0.00717643
0.0071792
0.00718072
0.00718167
0.00718202
0.00718158
0.00718066
0.00717914
0.0071764
0.00717134
0.00716093
0.00713575
0.00704909
0.00667779
0.0057356
0.00613306
0.00621734
0.0062408
0.0062511
0.00625586
0.00625832
0.00625969
0.00626045
0.00626084
0.00626053
0.0062596
0.00625821
0.00625573
0.00625115
0.00624169
0.00621876
0.00614098
0.00580711
0.00472889
0.00507846
0.00515423
0.00517371
0.00518228
0.00518629
0.00518834
0.00518948
0.00518994
0.00519037
0.00519025
0.0051893
0.00518804
0.00518587
0.00518184
0.00517349
0.0051532
0.00508646
0.00479941

