# vtk DataFile Version 2.0
OUTPUT by 3D-VPM
ASCII
DATASET UNSTRUCTURED_GRID
POINTS 540 double
1.204031e+00	1.711619e-02	-1.106505e-02
1.183811e+00	1.054939e+00	1.073660e-02
1.184064e+00	2.105708e+00	1.268250e-02
1.184134e+00	3.158025e+00	1.295952e-02
1.184163e+00	4.210578e+00	1.303860e-02
1.184177e+00	5.263183e+00	1.307026e-02
1.184184e+00	6.315803e+00	1.308569e-02
1.184188e+00	7.368429e+00	1.309408e-02
1.184190e+00	8.421057e+00	1.309885e-02
1.184203e+00	9.473515e+00	1.309268e-02
1.184203e+00	1.052649e+01	1.309261e-02
1.184190e+00	1.157894e+01	1.309874e-02
1.184188e+00	1.263157e+01	1.309396e-02
1.184184e+00	1.368420e+01	1.308546e-02
1.184176e+00	1.473682e+01	1.306983e-02
1.184161e+00	1.578942e+01	1.303768e-02
1.184129e+00	1.684198e+01	1.295727e-02
1.184043e+00	1.789433e+01	1.268030e-02
1.183575e+00	1.894591e+01	1.108390e-02
1.203786e+00	1.998282e+01	-1.141273e-02
1.213393e+00	1.764550e-02	1.062374e-02
1.197803e+00	1.058031e+00	7.329411e-03
1.197129e+00	2.106330e+00	7.471330e-03
1.197175e+00	3.158200e+00	7.547351e-03
1.197204e+00	4.210646e+00	7.571129e-03
1.197219e+00	5.263215e+00	7.580682e-03
1.197227e+00	6.315820e+00	7.585327e-03
1.197231e+00	7.368438e+00	7.587842e-03
1.197233e+00	8.421062e+00	7.589456e-03
1.197249e+00	9.473522e+00	7.588702e-03
1.197249e+00	1.052648e+01	7.588517e-03
1.197233e+00	1.157894e+01	7.589383e-03
1.197231e+00	1.263156e+01	7.588150e-03
1.197227e+00	1.368418e+01	7.585888e-03
1.197219e+00	1.473679e+01	7.581797e-03
1.197204e+00	1.578936e+01	7.573733e-03
1.197173e+00	1.684182e+01	7.555329e-03
1.197116e+00	1.789377e+01	7.510110e-03
1.197098e+00	1.894329e+01	7.562890e-03
1.213372e+00	1.998235e+01	9.285872e-03
1.204708e+00	1.583624e-02	4.653947e-03
1.194156e+00	1.053969e+00	-7.797027e-03
1.193494e+00	2.105516e+00	-7.960056e-03
1.193400e+00	3.157972e+00	-7.918559e-03
1.193381e+00	4.210558e+00	-7.903742e-03
1.193376e+00	5.263174e+00	-7.897674e-03
1.193374e+00	6.315798e+00	-7.894706e-03
1.193373e+00	7.368426e+00	-7.893078e-03
1.193372e+00	8.421055e+00	-7.891988e-03
1.193390e+00	9.473531e+00	-7.894237e-03
1.193390e+00	1.052647e+01	-7.894322e-03
1.193372e+00	1.157895e+01	-7.892004e-03
1.193373e+00	1.263157e+01	-7.892883e-03
1.193373e+00	1.368420e+01	-7.894342e-03
1.193374e+00	1.473683e+01	-7.896959e-03
1.193378e+00	1.578944e+01	-7.902118e-03
1.193391e+00	1.684203e+01	-7.913808e-03
1.193454e+00	1.789450e+01	-7.936405e-03
1.193474e+00	1.894636e+01	-7.736684e-03
1.204013e+00	1.998343e+01	4.292509e-03
1.202012e+00	1.063395e-02	1.559300e-02
1.207882e+00	1.054190e+00	2.552297e-03
1.207534e+00	2.105552e+00	1.471255e-03
1.207505e+00	3.157982e+00	1.230087e-03
1.207505e+00	4.210562e+00	1.157292e-03
1.207508e+00	5.263175e+00	1.128090e-03
1.207510e+00	6.315799e+00	1.113977e-03
1.207511e+00	7.368426e+00	1.106397e-03
1.207511e+00	8.421055e+00	1.101746e-03
1.207529e+00	9.473529e+00	1.105657e-03
1.207530e+00	1.052647e+01	1.105644e-03
1.207511e+00	1.157895e+01	1.101690e-03
1.207511e+00	1.263157e+01	1.106300e-03
1.207509e+00	1.368420e+01	1.113829e-03
1.207507e+00	1.473682e+01	1.127801e-03
1.207503e+00	1.578944e+01	1.156585e-03
1.207500e+00	1.684202e+01	1.227657e-03
1.207511e+00	1.789446e+01	1.471696e-03
1.207346e+00	1.894590e+01	2.242984e-03
1.202416e+00	1.998871e+01	1.546084e-02
1.186470e+00	1.382511e-02	1.708578e-02
1.191312e+00	1.053896e+00	2.578788e-02
1.192835e+00	2.105488e+00	2.608558e-02
1.193136e+00	3.157962e+00	2.614420e-02
1.193231e+00	4.210554e+00	2.616250e-02
1.193271e+00	5.263172e+00	2.616993e-02
1.193291e+00	6.315797e+00	2.617359e-02
1.193302e+00	7.368425e+00	2.617559e-02
1.193307e+00	8.421054e+00	2.617678e-02
1.193321e+00	9.473527e+00	2.617809e-02
1.193321e+00	1.052647e+01	2.617788e-02
1.193307e+00	1.157895e+01	2.617669e-02
1.193302e+00	1.263157e+01	2.617593e-02
1.193292e+00	1.368420e+01	2.617422e-02
1.193273e+00	1.473683e+01	2.617118e-02
1.193235e+00	1.578945e+01	2.616544e-02
1.193149e+00	1.684204e+01	2.615324e-02
1.192893e+00	1.789452e+01	2.613540e-02
1.192141e+00	1.894623e+01	2.635356e-02
1.186860e+00	1.998577e+01	1.836142e-02
1.176025e+00	1.243582e-02	1.593742e-02
1.174921e+00	1.053776e+00	2.998780e-02
1.175669e+00	2.105472e+00	3.096167e-02
1.175830e+00	3.157958e+00	3.112302e-02
1.175885e+00	4.210552e+00	3.117103e-02
1.175909e+00	5.263171e+00	3.119052e-02
1.175921e+00	6.315797e+00	3.120009e-02
1.175928e+00	7.368425e+00	3.120527e-02
1.175931e+00	8.421054e+00	3.120832e-02
1.175945e+00	9.473527e+00	3.120919e-02
1.175945e+00	1.052647e+01	3.120905e-02
1.175931e+00	1.157895e+01	3.120825e-02
1.175928e+00	1.263157e+01	3.120546e-02
1.175921e+00	1.368420e+01	3.120041e-02
1.175909e+00	1.473683e+01	3.119117e-02
1.175885e+00	1.578945e+01	3.117259e-02
1.175832e+00	1.684204e+01	3.112812e-02
1.175672e+00	1.789454e+01	3.099053e-02
1.175114e+00	1.894640e+01	3.087851e-02
1.176039e+00	1.998725e+01	1.714772e-02
1.166812e+00	1.069458e-02	1.665984e-02
1.162176e+00	1.053647e+00	3.118548e-02
1.162516e+00	2.105448e+00	3.226440e-02
1.162612e+00	3.157951e+00	3.243460e-02
1.162647e+00	4.210550e+00	3.248638e-02
1.162663e+00	5.263170e+00	3.250815e-02
1.162671e+00	6.315796e+00	3.251902e-02
1.162676e+00	7.368425e+00	3.252496e-02
1.162678e+00	8.421054e+00	3.252831e-02
1.162692e+00	9.473513e+00	3.252902e-02
1.162692e+00	1.052649e+01	3.252916e-02
1.162678e+00	1.157895e+01	3.252829e-02
1.162676e+00	1.263158e+01	3.252451e-02
1.162671e+00	1.368420e+01	3.251816e-02
1.162663e+00	1.473683e+01	3.250638e-02
1.162647e+00	1.578945e+01	3.248218e-02
1.162612e+00	1.684205e+01	3.242187e-02
1.162514e+00	1.789456e+01	3.220990e-02
1.162086e+00	1.894650e+01	3.143165e-02
1.166603e+00	1.998896e+01	1.728866e-02
1.157380e+00	1.004558e-02	1.725694e-02
1.150938e+00	1.053534e+00	3.081961e-02
1.151055e+00	2.105427e+00	3.184761e-02
1.151124e+00	3.157945e+00	3.200652e-02
1.151150e+00	4.210547e+00	3.205840e-02
1.151162e+00	5.263168e+00	3.208079e-02
1.151168e+00	6.315795e+00	3.209210e-02
1.151171e+00	7.368424e+00	3.209833e-02
1.151173e+00	8.421054e+00	3.210177e-02
1.151187e+00	9.473522e+00	3.210236e-02
1.151187e+00	1.052648e+01	3.210265e-02
1.151173e+00	1.157895e+01	3.210177e-02
1.151172e+00	1.263158e+01	3.209752e-02
1.151169e+00	1.368420e+01	3.209059e-02
1.151163e+00	1.473683e+01	3.207771e-02
1.151153e+00	1.578945e+01	3.205102e-02
1.151135e+00	1.684206e+01	3.198391e-02
1.151098e+00	1.789458e+01	3.174293e-02
1.151093e+00	1.894657e+01	3.046908e-02
1.157300e+00	1.998975e+01	1.698194e-02
1.148222e+00	1.026405e-02	1.654110e-02
1.140746e+00	1.053435e+00	2.931267e-02
1.140771e+00	2.105409e+00	3.021942e-02
1.140825e+00	3.157940e+00	3.038351e-02
1.140843e+00	4.210545e+00	3.043816e-02
1.140851e+00	5.263167e+00	3.046146e-02
1.140856e+00	6.315795e+00	3.047316e-02
1.140858e+00	7.368424e+00	3.047957e-02
1.140859e+00	8.421054e+00	3.048322e-02
1.140873e+00	9.473533e+00	3.048378e-02
1.140873e+00	1.052647e+01	3.048394e-02
1.140859e+00	1.157895e+01	3.048320e-02
1.140859e+00	1.263158e+01	3.047905e-02
1.140857e+00	1.368421e+01	3.047220e-02
1.140853e+00	1.473683e+01	3.045949e-02
1.140847e+00	1.578945e+01	3.043338e-02
1.140838e+00	1.684206e+01	3.036879e-02
1.140834e+00	1.789459e+01	3.014267e-02
1.141031e+00	1.894666e+01	2.894787e-02
1.148309e+00	1.998993e+01	1.615102e-02
1.139400e+00	9.371376e-03	1.498419e-02
1.131490e+00	1.053350e+00	2.693189e-02
1.131488e+00	2.105393e+00	2.771703e-02
1.131507e+00	3.157935e+00	2.790326e-02
1.131515e+00	4.210543e+00	2.796195e-02
1.131520e+00	5.263166e+00	2.798613e-02
1.131523e+00	6.315794e+00	2.799805e-02
1.131524e+00	7.368424e+00	2.800451e-02
1.131524e+00	8.421054e+00	2.800836e-02
1.131538e+00	9.473544e+00	2.800892e-02
1.131538e+00	1.052646e+01	2.800883e-02
1.131524e+00	1.157895e+01	2.800833e-02
1.131524e+00	1.263158e+01	2.800464e-02
1.131523e+00	1.368421e+01	2.799827e-02
1.131520e+00	1.473683e+01	2.798653e-02
1.131516e+00	1.578946e+01	2.796282e-02
1.131508e+00	1.684207e+01	2.790589e-02
1.131504e+00	1.789461e+01	2.771383e-02
1.131641e+00	1.894672e+01	2.679599e-02
1.139442e+00	1.999091e+01	1.486818e-02
1.130451e+00	8.679433e-03	1.393333e-02
1.122986e+00	1.053305e+00	2.397896e-02
1.123010e+00	2.105383e+00	2.463875e-02
1.122990e+00	3.157932e+00	2.483887e-02
1.122991e+00	4.210542e+00	2.489811e-02
1.122993e+00	5.263166e+00	2.492187e-02
1.122995e+00	6.315794e+00	2.493340e-02
1.122995e+00	7.368424e+00	2.493958e-02
1.122995e+00	8.421054e+00	2.494338e-02
1.123007e+00	9.473530e+00	2.494409e-02
1.123008e+00	1.052647e+01	2.494384e-02
1.122995e+00	1.157895e+01	2.494332e-02
1.122995e+00	1.263158e+01	2.494011e-02
1.122994e+00	1.368421e+01	2.493437e-02
1.122991e+00	1.473683e+01	2.492384e-02
1.122987e+00	1.578946e+01	2.490282e-02
1.122978e+00	1.684207e+01	2.485365e-02
1.122965e+00	1.789462e+01	2.469029e-02
1.123000e+00	1.894673e+01	2.400615e-02
1.130450e+00	1.999138e+01	1.399294e-02
1.121678e+00	8.451019e-03	1.264231e-02
1.114909e+00	1.053240e+00	2.073091e-02
1.115052e+00	2.105370e+00	2.124793e-02
1.115039e+00	3.157928e+00	2.142899e-02
1.115042e+00	4.210541e+00	2.148215e-02
1.115044e+00	5.263165e+00	2.150337e-02
1.115046e+00	6.315794e+00	2.151361e-02
1.115047e+00	7.368423e+00	2.151908e-02
1.115047e+00	8.421054e+00	2.152245e-02
1.115059e+00	9.473531e+00	2.152307e-02
1.115059e+00	1.052647e+01	2.152277e-02
1.115047e+00	1.157895e+01	2.152229e-02
1.115047e+00	1.263158e+01	2.151943e-02
1.115046e+00	1.368421e+01	2.151429e-02
1.115043e+00	1.473683e+01	2.150489e-02
1.115038e+00	1.578946e+01	2.148619e-02
1.115029e+00	1.684207e+01	2.144287e-02
1.115012e+00	1.789463e+01	2.129981e-02
1.114965e+00	1.894677e+01	2.078698e-02
1.121719e+00	1.999152e+01	1.264328e-02
1.113218e+00	8.162573e-03	1.070720e-02
1.107182e+00	1.053187e+00	1.726801e-02
1.107377e+00	2.105359e+00	1.772162e-02
1.107395e+00	3.157925e+00	1.787080e-02
1.107403e+00	4.210539e+00	1.791548e-02
1.107408e+00	5.263165e+00	1.793344e-02
1.107411e+00	6.315793e+00	1.794211e-02
1.107412e+00	7.368423e+00	1.794673e-02
1.107413e+00	8.421054e+00	1.794955e-02
1.107424e+00	9.473533e+00	1.795007e-02
1.107424e+00	1.052647e+01	1.794980e-02
1.107413e+00	1.157895e+01	1.794928e-02
1.107413e+00	1.263158e+01	1.794672e-02
[...]
CELL_DATA 494
SCALARS Mu double 1
LOOKUP_TABLE default
-2.66312e-11
-3.10664e-11
-3.18437e-11
-3.20552e-11
-3.21323e-11
-3.21718e-11
-3.21894e-11
-3.2205e-11
-3.22268e-11
-3.22102e-11
-3.22278e-11
-3.22073e-11
-3.21913e-11
-3.21714e-11
-3.21368e-11
-3.20551e-11
-3.18426e-11
-3.10702e-11
-2.66293e-11
0.00415121
0.00443406
0.00448509
0.00449967
0.00450535
0.00450804
0.00450948
0.00451029
0.00451071
0.00451085
0.00451071
0.00451029
0.00450948
0.00450804
0.00450535
0.00449967
0.00448509
0.00443406
0.00415121
0.00559784
0.00596326
0.00603655
0.00605728
0.0060653
0.00606909
0.00607111
0.00607224
0.0060729
0.00607312
0.00607289
0.00607226
0.00607116
0.00606918
0.00606547
0.00605767
0.0060378
0.00596923
0.00564305
0.00640968
0.00693568
0.00702847
0.00705412
0.00706391
0.0070685
0.00707094
0.00707229
0.00707316
0.0070734
0.00707305
0.00707236
0.00707106
0.00706873
0.00706438
0.00705529
0.00703244
0.00695572
0.00671908
0.0069648
0.00755651
0.00765777
0.00768596
0.00769675
0.00770181
0.0077045
0.00770599
0.00770694
0.00770723
0.00770685
0.00770605
0.0077046
0.00770201
0.00769715
0.00768698
0.00766127
0.00757311
0.00733451
0.00726833
0.00788298
0.00798796
0.00801715
0.00802839
0.00803369
0.00803651
0.00803807
0.00803905
0.00803939
0.008039
0.0080381
0.00803655
0.00803377
0.00802854
0.00801754
0.00798942
0.00788835
0.007577
0.00733533
0.00794558
0.00804937
0.0080786
0.00808994
0.00809532
0.00809817
0.00809976
0.00810073
0.00810112
0.00810073
0.00809976
0.00809816
0.00809528
0.00808987
0.00807842
0.00804897
0.00794052
0.00752251
0.00717642
0.00775941
0.00786198
0.00789115
0.00790248
0.00790784
0.00791069
0.00791227
0.00791325
0.00791363
0.00791323
0.00791227
0.00791067
0.00790781
0.00790243
0.00789104
0.00786183
0.00775361
0.00731422
0.00680116
0.00734184
0.00744473
0.00747379
0.00748499
0.00749026
0.00749305
0.0074946
0.00749559
0.00749595
0.00749554
0.00749464
0.0074931
0.00749035
0.00748519
0.00747431
0.00744667
0.00734469
0.00694306
0.00622373
0.00671545
0.006818
0.00684641
0.00685723
0.0068623
0.00686497
0.00686644
0.00686742
0.00686774
0.00686733
0.00686651
0.00686508
0.00686251
0.0068577
0.00684762
0.00682229
0.0067289
0.00638513
0.00546651
0.0059058
0.00600398
0.0060307
0.00604079
0.00604548
0.00604795
0.0060493
0.00605022
0.00605051
0.00605011
0.00604939
0.00604809
0.00604576
0.00604139
0.00603228
0.00600961
0.00592591
0.00564692
0.00454778
0.00493779
0.00502658
0.00505052
0.00505952
0.00506368
0.00506586
0.00506705
0.00506788
0.00506812
0.00506775
0.00506713
0.00506598
0.00506393
0.00506008
0.00505208
0.00503231
0.00495926
0.00474823
0.00347496
0.00383336
0.00391132
0.00393196
0.00393968
0.00394323
0.00394508
0.00394609
0.00394679
0.003947
0.00394669
0.00394617
0.0039452
0.00394347
0.00394023
0.00393349
0.00391693
0.00385573
0.00371128
0.00229078
0.0026212
0.00268695
0.00270386
0.00271013
0.00271301
0.0027145
0.00271531
0.00271587
0.00271604
0.0027158
0.00271539
0.00271464
0.00271327
0.00271071
0.0027054
0.00269243
0.00264445
0.00256079
0.00105664
0.00133609
0.00138515
0.0013975
0.00140205
0.00140412
0.00140519
0.00140577
0.00140617
0.0014063
0.00140612
0.00140584
0.00140531
0.00140435
0.00140255
0.00139881
0.00138982
0.00135657
0.00132289
-0.000209143
6.43864e-06
3.77109e-05
4.5225e-05
4.79346e-05
4.91465e-05
4.97616e-05
5.00891e-05
5.03252e-05
5.03915e-05
5.02853e-05
5.01526e-05
4.9865e-05
4.93396e-05
4.83492e-05
4.63025e-05
4.16187e-05
2.43149e-05
3.41971e-05
-0.00147823
-0.00133624
-0.00132229
-0.00131959
-0.00131872
-0.00131838
-0.00131822
-0.00131815
-0.00131807
-0.00131807
-0.0013181
-0.00131809
-0.00131812
-0.00131819
-0.00131834
-0.00131862
-0.0013188
-0.00131969
-0.00126034
-0.0027229
-0.00265853
-0.00266119
-0.0026632
-0.00266413
-0.00266463
-0.00266492
-0.0026651
-0.00266518
-0.00266523
-0.00266519
-0.00266503
-0.00266481
-0.00266443
-0.00266372
-0.00266221
-0.00265782
-0.00264222
-0.00252414
-0.0039124
-0.00392742
-0.00394586
-0.00395235
-0.00395502
-0.00395634
-0.00395707
-0.00395749
-0.00395773
-0.00395783
-0.00395772
-0.0039574
-0.00395693
-0.0039561
-0.00395456
-0.00395128
-0.00394238
-0.0039105
-0.00373133
-0.00501246
-0.00511084
-0.0051444
-0.00515517
-0.0051595
-0.00516161
-0.00516276
-0.00516341
-0.00516379
-0.00516396
-0.00516378
-0.00516331
-0.0051626
-0.00516134
-0.005159
-0.00515403
-0.00514076
-0.00509319
-0.00485636
-0.00599743
-0.00617912
-0.00622714
-0.00624195
-0.00624786
-0.00625073
-0.00625228
-0.00625316
-0.00625368
-0.0062539
-0.00625367
-0.00625306
-0.00625214
-0.00625048
-0.00624739
-0.00624084
-0.00622349
-0.00616118
-0.00587251
-0.00684815
-0.00710615
-0.00716781
-0.00718629
-0.00719359
-0.00719711
-0.007199
-0.00720007
-0.0072007
-0.00720097
-0.00720069
-0.00719995
-0.00719882
-0.00719681
-0.00719304
-0.00718506
-0.00716403
-0.00708828
-0.00675498
-0.00754625
-0.00786968
-0.00794355
-0.00796506
-0.00797352
-0.00797758
-0.00797977
-0.00798099
-0.00798172
-0.00798204
-0.0079817
-0.00798085
-0.00797955
-0.00797723
-0.00797288
-0.00796367
-0.00793946
-0.00785187
-0.00748208
-0.00807533
-0.0084516
-0.00853532
-0.00855931
-0.00856871
-0.00857322
-0.00857565
-0.008577
-0.00857781
-0.00857816
-0.00857778
-0.00857685
-0.0085754
-0.00857283
-0.008568
-0.00855777
-0.00853098
-0.00843343
-0.00803566
-0.00842295
-0.00883826
-0.00892879
-0.00895469
-0.00896483
-0.00896968
-0.00897229
-0.00897375
-0.00897462
-0.00897499
-0.00897458
-0.00897358
-0.00897202
-0.00896926
-0.00896407
-0.00895308
-0.00892435
-0.008819
-0.00840153

