# vtk DataFile Version 2.0
OUTPUT by 3D-VPM
ASCII
DATASET UNSTRUCTURED_GRID
POINTS 520 double
1.195887e+00	1.633492e-02	-1.153557e-02
1.174839e+00	1.054744e+00	8.494511e-03
1.174914e+00	2.105671e+00	1.036564e-02
1.174961e+00	3.158014e+00	1.063517e-02
1.174983e+00	4.210574e+00	1.071222e-02
1.174994e+00	5.263181e+00	1.074306e-02
1.175000e+00	6.315802e+00	1.075808e-02
1.175003e+00	7.368428e+00	1.076625e-02
1.175004e+00	8.421056e+00	1.077091e-02
1.175018e+00	9.473515e+00	1.076435e-02
1.175018e+00	1.052648e+01	1.076430e-02
1.175004e+00	1.157894e+01	1.077080e-02
1.175003e+00	1.263157e+01	1.076611e-02
1.174999e+00	1.368420e+01	1.075782e-02
1.174993e+00	1.473682e+01	1.074255e-02
1.174981e+00	1.578943e+01	1.071111e-02
1.174955e+00	1.684199e+01	1.063225e-02
1.174893e+00	1.789436e+01	1.035969e-02
1.174564e+00	1.894601e+01	8.779739e-03
1.195664e+00	1.998362e+01	-1.187762e-02
1.203847e+00	1.821539e-02	1.072172e-02
1.188650e+00	1.057678e+00	6.454722e-03
1.188058e+00	2.106253e+00	6.621940e-03
1.188098e+00	3.158178e+00	6.698082e-03
1.188124e+00	4.210637e+00	6.721525e-03
1.188138e+00	5.263211e+00	6.730894e-03
1.188145e+00	6.315818e+00	6.735438e-03
1.188149e+00	7.368437e+00	6.737898e-03
1.188151e+00	8.421062e+00	6.739481e-03
1.188166e+00	9.473523e+00	6.738549e-03
1.188166e+00	1.052648e+01	6.738379e-03
1.188151e+00	1.157894e+01	6.739420e-03
1.188149e+00	1.263156e+01	6.738198e-03
1.188145e+00	1.368418e+01	6.735986e-03
1.188138e+00	1.473679e+01	6.731978e-03
1.188124e+00	1.578937e+01	6.724046e-03
1.188096e+00	1.684184e+01	6.705770e-03
1.188043e+00	1.789383e+01	6.659301e-03
1.187993e+00	1.894351e+01	6.694338e-03
1.203940e+00	1.998176e+01	9.527643e-03
1.196368e+00	1.496022e-02	3.818374e-03
1.186691e+00	1.053883e+00	-8.674322e-03
1.186056e+00	2.105499e+00	-8.899547e-03
1.185961e+00	3.157967e+00	-8.880583e-03
1.185942e+00	4.210556e+00	-8.873056e-03
1.185936e+00	5.263173e+00	-8.869989e-03
1.185934e+00	6.315798e+00	-8.868492e-03
1.185933e+00	7.368426e+00	-8.867661e-03
1.185931e+00	8.421055e+00	-8.867054e-03
1.185950e+00	9.473532e+00	-8.869034e-03
1.185950e+00	1.052647e+01	-8.869101e-03
1.185932e+00	1.157895e+01	-8.867064e-03
1.185933e+00	1.263157e+01	-8.867496e-03
1.185933e+00	1.368420e+01	-8.868183e-03
1.185935e+00	1.473683e+01	-8.869385e-03
1.185939e+00	1.578944e+01	-8.871695e-03
1.185952e+00	1.684204e+01	-8.876646e-03
1.186014e+00	1.789451e+01	-8.879503e-03
1.186011e+00	1.894641e+01	-8.651600e-03
1.195709e+00	1.998438e+01	3.365804e-03
1.192653e+00	1.086693e-02	1.520818e-02
1.199360e+00	1.054115e+00	3.823775e-03
1.199159e+00	2.105536e+00	2.639432e-03
1.199167e+00	3.157977e+00	2.384256e-03
1.199178e+00	4.210560e+00	2.307468e-03
1.199185e+00	5.263174e+00	2.276659e-03
1.199189e+00	6.315798e+00	2.261763e-03
1.199192e+00	7.368426e+00	2.253760e-03
1.199192e+00	8.421055e+00	2.248848e-03
1.199210e+00	9.473530e+00	2.252993e-03
1.199210e+00	1.052647e+01	2.252996e-03
1.199192e+00	1.157895e+01	2.248801e-03
1.199191e+00	1.263157e+01	2.253645e-03
1.199189e+00	1.368420e+01	2.261583e-03
1.199185e+00	1.473683e+01	2.276305e-03
1.199177e+00	1.578944e+01	2.306597e-03
1.199163e+00	1.684202e+01	2.381262e-03
1.199141e+00	1.789447e+01	2.636846e-03
1.198888e+00	1.894597e+01	3.451432e-03
1.193059e+00	1.998852e+01	1.511262e-02
1.177442e+00	1.352035e-02	1.611201e-02
1.181658e+00	1.053845e+00	2.480846e-02
1.183074e+00	2.105479e+00	2.516503e-02
1.183356e+00	3.157960e+00	2.522969e-02
1.183445e+00	4.210553e+00	2.524930e-02
1.183483e+00	5.263171e+00	2.525717e-02
1.183501e+00	6.315797e+00	2.526102e-02
1.183511e+00	7.368425e+00	2.526312e-02
1.183517e+00	8.421054e+00	2.526438e-02
1.183530e+00	9.473528e+00	2.526553e-02
1.183530e+00	1.052647e+01	2.526532e-02
1.183517e+00	1.157895e+01	2.526429e-02
1.183512e+00	1.263157e+01	2.526348e-02
1.183502e+00	1.368420e+01	2.526169e-02
1.183484e+00	1.473683e+01	2.525850e-02
1.183449e+00	1.578945e+01	2.525242e-02
1.183368e+00	1.684204e+01	2.523932e-02
1.183129e+00	1.789453e+01	2.521729e-02
1.182436e+00	1.894627e+01	2.542118e-02
1.177796e+00	1.998611e+01	1.734903e-02
1.167176e+00	1.200154e-02	1.508948e-02
1.165841e+00	1.053718e+00	2.857839e-02
1.166535e+00	2.105461e+00	2.952248e-02
1.166687e+00	3.157955e+00	2.967700e-02
1.166738e+00	4.210551e+00	2.972278e-02
1.166761e+00	5.263170e+00	2.974132e-02
1.166772e+00	6.315796e+00	2.975042e-02
1.166779e+00	7.368425e+00	2.975534e-02
1.166782e+00	8.421054e+00	2.975824e-02
1.166796e+00	9.473528e+00	2.975901e-02
1.166796e+00	1.052647e+01	2.975888e-02
1.166782e+00	1.157895e+01	2.975818e-02
1.166779e+00	1.263158e+01	2.975553e-02
1.166772e+00	1.368420e+01	2.975075e-02
1.166761e+00	1.473683e+01	2.974198e-02
1.166739e+00	1.578945e+01	2.972434e-02
1.166688e+00	1.684205e+01	2.968208e-02
1.166538e+00	1.789455e+01	2.955086e-02
1.166013e+00	1.894644e+01	2.945590e-02
1.167193e+00	1.998772e+01	1.626534e-02
1.157990e+00	1.040109e-02	1.579505e-02
1.153401e+00	1.053597e+00	2.958469e-02
1.153716e+00	2.105439e+00	3.061437e-02
1.153806e+00	3.157948e+00	3.077521e-02
1.153839e+00	4.210549e+00	3.082403e-02
1.153854e+00	5.263169e+00	3.084454e-02
1.153862e+00	6.315796e+00	3.085478e-02
1.153866e+00	7.368425e+00	3.086037e-02
1.153868e+00	8.421054e+00	3.086353e-02
1.153882e+00	9.473514e+00	3.086414e-02
1.153882e+00	1.052649e+01	3.086428e-02
1.153868e+00	1.157895e+01	3.086352e-02
1.153866e+00	1.263158e+01	3.085994e-02
1.153862e+00	1.368420e+01	3.085396e-02
1.153854e+00	1.473683e+01	3.084284e-02
1.153839e+00	1.578945e+01	3.081997e-02
1.153806e+00	1.684205e+01	3.076290e-02
1.153713e+00	1.789457e+01	3.056145e-02
1.153312e+00	1.894654e+01	2.982357e-02
1.157798e+00	1.998925e+01	1.639380e-02
1.148610e+00	9.790055e-03	1.636713e-02
1.142399e+00	1.053489e+00	2.912183e-02
1.142510e+00	2.105418e+00	3.009368e-02
1.142575e+00	3.157943e+00	3.024232e-02
1.142599e+00	4.210546e+00	3.029087e-02
1.142611e+00	5.263168e+00	3.031182e-02
1.142616e+00	6.315795e+00	3.032242e-02
1.142619e+00	7.368424e+00	3.032825e-02
1.142621e+00	8.421054e+00	3.033147e-02
1.142634e+00	9.473523e+00	3.033196e-02
1.142634e+00	1.052648e+01	3.033224e-02
1.142621e+00	1.157895e+01	3.033147e-02
1.142620e+00	1.263158e+01	3.032747e-02
1.142617e+00	1.368420e+01	3.032098e-02
1.142612e+00	1.473683e+01	3.030887e-02
1.142602e+00	1.578945e+01	3.028379e-02
1.142584e+00	1.684206e+01	3.022062e-02
1.142549e+00	1.789458e+01	2.999299e-02
1.142540e+00	1.894661e+01	2.878481e-02
1.148544e+00	1.999004e+01	1.609163e-02
1.139518e+00	9.929743e-03	1.550448e-02
1.132398e+00	1.053392e+00	2.759152e-02
1.132427e+00	2.105401e+00	2.844137e-02
1.132477e+00	3.157937e+00	2.859427e-02
1.132495e+00	4.210544e+00	2.864521e-02
1.132503e+00	5.263167e+00	2.866693e-02
1.132507e+00	6.315794e+00	2.867784e-02
1.132509e+00	7.368424e+00	2.868381e-02
1.132510e+00	8.421054e+00	2.868722e-02
1.132523e+00	9.473534e+00	2.868768e-02
1.132523e+00	1.052647e+01	2.868784e-02
1.132510e+00	1.157895e+01	2.868720e-02
1.132509e+00	1.263158e+01	2.868333e-02
1.132508e+00	1.368421e+01	2.867694e-02
1.132504e+00	1.473683e+01	2.866508e-02
1.132499e+00	1.578946e+01	2.864071e-02
1.132489e+00	1.684206e+01	2.858036e-02
1.132483e+00	1.789460e+01	2.836856e-02
1.132653e+00	1.894669e+01	2.724460e-02
1.139600e+00	1.999025e+01	1.514110e-02
1.130701e+00	9.002687e-03	1.412982e-02
1.123271e+00	1.053308e+00	2.525367e-02
1.123279e+00	2.105385e+00	2.598319e-02
1.123298e+00	3.157932e+00	2.615625e-02
1.123306e+00	4.210542e+00	2.621075e-02
1.123311e+00	5.263166e+00	2.623319e-02
1.123313e+00	6.315794e+00	2.624425e-02
1.123315e+00	7.368424e+00	2.625024e-02
1.123315e+00	8.421054e+00	2.625381e-02
1.123328e+00	9.473546e+00	2.625429e-02
1.123328e+00	1.052645e+01	2.625421e-02
1.123315e+00	1.157895e+01	2.625379e-02
1.123315e+00	1.263158e+01	2.625037e-02
1.123313e+00	1.368421e+01	2.624447e-02
1.123311e+00	1.473683e+01	2.623359e-02
1.123306e+00	1.578946e+01	2.621161e-02
1.123299e+00	1.684207e+01	2.615885e-02
1.123291e+00	1.789462e+01	2.598042e-02
1.123403e+00	1.894675e+01	2.512378e-02
1.130737e+00	1.999125e+01	1.403113e-02
1.121781e+00	8.372822e-03	1.311183e-02
1.114824e+00	1.053265e+00	2.239988e-02
1.114857e+00	2.105375e+00	2.300678e-02
1.114843e+00	3.157930e+00	2.319147e-02
1.114845e+00	4.210541e+00	2.324613e-02
1.114847e+00	5.263165e+00	2.326804e-02
1.114849e+00	6.315794e+00	2.327867e-02
1.114850e+00	7.368423e+00	2.328436e-02
1.114850e+00	8.421054e+00	2.328787e-02
1.114862e+00	9.473531e+00	2.328849e-02
1.114862e+00	1.052647e+01	2.328825e-02
1.114850e+00	1.157895e+01	2.328781e-02
1.114850e+00	1.263158e+01	2.328486e-02
1.114848e+00	1.368421e+01	2.327958e-02
1.114846e+00	1.473683e+01	2.326989e-02
1.114841e+00	1.578946e+01	2.325053e-02
1.114832e+00	1.684207e+01	2.320528e-02
1.114818e+00	1.789463e+01	2.305470e-02
1.114836e+00	1.894677e+01	2.242144e-02
1.121783e+00	1.999167e+01	1.315589e-02
1.113040e+00	8.150123e-03	1.186269e-02
1.106753e+00	1.053202e+00	1.928918e-02
1.106887e+00	2.105363e+00	1.976123e-02
1.106880e+00	3.157926e+00	1.992733e-02
1.106883e+00	4.210540e+00	1.997608e-02
1.106886e+00	5.263165e+00	1.999552e-02
1.106888e+00	6.315793e+00	2.000490e-02
1.106889e+00	7.368423e+00	2.000991e-02
1.106889e+00	8.421054e+00	2.001300e-02
1.106900e+00	9.473533e+00	2.001354e-02
1.106900e+00	1.052647e+01	2.001326e-02
1.106889e+00	1.157895e+01	2.001284e-02
1.106889e+00	1.263158e+01	2.001024e-02
1.106888e+00	1.368421e+01	2.000553e-02
1.106885e+00	1.473684e+01	1.999694e-02
1.106880e+00	1.578946e+01	1.997985e-02
1.106871e+00	1.684207e+01	1.994030e-02
1.106853e+00	1.789464e+01	1.980952e-02
1.106798e+00	1.894681e+01	1.933998e-02
1.113073e+00	1.999183e+01	1.186258e-02
1.104551e+00	7.803420e-03	1.003296e-02
1.098977e+00	1.053152e+00	1.600088e-02
1.099147e+00	2.105352e+00	1.641414e-02
1.099165e+00	3.157923e+00	1.655050e-02
1.099174e+00	4.210538e+00	1.659125e-02
1.099179e+00	5.263164e+00	1.660761e-02
1.099181e+00	6.315793e+00	1.661550e-02
1.099183e+00	7.368423e+00	1.661971e-02
1.099183e+00	8.421054e+00	1.662228e-02
1.099193e+00	9.473535e+00	1.662273e-02
1.099193e+00	1.052647e+01	1.662249e-02
1.099184e+00	1.157895e+01	1.662203e-02
1.099183e+00	1.263158e+01	1.661971e-02
[...]
CELL_DATA 475
SCALARS Mu double 1
LOOKUP_TABLE default
-2.66312e-11
-3.10664e-11
-3.18437e-11
-3.20552e-11
-3.21323e-11
-3.21718e-11
-3.21894e-11
-3.2205e-11
-3.22268e-11
-3.22102e-11
-3.22278e-11
-3.22073e-11
-3.21913e-11
-3.21714e-11
-3.21368e-11
-3.20551e-11
-3.18426e-11
-3.10702e-11
-2.66293e-11
0.00415121
0.00443406
0.00448509
0.00449967
0.00450535
0.00450804
0.00450948
0.00451029
0.00451071
0.00451085
0.00451071
0.00451029
0.00450948
0.00450804
0.00450535
0.00449967
0.00448509
0.00443406
0.00415121
0.00559784
0.00596326
0.00603655
0.00605728
0.0060653
0.00606909
0.00607111
0.00607224
0.0060729
0.00607312
0.00607289
0.00607226
0.00607116
0.00606918
0.00606547
0.00605767
0.0060378
0.00596923
0.00564305
0.00640968
0.00693568
0.00702847
0.00705412
0.00706391
0.0070685
0.00707094
0.00707229
0.00707316
0.0070734
0.00707305
0.00707236
0.00707106
0.00706873
0.00706438
0.00705529
0.00703244
0.00695572
0.00671908
0.0069648
0.00755651
0.00765777
0.00768596
0.00769675
0.00770181
0.0077045
0.00770599
0.00770694
0.00770723
0.00770685
0.00770605
0.0077046
0.00770201
0.00769715
0.00768698
0.00766127
0.00757311
0.00733451
0.00726833
0.00788298
0.00798796
0.00801715
0.00802839
0.00803369
0.00803651
0.00803807
0.00803905
0.00803939
0.008039
0.0080381
0.00803655
0.00803377
0.00802854
0.00801754
0.00798942
0.00788835
0.007577
0.00733533
0.00794558
0.00804937
0.0080786
0.00808994
0.00809532
0.00809817
0.00809976
0.00810073
0.00810112
0.00810073
0.00809976
0.00809816
0.00809528
0.00808987
0.00807842
0.00804897
0.00794052
0.00752251
0.00717642
0.00775941
0.00786198
0.00789115
0.00790248
0.00790784
0.00791069
0.00791227
0.00791325
0.00791363
0.00791323
0.00791227
0.00791067
0.00790781
0.00790243
0.00789104
0.00786183
0.00775361
0.00731422
0.00680116
0.00734184
0.00744473
0.00747379
0.00748499
0.00749026
0.00749305
0.0074946
0.00749559
0.00749595
0.00749554
0.00749464
0.0074931
0.00749035
0.00748519
0.00747431
0.00744667
0.00734469
0.00694306
0.00622373
0.00671545
0.006818
0.00684641
0.00685723
0.0068623
0.00686497
0.00686644
0.00686742
0.00686774
0.00686733
0.00686651
0.00686508
0.00686251
0.0068577
0.00684762
0.00682229
0.0067289
0.00638513
0.00546651
0.0059058
0.00600398
0.0060307
0.00604079
0.00604548
0.00604795
0.0060493
0.00605022
0.00605051
0.00605011
0.00604939
0.00604809
0.00604576
0.00604139
0.00603228
0.00600961
0.00592591
0.00564692
0.00454778
0.00493779
0.00502658
0.00505052
0.00505952
0.00506368
0.00506586
0.00506705
0.00506788
0.00506812
0.00506775
0.00506713
0.00506598
0.00506393
0.00506008
0.00505208
0.00503231
0.00495926
0.00474823
0.00347496
0.00383336
0.00391132
0.00393196
0.00393968
0.00394323
0.00394508
0.00394609
0.00394679
0.003947
0.00394669
0.00394617
0.0039452
0.00394347
0.00394023
0.00393349
0.00391693
0.00385573
0.00371128
0.00229078
0.0026212
0.00268695
0.00270386
0.00271013
0.00271301
0.0027145
0.00271531
0.00271587
0.00271604
0.0027158
0.00271539
0.00271464
0.00271327
0.00271071
0.0027054
0.00269243
0.00264445
0.00256079
0.00105664
0.00133609
0.00138515
0.0013975
0.00140205
0.00140412
0.00140519
0.00140577
0.00140617
0.0014063
0.00140612
0.00140584
0.00140531
0.00140435
0.00140255
0.00139881
0.00138982
0.00135657
0.00132289
-0.000209143
6.43864e-06
3.77109e-05
4.5225e-05
4.79346e-05
4.91465e-05
4.97616e-05
5.00891e-05
5.03252e-05
5.03915e-05
5.02853e-05
5.01526e-05
4.9865e-05
4.93396e-05
4.83492e-05
4.63025e-05
4.16187e-05
2.43149e-05
3.41971e-05
-0.00147823
-0.00133624
-0.00132229
-0.00131959
-0.00131872
-0.00131838
-0.00131822
-0.00131815
-0.00131807
-0.00131807
-0.0013181
-0.00131809
-0.00131812
-0.00131819
-0.00131834
-0.00131862
-0.0013188
-0.00131969
-0.00126034
-0.0027229
-0.00265853
-0.00266119
-0.0026632
-0.00266413
-0.00266463
-0.00266492
-0.0026651
-0.00266518
-0.00266523
-0.00266519
-0.00266503
-0.00266481
-0.00266443
-0.00266372
-0.00266221
-0.00265782
-0.00264222
-0.00252414
-0.0039124
-0.00392742
-0.00394586
-0.00395235
-0.00395502
-0.00395634
-0.00395707
-0.00395749
-0.00395773
-0.00395783
-0.00395772
-0.0039574
-0.00395693
-0.0039561
-0.00395456
-0.00395128
-0.00394238
-0.0039105
-0.00373133
-0.00501246
-0.00511084
-0.0051444
-0.00515517
-0.0051595
-0.00516161
-0.00516276
-0.00516341
-0.00516379
-0.00516396
-0.00516378
-0.00516331
-0.0051626
-0.00516134
-0.005159
-0.00515403
-0.00514076
-0.00509319
-0.00485636
-0.00599743
-0.00617912
-0.00622714
-0.00624195
-0.00624786
-0.00625073
-0.00625228
-0.00625316
-0.00625368
-0.0062539
-0.00625367
-0.00625306
-0.00625214
-0.00625048
-0.00624739
-0.00624084
-0.00622349
-0.00616118
-0.00587251
-0.00684815
-0.00710615
-0.00716781
-0.00718629
-0.00719359
-0.00719711
-0.007199
-0.00720007
-0.0072007
-0.00720097
-0.00720069
-0.00719995
-0.00719882
-0.00719681
-0.00719304
-0.00718506
-0.00716403
-0.00708828
-0.00675498
-0.00754625
-0.00786968
-0.00794355
-0.00796506
-0.00797352
-0.00797758
-0.00797977
-0.00798099
-0.00798172
-0.00798204
-0.0079817
-0.00798085
-0.00797955
-0.00797723
-0.00797288
-0.00796367
-0.00793946
-0.00785187
-0.00748208
-0.00807533
-0.0084516
-0.00853532
-0.00855931
-0.00856871
-0.00857322
-0.00857565
-0.008577
-0.00857781
-0.00857816
-0.00857778
-0.00857685
-0.0085754
-0.00857283
-0.008568
-0.00855777
-0.00853098
-0.00843343
-0.00803566

