# vtk DataFile Version 2.0
OUTPUT by 3D-VPM
ASCII
DATASET UNSTRUCTURED_GRID
POINTS 1640 double
8.027889e+01	1.026789e+00	-3.300128e+00
8.022396e+01	1.949585e+00	-1.571222e+00
8.099023e+01	2.428596e+00	-2.753198e+00
8.037091e+01	3.475129e+00	-2.539106e+00
8.050046e+01	4.473761e+00	-1.780333e+00
8.075441e+01	5.522130e+00	-1.726917e+00
8.068340e+01	6.521030e+00	-1.712333e+00
8.062106e+01	7.500234e+00	-1.558898e+00
8.064675e+01	8.495859e+00	-1.498570e+00
8.064135e+01	9.498248e+00	-1.488861e+00
8.064133e+01	1.050209e+01	-1.488888e+00
8.064666e+01	1.150451e+01	-1.498649e+00
8.062088e+01	1.250021e+01	-1.559008e+00
8.068301e+01	1.347957e+01	-1.712437e+00
8.075363e+01	1.447876e+01	-1.727093e+00
8.049975e+01	1.552849e+01	-1.780407e+00
8.036791e+01	1.653472e+01	-2.537671e+00
8.096867e+01	1.757740e+01	-2.762336e+00
8.028355e+01	1.809363e+01	-1.526511e+00
7.995492e+01	1.883895e+01	-3.121989e+00
7.949312e+01	1.174908e+00	-3.462569e+00
7.990386e+01	1.267917e+00	-8.827974e-01
7.961189e+01	2.440663e+00	-3.426985e+00
7.914456e+01	3.462915e+00	-1.622254e+00
7.940010e+01	4.490988e+00	-1.016678e+00
7.940291e+01	5.475101e+00	-1.179856e+00
7.931927e+01	6.427628e+00	-9.838334e-01
7.930457e+01	7.447347e+00	-8.880730e-01
7.929364e+01	8.466945e+00	-8.610476e-01
7.928435e+01	9.487600e+00	-8.420885e-01
7.928434e+01	1.051266e+01	-8.421249e-01
7.929360e+01	1.153337e+01	-8.611631e-01
7.930449e+01	1.255307e+01	-8.882800e-01
7.931913e+01	1.357302e+01	-9.842332e-01
7.940271e+01	1.452601e+01	-1.180638e+00
7.939964e+01	1.551070e+01	-1.018540e+00
7.914574e+01	1.654125e+01	-1.629065e+00
7.963846e+01	1.759263e+01	-3.435232e+00
7.989208e+01	1.871242e+01	-8.721549e-01
7.985362e+01	1.880020e+01	-3.555880e+00
7.852701e+01	1.224854e+00	-2.041999e+00
7.805544e+01	1.475015e+00	-2.908140e+00
8.035840e+01	4.786492e-01	-2.707710e+00
8.059665e+01	2.796775e+00	-1.959019e+00
8.130512e+01	3.662658e+00	-1.536649e+00
8.172465e+01	5.024355e+00	-1.393528e+00
8.156501e+01	6.203276e+00	-1.084628e+00
8.153366e+01	7.274351e+00	-9.275938e-01
8.152035e+01	8.375221e+00	-8.372154e-01
8.149551e+01	9.460944e+00	-7.922583e-01
8.149550e+01	1.053916e+01	-7.923065e-01
8.152034e+01	1.162486e+01	-8.373840e-01
8.153369e+01	1.272568e+01	-9.279378e-01
8.156507e+01	1.379666e+01	-1.085285e+00
8.172449e+01	1.497525e+01	-1.394721e+00
8.130422e+01	1.633699e+01	-1.537378e+00
8.058443e+01	1.721199e+01	-1.959305e+00
8.046486e+01	1.963876e+01	-2.755274e+00
7.808963e+01	1.858280e+01	-2.948952e+00
7.854159e+01	1.877678e+01	-2.034497e+00
7.739932e+01	2.951683e-01	-2.341520e+00
7.748278e+01	1.637900e+00	-2.519212e+00
7.894231e+01	-4.079060e-01	-3.147047e+00
7.914408e+01	2.259747e+00	-4.681742e+00
7.954726e+01	3.953036e+00	-4.456088e+00
7.975864e+01	5.167065e+00	-4.222241e+00
7.986789e+01	6.283877e+00	-4.058663e+00
7.993672e+01	7.363762e+00	-3.938562e+00
7.997631e+01	8.422676e+00	-3.862417e+00
7.999398e+01	9.474678e+00	-3.826571e+00
7.999398e+01	1.052548e+01	-3.826607e+00
7.997632e+01	1.157752e+01	-3.862529e+00
7.993673e+01	1.263655e+01	-3.938745e+00
7.986787e+01	1.371665e+01	-4.058899e+00
7.975883e+01	1.483395e+01	-4.222398e+00
7.954838e+01	1.604896e+01	-4.454870e+00
7.914882e+01	1.774183e+01	-4.672965e+00
7.893937e+01	2.040743e+01	-3.166369e+00
7.749518e+01	1.835485e+01	-2.518569e+00
7.743177e+01	1.970012e+01	-2.336696e+00
7.651428e+01	1.685491e-01	-2.046178e+00
7.660895e+01	1.597158e+00	-1.404049e+00
7.754075e+01	-9.206408e-01	-2.960284e+00
7.746317e+01	1.919941e+00	-4.789979e+00
7.764739e+01	3.759545e+00	-4.731655e+00
7.780532e+01	5.091419e+00	-4.546775e+00
7.790372e+01	6.249359e+00	-4.393107e+00
7.796284e+01	7.344352e+00	-4.283587e+00
7.799673e+01	8.413519e+00	-4.214457e+00
7.801227e+01	9.472065e+00	-4.181303e+00
7.801231e+01	1.052800e+01	-4.181375e+00
7.799688e+01	1.158656e+01	-4.214689e+00
7.796314e+01	1.265575e+01	-4.284012e+00
7.790428e+01	1.375077e+01	-4.393756e+00
7.780668e+01	1.490871e+01	-4.547782e+00
7.765052e+01	1.623997e+01	-4.732084e+00
7.746851e+01	1.807400e+01	-4.788511e+00
7.754112e+01	2.091461e+01	-2.988605e+00
7.661236e+01	1.840358e+01	-1.401095e+00
7.652839e+01	1.982576e+01	-2.038140e+00
7.572827e+01	1.861186e-01	-1.614219e+00
7.561745e+01	1.391373e+00	-1.745365e+00
7.637110e+01	-1.165191e+00	-2.915436e+00
7.617978e+01	1.736633e+00	-4.733036e+00
7.627257e+01	3.627529e+00	-4.704398e+00
7.637719e+01	5.012632e+00	-4.529629e+00
7.645268e+01	6.205111e+00	-4.375848e+00
7.650134e+01	7.319598e+00	-4.264217e+00
7.652998e+01	8.400854e+00	-4.193451e+00
7.654330e+01	9.468143e+00	-4.159433e+00
7.654335e+01	1.053178e+01	-4.159527e+00
7.653014e+01	1.159904e+01	-4.193755e+00
7.650167e+01	1.268022e+01	-4.264773e+00
7.645326e+01	1.379452e+01	-4.376682e+00
7.637843e+01	1.498659e+01	-4.530956e+00
7.627494e+01	1.637028e+01	-4.705250e+00
7.618236e+01	1.825502e+01	-4.732252e+00
7.636832e+01	2.115536e+01	-2.944199e+00
7.562060e+01	1.860860e+01	-1.754990e+00
7.573835e+01	1.980918e+01	-1.614345e+00
7.483038e+01	-7.817813e-02	-1.543599e+00
7.482604e+01	1.388391e+00	-1.715060e+00
7.518909e+01	-1.308398e+00	-2.767916e+00
7.504364e+01	1.626289e+00	-4.622014e+00
7.509697e+01	3.542125e+00	-4.603533e+00
7.516764e+01	4.954311e+00	-4.427435e+00
7.522363e+01	6.168094e+00	-4.269511e+00
7.526214e+01	7.297397e+00	-4.153927e+00
7.528573e+01	8.389057e+00	-4.080439e+00
7.529694e+01	9.464413e+00	-4.045064e+00
7.529699e+01	1.053538e+01	-4.045163e+00
7.528587e+01	1.161068e+01	-4.080752e+00
7.526241e+01	1.270220e+01	-4.154479e+00
7.522407e+01	1.383120e+01	-4.270322e+00
7.516853e+01	1.504438e+01	-4.428631e+00
7.509849e+01	1.645491e+01	-4.603859e+00
7.504491e+01	1.836446e+01	-4.620116e+00
7.518694e+01	2.129617e+01	-2.794827e+00
7.483117e+01	1.860712e+01	-1.715191e+00
7.483860e+01	2.007315e+01	-1.542305e+00
7.387716e+01	3.514756e-02	-1.529110e+00
7.393320e+01	1.483988e+00	-1.487424e+00
7.408946e+01	-1.361360e+00	-2.501689e+00
7.397993e+01	1.552686e+00	-4.496043e+00
7.401392e+01	3.485376e+00	-4.483885e+00
7.406305e+01	4.912876e+00	-4.303973e+00
7.410434e+01	6.139623e+00	-4.141216e+00
7.413418e+01	7.279211e+00	-4.021660e+00
7.415311e+01	8.378996e+00	-3.945489e+00
7.416229e+01	9.461172e+00	-3.908784e+00
7.416233e+01	1.053853e+01	-3.908874e+00
7.415322e+01	1.162063e+01	-3.945765e+00
7.413438e+01	1.272024e+01	-4.022117e+00
7.410467e+01	1.385949e+01	-4.141945e+00
7.406367e+01	1.508557e+01	-4.304890e+00
7.401492e+01	1.651131e+01	-4.483380e+00
7.398071e+01	1.843753e+01	-4.492813e+00
7.408841e+01	2.134981e+01	-2.530260e+00
7.393602e+01	1.851151e+01	-1.482565e+00
7.388473e+01	1.995737e+01	-1.528911e+00
7.296504e+01	1.403047e-01	-1.332403e+00
7.297835e+01	1.486281e+00	-1.403634e+00
7.306763e+01	-1.363756e+00	-2.305301e+00
7.295591e+01	1.504370e+00	-4.373144e+00
7.297729e+01	3.448261e+00	-4.365254e+00
7.301189e+01	4.884479e+00	-4.181374e+00
7.304230e+01	6.118894e+00	-4.014373e+00
7.306510e+01	7.265264e+00	-3.891379e+00
7.307996e+01	8.370997e+00	-3.812877e+00
7.308731e+01	9.458550e+00	-3.775009e+00
7.308734e+01	1.054108e+01	-3.775073e+00
7.308004e+01	1.162856e+01	-3.813059e+00
7.306523e+01	1.273412e+01	-3.891672e+00
7.304252e+01	1.388011e+01	-4.014821e+00
7.301233e+01	1.511387e+01	-4.181837e+00
7.297805e+01	1.654827e+01	-4.363925e+00
7.295658e+01	1.848540e+01	-4.368737e+00
7.306686e+01	2.135291e+01	-2.334750e+00
7.297978e+01	1.850986e+01	-1.399061e+00
7.297099e+01	1.985160e+01	-1.329192e+00
7.202219e+01	1.081338e-01	-1.252546e+00
7.204296e+01	1.504030e+00	-1.324833e+00
7.205161e+01	-1.350396e+00	-2.167959e+00
7.195268e+01	1.477681e+00	-4.262229e+00
7.196445e+01	3.425984e+00	-4.255066e+00
7.198864e+01	4.866184e+00	-4.067455e+00
7.201102e+01	6.104614e+00	-3.897215e+00
7.202824e+01	7.255207e+00	-3.771522e+00
7.203964e+01	8.365057e+00	-3.690922e+00
7.204539e+01	9.456569e+00	-3.652023e+00
7.204541e+01	1.054303e+01	-3.652024e+00
7.203968e+01	1.163448e+01	-3.690826e+00
7.202820e+01	1.274412e+01	-3.771095e+00
7.201102e+01	1.389427e+01	-3.896778e+00
7.198888e+01	1.513201e+01	-4.066720e+00
7.196502e+01	1.657034e+01	-4.252450e+00
7.195334e+01	1.851172e+01	-4.256796e+00
7.205121e+01	2.133985e+01	-2.197539e+00
7.204439e+01	1.849170e+01	-1.318004e+00
7.202666e+01	1.988535e+01	-1.249149e+00
7.106902e+01	1.452745e-01	-1.237047e+00
7.109089e+01	1.541159e+00	-1.217211e+00
7.104282e+01	-1.320075e+00	-2.054631e+00
7.095838e+01	1.467691e+00	-4.165047e+00
7.096342e+01	3.415199e+00	-4.155216e+00
7.098001e+01	4.855827e+00	-3.963867e+00
7.099608e+01	6.095910e+00	-3.788379e+00
7.100896e+01	7.248575e+00	-3.660597e+00
7.101788e+01	8.360886e+00	-3.581113e+00
7.102232e+01	9.455162e+00	-3.541631e+00
7.102235e+01	1.054441e+01	-3.541542e+00
7.101790e+01	1.163860e+01	-3.580864e+00
7.100914e+01	1.275080e+01	-3.662548e+00
7.099626e+01	1.390313e+01	-3.790066e+00
7.098019e+01	1.514227e+01	-3.962419e+00
7.096392e+01	1.658099e+01	-4.151687e+00
7.095903e+01	1.852142e+01	-4.158688e+00
7.104256e+01	2.130989e+01	-2.084213e+00
7.109185e+01	1.845424e+01	-1.207791e+00
7.107238e+01	1.984780e+01	-1.233773e+00
7.010702e+01	1.850064e-01	-1.188259e+00
7.012208e+01	1.567024e+00	-1.114588e+00
7.004320e+01	-1.282351e+00	-1.974901e+00
6.996753e+01	1.469974e+00	-4.080067e+00
6.996790e+01	3.413160e+00	-4.065178e+00
6.997894e+01	4.851650e+00	-3.870289e+00
6.999052e+01	6.091382e+00	-3.691892e+00
7.000012e+01	7.244591e+00	-3.562288e+00
7.000688e+01	8.358220e+00	-3.482560e+00
7.001028e+01	9.454247e+00	-3.442957e+00
7.001029e+01	1.054529e+01	-3.442831e+00
7.000687e+01	1.164116e+01	-3.482525e+00
7.000027e+01	1.275476e+01	-3.565622e+00
6.999070e+01	1.390782e+01	-3.694717e+00
6.997916e+01	1.514652e+01	-3.868992e+00
6.996839e+01	1.658302e+01	-4.061371e+00
6.996821e+01	1.851895e+01	-4.072926e+00
7.004268e+01	2.127191e+01	-2.003858e+00
7.012319e+01	1.842801e+01	-1.103144e+00
7.010950e+01	1.980614e+01	-1.182366e+00
6.912716e+01	2.316334e-01	-1.149395e+00
6.915060e+01	1.590212e+00	-1.011439e+00
6.904489e+01	-1.239803e+00	-1.921652e+00
6.897781e+01	1.481641e+00	-4.005567e+00
6.897467e+01	3.417664e+00	-3.983748e+00
6.898167e+01	4.852048e+00	-3.785537e+00
6.899007e+01	6.089746e+00	-3.607736e+00
[...]
CELL_DATA 1539
SCALARS Mu double 1
LOOKUP_TABLE default
-0.388429
-0.434839
-0.445113
-0.448285
-0.449531
-0.450112
-0.450415
-0.45058
-0.450664
-0.450691
-0.450664
-0.45058
-0.450415
-0.450112
-0.449531
-0.448285
-0.445113
-0.434839
-0.388429
-0.510131
-0.594683
-0.616974
-0.624665
-0.627855
-0.629376
-0.630171
-0.630603
-0.630824
-0.630893
-0.630827
-0.630608
-0.630178
-0.629383
-0.627864
-0.624669
-0.616953
-0.594531
-0.509768
-0.565402
-0.676259
-0.708906
-0.721304
-0.726769
-0.729481
-0.73093
-0.731726
-0.732133
-0.732261
-0.732142
-0.731746
-0.730963
-0.729527
-0.726831
-0.721339
-0.708845
-0.676044
-0.567553
-0.5965
-0.724128
-0.764294
-0.780705
-0.788374
-0.792329
-0.794491
-0.79569
-0.796305
-0.796497
-0.796315
-0.795713
-0.794527
-0.792381
-0.788441
-0.780711
-0.764093
-0.72369
-0.599882
-0.616157
-0.754595
-0.800147
-0.819703
-0.829262
-0.834366
-0.837218
-0.838823
-0.839649
-0.839907
-0.839656
-0.838838
-0.837242
-0.834395
-0.829287
-0.81961
-0.799729
-0.753863
-0.620006
-0.629462
-0.77515
-0.824573
-0.846525
-0.857613
-0.863703
-0.867176
-0.869157
-0.870184
-0.870502
-0.870184
-0.869157
-0.867173
-0.863686
-0.85756
-0.846289
-0.823906
-0.774108
-0.633433
-0.63891
-0.789621
-0.841854
-0.865629
-0.87793
-0.884838
-0.888843
-0.891155
-0.892362
-0.892735
-0.892353
-0.891135
-0.888804
-0.884767
-0.877784
-0.865235
-0.840944
-0.78829
-0.642855
-0.645861
-0.800146
-0.854446
-0.879611
-0.892871
-0.900442
-0.904899
-0.907495
-0.908859
-0.909278
-0.908838
-0.907451
-0.904819
-0.900312
-0.892624
-0.879062
-0.853314
-0.798557
-0.649722
-0.651118
-0.808004
-0.863847
-0.890074
-0.904089
-0.912208
-0.917035
-0.91987
-0.921366
-0.921824
-0.921333
-0.919799
-0.916913
-0.912002
-0.903739
-0.889378
-0.86252
-0.80619
-0.654877
-0.655184
-0.813999
-0.871014
-0.898055
-0.91267
-0.921219
-0.926358
-0.929393
-0.931
-0.93149
-0.930954
-0.929291
-0.926181
-0.920941
-0.912171
-0.897221
-0.869514
-0.811993
-0.658841
-0.658388
-0.818659
-0.87657
-0.904239
-0.919324
-0.928202
-0.933353
-0.936781
-0.938511
-0.939032
-0.938454
-0.936687
-0.933422
-0.927882
-0.918774
-0.903285
-0.874921
-0.816489
-0.661948
-0.660949
-0.822338
-0.88094
-0.909098
-0.924554
-0.933726
-0.939242
-0.942613
-0.944431
-0.944972
-0.944365
-0.94251
-0.939127
-0.933362
-0.923934
-0.908042
-0.879166
-0.820031
-0.664423
-0.663021
-0.825283
-0.884419
-0.91296
-0.928706
-0.938104
-0.943837
-0.947298
-0.94915
-0.949712
-0.94908
-0.947156
-0.943615
-0.937678
-0.92802
-0.911817
-0.882541
-0.82286
-0.666419
-0.664715
-0.827667
-0.887216
-0.916056
-0.932031
-0.941591
-0.947475
-0.951026
-0.95292
-0.953498
-0.952849
-0.950851
-0.947181
-0.941111
-0.931284
-0.91484
-0.885252
-0.825147
-0.668047
-0.666097
-0.829594
-0.889464
-0.918544
-0.934709
-0.944423
-0.950403
-0.954048
-0.955985
-0.956559
-0.955888
-0.953846
-0.950085
-0.943903
-0.933924
-0.917287
-0.887452
-0.827017
-0.669388
-0.667253
-0.831199
-0.891318
-0.920587
-0.936901
-0.946741
-0.952803
-0.956494
-0.958367
-0.959029
-0.958341
-0.955882
-0.952377
-0.946158
-0.93607
-0.919281
-0.889251
-0.828559
-0.670503
-0.668225
-0.832528
-0.892849
-0.922268
-0.938724
-0.948632
-0.95476
-0.958469
-0.960483
-0.961076
-0.960326
-0.958144
-0.954299
-0.947591
-0.937793
-0.920911
-0.890737
-0.829835
-0.671435
-0.669047
-0.833641
-0.894119
-0.923653
-0.940183
-0.950182
-0.956367
-0.960143
-0.962458
-0.963208
-0.962042
-0.959854
-0.955938
-0.949468
-0.93926
-0.922276
-0.89198
-0.830914
-0.672233
-0.669767
-0.834672
-0.895229
-0.924909
-0.941505
-0.951463
-0.957689
-0.96148
-0.963593
-0.96431
-0.963546
-0.961351
-0.957315
-0.950829
-0.940496
-0.923416
-0.893019
-0.831825
-0.672916
-0.670312
-0.835344
-0.896019
-0.925722
-0.942395
-0.952498
-0.958791
-0.962623
-0.964705
-0.965348
-0.964681
-0.962445
-0.958452
-0.951955
-0.941544
-0.924384
-0.893894
-0.832588
-0.673485
-0.670778
-0.835965
-0.896752
-0.926487
-0.943239
-0.953408
-0.959746
-0.963602
-0.965689
-0.966309
-0.965575
-0.963436
-0.959372
-0.952866
-0.942406
-0.9252
-0.894666
-0.833238
-0.673966
-0.671201
-0.836527
-0.897403
-0.927221
-0.943991
-0.954198
-0.960565
-0.964442
-0.966536
-0.96716
-0.966427
-0.964225
-0.960186
-0.953631
-0.94313
-0.925872
-0.895265
-0.833767
-0.674364
-0.671574
-0.837024
-0.897976
-0.927847
-0.944655
-0.954893
-0.961277
-0.965168
-0.967284
-0.96792
-0.96719
-0.964957
-0.96089
-0.954257
-0.943745
-0.926479
-0.895817
-0.834246
-0.674719
-0.671901
-0.837465
-0.898476
-0.928371
-0.945229
-0.955506
-0.961918
-0.965836
-0.967943
-0.9686
-0.967847
-0.965649
-0.961531
-0.954898
-0.944353
-0.927025
-0.896261
-0.834667
-0.67503
-0.672181
-0.837848
-0.89886
-0.928876
-0.945762
-0.956053
-0.96248
-0.966416
-0.968528
-0.96916
-0.968423
-0.96618
-0.96197
-0.955345
-0.944872
-0.92751
-0.896732
-0.835035
-0.675302
-0.672432
-0.838191
-0.899304
-0.929302
-0.946225
-0.956537
-0.962983
-0.966931
-0.969046
-0.969698
-0.968958
-0.966693
-0.962563
-0.955913
-0.945337
-0.927944
-0.897097
-0.835372
-0.675543
-0.67265
-0.838473
-0.899433
-0.929681
-0.946642
-0.956974
-0.963416
-0.967382
-0.969528
-0.970182
-0.969434
-0.967162
-0.963034
-0.95637
-0.945756
-0.928334
-0.897476
-0.835673
-0.675758
-0.672843
-0.838734
-0.899801
-0.930017
-0.94701
-0.957366
-0.963823
-0.96782
-0.969982
-0.970669
-0.969866
-0.967549
-0.963444
-0.956781
-0.946143
-0.928686
-0.89776
-0.835933
-0.675947
-0.673019
-0.838981
-0.900132
-0.930327
-0.947327
-0.957681
-0.964209
-0.968202
-0.970361
-0.971052
-0.970207
-0.967921
-0.963822
-0.957088
-0.946483
-0.928995
-0.898061
-0.836171
-0.676117
-0.673184
-0.839214
-0.900475
-0.930633
-0.947652
-0.958038
-0.964544
-0.968532
-0.9707
-0.971412
-0.970585
-0.968296
-0.964105
-0.957431
-0.946776
-0.929278
-0.898315
-0.836391
-0.676271
-0.673336
-0.839438
-0.900733
-0.930907
-0.947952
-0.958539
-0.96489
-0.96909
-0.971099
-0.971747
-0.971032
-0.968664
-0.964525
-0.957764
-0.947021
-0.929528
-0.898543
-0.836589
-0.676412
-0.673093
-0.832934
-0.900547
-0.931022
-0.948003
-0.95862
-0.965148
-0.969415
-0.971412
-0.972045
-0.971313
-0.969027
-0.965407
-0.958068
-0.947317
-0.929762
-0.898751
-0.83677
-0.676538
-0.673109
-0.838233
-0.900522
-0.931105
-0.948293
-0.958806
-0.965382
-0.969683
-0.971677
-0.972301
-0.971567
-0.969306
-0.965783
-0.95836
-0.947568
-0.929975
-0.898935
-0.83693
-0.676652
-0.673397
-0.839334
-0.900867
-0.931315
-0.948502
-0.959012
-0.965615
-0.970051
-0.972024
-0.97254
-0.971793
-0.969506
-0.96541
-0.958569
-0.947775
-0.930156
-0.899072
-0.83707
-0.676757
-0.673604
-0.839754
-0.901216
-0.931532
-0.948696
-0.959212
-0.965862
-0.970156
-0.972154
-0.972747
-0.971998
-0.969691
-0.965496
-0.958798
-0.947957
-0.930312
-0.899211
-0.837196
-0.676852
-0.673756
-0.839992
-0.901407
-0.931681
-0.948861
-0.959426
-0.966021
-0.970411
-0.972329
-0.972929
-0.972154
-0.969843
-0.965629
-0.958887
-0.948089
-0.930449
-0.899337
-0.83731
-0.676936
-0.673875
-0.840163
-0.901591
-0.931873
-0.949026
-0.959545
-0.966179
-0.970492
-0.972491
-0.973094
-0.972311
-0.970005
-0.965796
-0.959061
-0.948218
-0.930574
-0.899452
-0.83741
-0.677013
-0.673972
-0.840299
-0.90173
-0.932019
-0.949157
-0.959648
-0.966291
-0.970629
-0.972706
-0.973241
-0.972472
-0.970159
-0.965913
-0.959131
-0.948335
-0.93073
-0.899558
-0.837505
-0.677083
-0.674055
-0.840414
-0.901851
-0.932148
-0.949367
-0.959803
-0.966422
-0.970753
-0.972774
-0.973387
-0.972691
-0.970305
-0.966032
-0.95925
-0.948466
-0.930802
-0.899682
-0.837596
-0.677151
-0.67413
-0.840515
-0.901958
-0.932259
-0.94945
-0.959925
-0.966547
-0.97095
-0.972724
-0.973462
-0.972732
-0.970365
-0.96615
-0.959404
-0.948576
-0.930894
-0.899772
-0.837678
-0.677212
-0.674198
-0.840603
-0.90205
-0.932345
-0.94942
-0.960026
-0.966664
-0.970992
-0.972961
-0.973695
-0.972848
-0.970146
-0.966318
-0.959473
-0.948614
-0.930956
-0.899821
-0.837742
-0.677265
-0.674258
-0.84068
-0.902131
-0.932425
-0.949485
-0.960115
-0.966749
-0.971085
-0.973081
-0.973718
-0.972906
-0.970484
-0.966326
-0.959536
-0.948734
-0.93109
-0.899936
-0.83783
-0.677332
-0.67431
-0.84075
-0.902206
-0.932504
-0.949582
-0.96021
-0.967018
-0.971233
-0.973196
-0.973804
-0.973005
-0.970645
-0.966413
-0.959631
-0.948933
-0.93116
-0.900019
-0.837902
-0.677385
-0.674361
-0.840818
-0.902278
-0.932589
-0.949749
-0.960329
-0.966975
-0.971287
-0.973286
-0.973891
-0.973088
-0.970748
-0.966503
-0.959712
-0.948919
-0.931231
-0.90009
-0.837968
-0.677434
-0.674408
-0.84088
-0.902346
-0.932665
-0.949841
-0.960414
-0.967024
-0.97135
-0.973367
-0.974031
-0.97314
-0.970837
-0.966663
-0.959791
-0.948975
-0.931295
-0.900155
-0.838031
-0.67748
-0.67445
-0.840931
-0.902395
-0.932701
-0.949911
-0.960555
-0.967096
-0.971419
-0.973434
-0.974045
-0.973248
-0.970958
-0.966758
-0.959867
-0.949038
-0.931354
-0.900214
-0.838086
-0.677522
-0.674494
-0.840983
-0.902448
-0.932754
-0.949967
-0.960535
-0.967169
-0.971481
-0.973485
-0.974101
-0.973326
-0.971033
-0.966759
-0.959927
-0.949097
-0.931411
-0.900268
-0.838137
-0.677563
-0.674532
-0.841035
-0.902512
-0.932835
-0.950032
-0.96057
-0.96722
-0.971574
-0.973597
-0.974172
-0.973392
-0.971098
-0.966815
-0.959977
-0.949151
-0.931465
-0.90032
-0.838186
-0.677601
-0.674563
-0.841077
-0.902561
-0.932881
-0.949981
-0.960609
-0.967262
-0.971636
-0.973667
-0.974236
-0.973453
-0.971158
-0.966875
-0.960066
-0.949221
-0.931526
-0.90037
-0.838231
-0.677636
-0.674597
-0.841121
-0.902607
-0.932929
-0.950109
-0.960653
-0.967309
-0.971687
-0.973721
-0.974284
-0.973456
-0.97113
-0.966912
-0.960116
-0.949275
-0.931577
-0.900417
-0.838273
-0.677668
-0.674628
-0.841162
-0.90265
-0.932977
-0.95017
-0.960703
-0.967357
-0.971735
-0.973766
-0.974328
-0.973492
-0.971168
-0.967092
-0.960134
-0.949308
-0.931614
-0.900459
-0.838313
-0.677699
-0.674656
-0.8412
-0.902692
-0.933023
-0.950252
-0.960752
-0.967403
-0.971781
-0.973811
-0.974371
-0.973531
-0.971212
-0.967153
-0.960184
-0.949349
-0.931655
-0.900498
-0.83835
-0.677728
-0.674684
-0.841236
-0.902732
-0.933066
-0.950302
-0.960796
-0.967442
-0.971794
-0.973849
-0.974408
-0.973574
-0.971267
-0.967281
-0.960261
-0.949395
-0.931694
-0.900536
-0.838385
-0.677755
-0.67471
-0.84127
-0.90277
-0.933108
-0.950345
-0.960838
-0.967482
-0.971834
-0.973904
-0.974506
-0.973629
-0.97135
-0.967322
-0.960292
-0.949434
-0.931732
-0.900572
-0.838419
-0.677781
-0.674735
-0.841302
-0.902806
-0.933151
-0.950391
-0.960933
-0.967553
-0.971876
-0.973897
-0.974498
-0.973663
-0.97135
-0.967205
-0.960267
-0.949464
-0.931766
-0.900606
-0.83845
-0.677805
-0.674759
-0.841335
-0.902839
-0.933187
-0.950428
-0.960939
-0.967594
-0.971912
-0.973932
-0.974602
-0.973733
-0.971418
-0.967176
-0.960304
-0.949493
-0.931798
-0.900637
-0.838479
-0.677828
-0.674781
-0.841364
-0.90287
-0.933216
-0.950411
-0.960962
-0.967628
-0.971945
-0.973957
-0.974573
-0.973748
-0.971466
-0.967192
-0.960335
-0.949592
-0.931833
-0.900668
-0.838507
-0.67785
-0.674804
-0.84139
-0.902899
-0.933245
-0.950432
-0.96099
-0.967662
-0.972023
-0.973995
-0.974628
-0.973778
-0.971495
-0.96722
-0.960368
-0.949636
-0.931868
-0.900698
-0.838534
-0.677869
-0.674824
-0.841417
-0.902924
-0.933269
-0.950456
-0.961015
-0.96769
-0.97206
-0.97402
-0.97463
-0.973798
-0.971486
-0.967243
-0.960397
-0.949669
-0.931899
-0.900726
-0.838559
-0.677889
-0.674839
-0.841437
-0.902946
-0.933288
-0.950481
-0.961041
-0.967719
-0.972119
-0.974049
-0.974651
-0.973817
-0.971502
-0.967263
-0.960396
-0.949697
-0.931927
-0.900752
-0.838583
-0.677907
-0.674856
-0.841458
-0.90297
-0.933315
-0.950521
-0.961071
-0.96775
-0.972159
-0.974092
-0.974728
-0.973845
-0.971524
-0.967276
-0.960413
-0.949721
-0.931953
-0.900777
-0.838606
-0.677925
-0.674876
-0.841481
-0.902995
-0.93334
-0.95055
-0.961098
-0.967774
-0.97216
-0.974122
-0.974765
-0.973875
-0.971551
-0.967298
-0.960435
-0.949745
-0.931976
-0.9008
-0.838627
-0.677942
-0.67489
-0.841502
-0.903017
-0.933365
-0.950565
-0.961167
-0.967803
-0.972182
-0.974148
-0.974794
-0.973902
-0.971577
-0.967322
-0.960459
-0.949779
-0.932001
-0.900822
-0.838648
-0.677958
-0.674906
-0.841521
-0.903038
-0.933388
-0.950589
-0.961201
-0.967837
-0.972208
-0.974173
-0.974819
-0.973926
-0.9716
-0.967343
-0.960476
-0.949733
-0.932018
-0.900842
-0.838667
-0.677973
-0.674921
-0.841543
-0.903059
-0.933409
-0.950609
-0.961185
-0.967865
-0.972259
-0.974629
-0.974899
-0.973964
-0.971643
-0.967457
-0.961978
-0.949833
-0.932052
-0.900866
-0.838687
-0.677988
-0.674935
-0.841562
-0.903079
-0.93343
-0.950629
-0.961202
-0.967896
-0.972312
-0.974752
-0.97497
-0.974015
-0.971713
-0.967635
-0.962331
-0.949975
-0.93211
-0.900898
-0.83871
-0.678004
-0.674949
-0.841579
-0.903098
-0.93345
-0.950651
-0.961225
-0.967926
-0.972352
-0.97481
-0.975024
-0.974065
-0.971777
-0.967727
-0.962467
-0.950076
-0.932165
-0.900932
-0.838734
-0.678021
-0.674962
-0.841596
-0.903116
-0.933469
-0.950671
-0.961246
-0.967948
-0.972359
-0.974421
-0.975038
-0.974101
-0.971824
-0.96779
-0.962543
-0.950139
-0.932207
-0.900963
-0.838762
-0.678038
-0.674975
-0.841612
-0.903133
-0.933486
-0.950689
-0.961264
-0.967961
-0.972357
-0.974359
-0.975035
-0.974123
-0.971858
-0.967834
-0.962594
-0.950183
-0.932241
-0.90099
-0.838784
-0.678053
-0.674986
-0.841627
-0.903149
-0.933503
-0.950705
-0.961279
-0.967973
-0.972365
-0.974354
-0.97504
-0.974142
-0.971885
-0.967867
-0.962631
-0.950216
-0.932268
-0.901014
-0.838804
-0.678068
-0.674997
-0.841641
-0.903165
-0.933518
-0.950721
-0.961294
-0.967986
-0.972376
-0.974362
-0.975054
-0.974169
-0.971909
-0.967894
-0.962661
-0.950243
-0.932292
-0.901035
-0.838822
-0.678081
-0.675008
-0.841655
-0.903179
-0.933533
-0.950736
-0.961309
-0.968
-0.972387
-0.974374
-0.975071
-0.974192
-0.971931
-0.967917
-0.962685
-0.950266
-0.932312
-0.901055
-0.838839
-0.678093
-0.675018
-0.841668
-0.903193
-0.933548
-0.950752
-0.961333
-0.968121
-0.97241
-0.97439
-0.975087
-0.97421
-0.971949
-0.967937
-0.962707
-0.950286
-0.93233
-0.901072
-0.838854
-0.678105
-0.675028
-0.841681
-0.903207
-0.933563
-0.950769
-0.961355
-0.96816
-0.972434
-0.974407
-0.975103
-0.974227
-0.971966
-0.967955
-0.962726
-0.950303
-0.932346
-0.901087
-0.838868
-0.678116
-0.675038
-0.841693
-0.90322
-0.933577
-0.950785
-0.961373
-0.968182
-0.972453
-0.974424
-0.975119
-0.974243
-0.971982
-0.967971
-0.962743
-0.95032
-0.932361
-0.901101
-0.838881
-0.678126
-0.675047
-0.841705
-0.903233
-0.933591
-0.950799
-0.961389
-0.968199
-0.97247
-0.974439
-0.975134
-0.974257
-0.971997
-0.967987
-0.962759
-0.950334
-0.932375
-0.901114
-0.838893
-0.678135
-0.675056
-0.841716
-0.903245
-0.933603
-0.950813
-0.961403
-0.968214
-0.972485
-0.974453
-0.975148
-0.974271
-0.97201
-0.968001
-0.962773
-0.950348
-0.932388
-0.901127
-0.838904
-0.678144
-0.675064
-0.841727
-0.903257
-0.933616
-0.950826
-0.961416
-0.968228
-0.972498
-0.974466
-0.975161
-0.974285
-0.972023
-0.968014
-0.962787
-0.950361
-0.9324
-0.901138
-0.838915
-0.678152
-0.675072
-0.841737
-0.903268
-0.933627
-0.950838
-0.961429
-0.968241
-0.972511
-0.974479
-0.975174
-0.974297
-0.972036
-0.968029
-0.962815
-0.950376
-0.932412
-0.901149
-0.838925
-0.67816
-0.67508
-0.841747
-0.903278
-0.933638
-0.950849
-0.96144
-0.968253
-0.972523
-0.974491
-0.975186
-0.974309
-0.972048
-0.968044
-0.962833
-0.950397
-0.932556
-0.901167
-0.838936
-0.678168

