# vtk DataFile Version 2.0
OUTPUT by 3D-VPM
ASCII
DATASET UNSTRUCTURED_GRID
POINTS 960 double
1.379666e+00	3.544086e-02	1.104410e-02
1.386690e+00	1.061439e+00	3.529185e-02
1.389122e+00	2.107541e+00	3.343470e-02
1.389620e+00	3.158599e+00	3.286274e-02
1.389797e+00	4.210804e+00	3.273913e-02
1.389881e+00	5.263290e+00	3.268926e-02
1.389920e+00	6.315860e+00	3.267087e-02
1.389939e+00	7.368460e+00	3.266484e-02
1.389948e+00	8.421076e+00	3.266313e-02
1.389969e+00	9.473510e+00	3.266397e-02
1.389969e+00	1.052649e+01	3.266395e-02
1.389948e+00	1.157893e+01	3.266259e-02
1.389939e+00	1.263154e+01	3.266446e-02
1.389921e+00	1.368414e+01	3.266989e-02
1.389883e+00	1.473671e+01	3.268648e-02
1.389803e+00	1.578921e+01	3.273161e-02
1.389635e+00	1.684146e+01	3.283821e-02
1.389195e+00	1.789272e+01	3.329395e-02
1.387227e+00	1.894220e+01	3.385187e-02
1.379382e+00	1.996296e+01	1.296778e-02
1.395864e+00	2.505126e-02	7.268989e-03
1.388674e+00	1.058346e+00	7.807893e-03
1.385780e+00	2.106565e+00	8.255961e-03
1.385139e+00	3.158308e+00	8.358945e-03
1.384969e+00	4.210746e+00	8.387284e-03
1.384892e+00	5.263288e+00	8.399645e-03
1.384865e+00	6.315865e+00	8.404711e-03
1.384857e+00	7.368464e+00	8.406677e-03
1.384855e+00	8.421078e+00	8.407453e-03
1.384880e+00	9.473516e+00	8.408229e-03
1.384880e+00	1.052648e+01	8.408028e-03
1.384854e+00	1.157893e+01	8.407359e-03
1.384857e+00	1.263154e+01	8.406746e-03
1.384864e+00	1.368414e+01	8.404912e-03
1.384888e+00	1.473672e+01	8.400266e-03
1.384959e+00	1.578926e+01	8.389024e-03
1.385114e+00	1.684171e+01	8.364582e-03
1.385663e+00	1.789352e+01	8.289373e-03
1.386925e+00	1.894234e+01	7.960010e-03
1.392387e+00	1.997041e+01	7.740362e-03
1.394686e+00	1.331437e-02	2.274608e-02
1.376449e+00	1.058975e+00	2.020022e-02
1.375584e+00	2.106332e+00	2.213716e-02
1.375907e+00	3.158204e+00	2.257732e-02
1.376044e+00	4.210649e+00	2.270583e-02
1.376109e+00	5.263217e+00	2.276091e-02
1.376140e+00	6.315821e+00	2.278485e-02
1.376155e+00	7.368439e+00	2.279561e-02
1.376163e+00	8.421062e+00	2.280086e-02
1.376185e+00	9.473522e+00	2.279981e-02
1.376185e+00	1.052648e+01	2.279962e-02
1.376163e+00	1.157894e+01	2.280097e-02
1.376156e+00	1.263156e+01	2.279588e-02
1.376141e+00	1.368418e+01	2.278553e-02
1.376111e+00	1.473679e+01	2.276279e-02
1.376049e+00	1.578936e+01	2.271082e-02
1.375920e+00	1.684182e+01	2.259229e-02
1.375631e+00	1.789379e+01	2.221897e-02
1.375950e+00	1.894392e+01	2.146008e-02
1.399968e+00	1.998166e+01	1.939649e-02
1.391701e+00	2.775222e-02	2.620802e-02
1.370470e+00	1.056546e+00	1.102533e-02
1.369297e+00	2.105981e+00	1.052210e-02
1.369035e+00	3.158111e+00	1.063266e-02
1.368970e+00	4.210614e+00	1.068624e-02
1.368943e+00	5.263201e+00	1.070703e-02
1.368935e+00	6.315813e+00	1.071851e-02
1.368934e+00	7.368434e+00	1.072568e-02
1.368933e+00	8.421059e+00	1.073035e-02
1.368958e+00	9.473520e+00	1.072543e-02
1.368958e+00	1.052648e+01	1.072528e-02
1.368933e+00	1.157894e+01	1.073018e-02
1.368934e+00	1.263157e+01	1.072593e-02
1.368935e+00	1.368419e+01	1.071889e-02
1.368942e+00	1.473680e+01	1.070759e-02
1.368966e+00	1.578939e+01	1.068735e-02
1.369022e+00	1.684189e+01	1.063592e-02
1.369250e+00	1.789403e+01	1.053260e-02
1.369841e+00	1.894402e+01	1.094287e-02
1.393181e+00	1.997032e+01	2.420603e-02
1.378476e+00	1.580729e-02	2.740747e-02
1.395905e+00	1.054566e+00	3.195319e-02
1.398817e+00	2.105647e+00	2.790174e-02
1.399204e+00	3.158011e+00	2.713334e-02
1.399321e+00	4.210574e+00	2.692139e-02
1.399369e+00	5.263182e+00	2.683085e-02
1.399395e+00	6.315802e+00	2.679195e-02
1.399410e+00	7.368428e+00	2.677466e-02
1.399419e+00	8.421055e+00	2.676602e-02
1.399442e+00	9.473517e+00	2.677079e-02
1.399442e+00	1.052648e+01	2.677096e-02
1.399418e+00	1.157895e+01	2.676563e-02
1.399411e+00	1.263157e+01	2.677415e-02
1.399396e+00	1.368420e+01	2.679083e-02
1.399370e+00	1.473682e+01	2.682786e-02
1.399325e+00	1.578943e+01	2.691342e-02
1.399217e+00	1.684199e+01	2.710901e-02
1.398885e+00	1.789438e+01	2.779661e-02
1.397415e+00	1.894563e+01	3.025359e-02
1.379613e+00	1.998225e+01	2.950108e-02
1.365863e+00	1.912668e-02	3.409305e-02
1.369174e+00	1.054998e+00	4.883273e-02
1.371483e+00	2.105708e+00	4.932471e-02
1.371980e+00	3.158028e+00	4.939663e-02
1.372138e+00	4.210581e+00	4.942038e-02
1.372207e+00	5.263185e+00	4.942891e-02
1.372241e+00	6.315804e+00	4.943402e-02
1.372258e+00	7.368429e+00	4.943745e-02
1.372266e+00	8.421056e+00	4.943983e-02
1.372290e+00	9.473516e+00	4.944215e-02
1.372290e+00	1.052648e+01	4.944197e-02
1.372266e+00	1.157894e+01	4.943962e-02
1.372258e+00	1.263157e+01	4.943754e-02
1.372241e+00	1.368420e+01	4.943415e-02
1.372209e+00	1.473682e+01	4.942905e-02
1.372142e+00	1.578942e+01	4.942066e-02
1.371992e+00	1.684198e+01	4.939815e-02
1.371540e+00	1.789433e+01	4.934118e-02
1.370074e+00	1.894560e+01	4.960644e-02
1.365702e+00	1.997948e+01	3.545070e-02
1.354044e+00	1.967895e-02	3.194597e-02
1.350167e+00	1.054688e+00	5.442743e-02
1.351387e+00	2.105661e+00	5.576416e-02
1.351693e+00	3.158016e+00	5.598548e-02
1.351796e+00	4.210576e+00	5.605296e-02
1.351843e+00	5.263183e+00	5.608100e-02
1.351866e+00	6.315803e+00	5.609503e-02
1.351877e+00	7.368429e+00	5.610272e-02
1.351883e+00	8.421056e+00	5.610711e-02
1.351908e+00	9.473501e+00	5.610949e-02
1.351908e+00	1.052650e+01	5.610964e-02
1.351883e+00	1.157894e+01	5.610703e-02
1.351878e+00	1.263157e+01	5.610207e-02
1.351866e+00	1.368420e+01	5.609382e-02
1.351844e+00	1.473682e+01	5.607855e-02
1.351798e+00	1.578942e+01	5.604722e-02
1.351700e+00	1.684199e+01	5.596839e-02
1.351414e+00	1.789436e+01	5.569451e-02
1.350292e+00	1.894579e+01	5.478020e-02
1.353428e+00	1.997993e+01	3.292938e-02
1.343659e+00	1.588508e-02	3.043984e-02
1.333633e+00	1.054504e+00	5.604225e-02
1.334171e+00	2.105631e+00	5.756117e-02
1.334396e+00	3.158007e+00	5.780825e-02
1.334473e+00	4.210573e+00	5.788713e-02
1.334507e+00	5.263181e+00	5.792086e-02
1.334524e+00	6.315802e+00	5.793769e-02
1.334533e+00	7.368428e+00	5.794681e-02
1.334537e+00	8.421056e+00	5.795186e-02
1.334562e+00	9.473509e+00	5.795425e-02
1.334561e+00	1.052649e+01	5.795465e-02
1.334537e+00	1.157894e+01	5.795180e-02
1.334534e+00	1.263157e+01	5.794551e-02
1.334526e+00	1.368420e+01	5.793532e-02
1.334512e+00	1.473682e+01	5.791611e-02
1.334483e+00	1.578943e+01	5.787595e-02
1.334429e+00	1.684200e+01	5.777447e-02
1.334310e+00	1.789439e+01	5.740985e-02
1.334266e+00	1.894588e+01	5.556293e-02
1.343226e+00	1.998331e+01	3.061062e-02
1.332593e+00	1.533328e-02	3.314378e-02
1.318585e+00	1.054373e+00	5.489519e-02
1.318736e+00	2.105610e+00	5.635449e-02
1.318934e+00	3.158001e+00	5.661634e-02
1.318992e+00	4.210570e+00	5.670226e-02
1.319017e+00	5.263180e+00	5.673889e-02
1.319029e+00	6.315802e+00	5.675705e-02
1.319035e+00	7.368428e+00	5.676684e-02
1.319038e+00	8.421055e+00	5.677234e-02
1.319063e+00	9.473519e+00	5.677477e-02
1.319062e+00	1.052648e+01	5.677510e-02
1.319038e+00	1.157894e+01	5.677226e-02
1.319038e+00	1.263157e+01	5.676567e-02
1.319033e+00	1.368420e+01	5.675494e-02
1.319025e+00	1.473682e+01	5.673472e-02
1.319011e+00	1.578943e+01	5.669246e-02
1.318993e+00	1.684200e+01	5.658691e-02
1.319002e+00	1.789440e+01	5.621295e-02
1.319779e+00	1.894598e+01	5.431172e-02
1.332637e+00	1.998516e+01	3.252489e-02
1.322484e+00	1.673899e-02	3.096618e-02
1.305134e+00	1.054266e+00	5.149000e-02
1.305033e+00	2.105591e+00	5.284445e-02
1.305160e+00	3.157995e+00	5.313943e-02
1.305190e+00	4.210568e+00	5.323276e-02
1.305203e+00	5.263179e+00	5.327136e-02
1.305210e+00	6.315801e+00	5.329019e-02
1.305213e+00	7.368427e+00	5.330020e-02
1.305214e+00	8.421055e+00	5.330613e-02
1.305240e+00	9.473530e+00	5.330817e-02
1.305239e+00	1.052647e+01	5.330810e-02
1.305214e+00	1.157894e+01	5.330597e-02
1.305214e+00	1.263157e+01	5.329989e-02
1.305212e+00	1.368420e+01	5.328963e-02
1.305209e+00	1.473682e+01	5.327040e-02
1.305203e+00	1.578943e+01	5.323078e-02
1.305204e+00	1.684201e+01	5.313442e-02
1.305253e+00	1.789441e+01	5.280747e-02
1.306117e+00	1.894604e+01	5.136271e-02
1.322619e+00	1.998384e+01	3.078577e-02
1.313531e+00	1.624992e-02	2.740979e-02
1.294081e+00	1.054277e+00	4.613576e-02
1.293458e+00	2.105580e+00	4.748652e-02
1.293244e+00	3.157992e+00	4.785022e-02
1.293203e+00	4.210567e+00	4.795154e-02
1.293192e+00	5.263178e+00	4.799157e-02
1.293188e+00	6.315801e+00	4.801057e-02
1.293186e+00	7.368427e+00	4.802051e-02
1.293183e+00	8.421055e+00	4.802668e-02
1.293205e+00	9.473514e+00	4.802948e-02
1.293206e+00	1.052649e+01	4.802905e-02
1.293182e+00	1.157894e+01	4.802661e-02
1.293182e+00	1.263157e+01	4.802147e-02
1.293181e+00	1.368420e+01	4.801239e-02
1.293180e+00	1.473682e+01	4.799536e-02
1.293177e+00	1.578943e+01	4.796076e-02
1.293176e+00	1.684201e+01	4.787931e-02
1.293209e+00	1.789442e+01	4.760683e-02
1.293857e+00	1.894602e+01	4.663288e-02
1.313436e+00	1.998450e+01	2.741089e-02
1.304269e+00	1.439109e-02	2.371916e-02
1.283924e+00	1.054288e+00	3.949181e-02
1.284220e+00	2.105575e+00	4.083115e-02
1.283531e+00	3.157989e+00	4.118334e-02
1.283394e+00	4.210566e+00	4.127199e-02
1.283351e+00	5.263177e+00	4.130632e-02
1.283332e+00	6.315800e+00	4.132243e-02
1.283323e+00	7.368427e+00	4.133077e-02
1.283315e+00	8.421055e+00	4.133584e-02
1.283337e+00	9.473515e+00	4.133835e-02
1.283337e+00	1.052649e+01	4.133801e-02
1.283310e+00	1.157894e+01	4.133569e-02
1.283309e+00	1.263157e+01	4.133126e-02
1.283308e+00	1.368420e+01	4.132348e-02
1.283305e+00	1.473682e+01	4.130887e-02
1.283303e+00	1.578943e+01	4.127903e-02
1.283295e+00	1.684201e+01	4.120871e-02
1.283332e+00	1.789443e+01	4.097189e-02
1.284121e+00	1.894600e+01	4.032889e-02
1.304204e+00	1.998556e+01	2.417347e-02
1.294442e+00	1.382375e-02	2.154900e-02
1.271817e+00	1.053078e+00	2.559438e-02
1.274854e+00	2.105514e+00	3.286203e-02
1.276195e+00	3.157982e+00	3.360377e-02
1.276410e+00	4.210563e+00	3.373281e-02
1.276485e+00	5.263176e+00	3.377931e-02
1.276520e+00	6.315800e+00	3.380041e-02
1.276537e+00	7.368427e+00	3.381111e-02
1.276543e+00	8.421055e+00	3.381693e-02
1.276583e+00	9.473515e+00	3.382312e-02
1.276589e+00	1.052648e+01	3.382413e-02
1.276560e+00	1.157895e+01	3.382011e-02
1.276565e+00	1.263157e+01	3.381716e-02
1.276570e+00	1.368420e+01	3.381166e-02
[...]
CELL_DATA 893
SCALARS Mu double 1
LOOKUP_TABLE default
-2.66312e-11
-3.10664e-11
-3.18437e-11
-3.20552e-11
-3.21323e-11
-3.21718e-11
-3.21894e-11
-3.2205e-11
-3.22268e-11
-3.22102e-11
-3.22278e-11
-3.22073e-11
-3.21913e-11
-3.21714e-11
-3.21368e-11
-3.20551e-11
-3.18426e-11
-3.10702e-11
-2.66293e-11
0.00415121
0.00443406
0.00448509
0.00449967
0.00450535
0.00450804
0.00450948
0.00451029
0.00451071
0.00451085
0.00451071
0.00451029
0.00450948
0.00450804
0.00450535
0.00449967
0.00448509
0.00443406
0.00415121
0.00559784
0.00596326
0.00603655
0.00605728
0.0060653
0.00606909
0.00607111
0.00607224
0.0060729
0.00607312
0.00607289
0.00607226
0.00607116
0.00606918
0.00606547
0.00605767
0.0060378
0.00596923
0.00564305
0.00640968
0.00693568
0.00702847
0.00705412
0.00706391
0.0070685
0.00707094
0.00707229
0.00707316
0.0070734
0.00707305
0.00707236
0.00707106
0.00706873
0.00706438
0.00705529
0.00703244
0.00695572
0.00671908
0.0069648
0.00755651
0.00765777
0.00768596
0.00769675
0.00770181
0.0077045
0.00770599
0.00770694
0.00770723
0.00770685
0.00770605
0.0077046
0.00770201
0.00769715
0.00768698
0.00766127
0.00757311
0.00733451
0.00726833
0.00788298
0.00798796
0.00801715
0.00802839
0.00803369
0.00803651
0.00803807
0.00803905
0.00803939
0.008039
0.0080381
0.00803655
0.00803377
0.00802854
0.00801754
0.00798942
0.00788835
0.007577
0.00733533
0.00794558
0.00804937
0.0080786
0.00808994
0.00809532
0.00809817
0.00809976
0.00810073
0.00810112
0.00810073
0.00809976
0.00809816
0.00809528
0.00808987
0.00807842
0.00804897
0.00794052
0.00752251
0.00717642
0.00775941
0.00786198
0.00789115
0.00790248
0.00790784
0.00791069
0.00791227
0.00791325
0.00791363
0.00791323
0.00791227
0.00791067
0.00790781
0.00790243
0.00789104
0.00786183
0.00775361
0.00731422
0.00680116
0.00734184
0.00744473
0.00747379
0.00748499
0.00749026
0.00749305
0.0074946
0.00749559
0.00749595
0.00749554
0.00749464
0.0074931
0.00749035
0.00748519
0.00747431
0.00744667
0.00734469
0.00694306
0.00622373
0.00671545
0.006818
0.00684641
0.00685723
0.0068623
0.00686497
0.00686644
0.00686742
0.00686774
0.00686733
0.00686651
0.00686508
0.00686251
0.0068577
0.00684762
0.00682229
0.0067289
0.00638513
0.00546651
0.0059058
0.00600398
0.0060307
0.00604079
0.00604548
0.00604795
0.0060493
0.00605022
0.00605051
0.00605011
0.00604939
0.00604809
0.00604576
0.00604139
0.00603228
0.00600961
0.00592591
0.00564692
0.00454778
0.00493779
0.00502658
0.00505052
0.00505952
0.00506368
0.00506586
0.00506705
0.00506788
0.00506812
0.00506775
0.00506713
0.00506598
0.00506393
0.00506008
0.00505208
0.00503231
0.00495926
0.00474823
0.00347496
0.00383336
0.00391132
0.00393196
0.00393968
0.00394323
0.00394508
0.00394609
0.00394679
0.003947
0.00394669
0.00394617
0.0039452
0.00394347
0.00394023
0.00393349
0.00391693
0.00385573
0.00371128
0.00229078
0.0026212
0.00268695
0.00270386
0.00271013
0.00271301
0.0027145
0.00271531
0.00271587
0.00271604
0.0027158
0.00271539
0.00271464
0.00271327
0.00271071
0.0027054
0.00269243
0.00264445
0.00256079
0.00105664
0.00133609
0.00138515
0.0013975
0.00140205
0.00140412
0.00140519
0.00140577
0.00140617
0.0014063
0.00140612
0.00140584
0.00140531
0.00140435
0.00140255
0.00139881
0.00138982
0.00135657
0.00132289
-0.000209143
6.43864e-06
3.77109e-05
4.5225e-05
4.79346e-05
4.91465e-05
4.97616e-05
5.00891e-05
5.03252e-05
5.03915e-05
5.02853e-05
5.01526e-05
4.9865e-05
4.93396e-05
4.83492e-05
4.63025e-05
4.16187e-05
2.43149e-05
3.41971e-05
-0.00147823
-0.00133624
-0.00132229
-0.00131959
-0.00131872
-0.00131838
-0.00131822
-0.00131815
-0.00131807
-0.00131807
-0.0013181
-0.00131809
-0.00131812
-0.00131819
-0.00131834
-0.00131862
-0.0013188
-0.00131969
-0.00126034
-0.0027229
-0.00265853
-0.00266119
-0.0026632
-0.00266413
-0.00266463
-0.00266492
-0.0026651
-0.00266518
-0.00266523
-0.00266519
-0.00266503
-0.00266481
-0.00266443
-0.00266372
-0.00266221
-0.00265782
-0.00264222
-0.00252414
-0.0039124
-0.00392742
-0.00394586
-0.00395235
-0.00395502
-0.00395634
-0.00395707
-0.00395749
-0.00395773
-0.00395783
-0.00395772
-0.0039574
-0.00395693
-0.0039561
-0.00395456
-0.00395128
-0.00394238
-0.0039105
-0.00373133
-0.00501246
-0.00511084
-0.0051444
-0.00515517
-0.0051595
-0.00516161
-0.00516276
-0.00516341
-0.00516379
-0.00516396
-0.00516378
-0.00516331
-0.0051626
-0.00516134
-0.005159
-0.00515403
-0.00514076
-0.00509319
-0.00485636
-0.00599743
-0.00617912
-0.00622714
-0.00624195
-0.00624786
-0.00625073
-0.00625228
-0.00625316
-0.00625368
-0.0062539
-0.00625367
-0.00625306
-0.00625214
-0.00625048
-0.00624739
-0.00624084
-0.00622349
-0.00616118
-0.00587251
-0.00684815
-0.00710615
-0.00716781
-0.00718629
-0.00719359
-0.00719711
-0.007199
-0.00720007
-0.0072007
-0.00720097
-0.00720069
-0.00719995
-0.00719882
-0.00719681
-0.00719304
-0.00718506
-0.00716403
-0.00708828
-0.00675498
-0.00754625
-0.00786968
-0.00794355
-0.00796506
-0.00797352
-0.00797758
-0.00797977
-0.00798099
-0.00798172
-0.00798204
-0.0079817
-0.00798085
-0.00797955
-0.00797723
-0.00797288
-0.00796367
-0.00793946
-0.00785187
-0.00748208
-0.00807533
-0.0084516
-0.00853532
-0.00855931
-0.00856871
-0.00857322
-0.00857565
-0.008577
-0.00857781
-0.00857816
-0.00857778
-0.00857685
-0.0085754
-0.00857283
-0.008568
-0.00855777
-0.00853098
-0.00843343
-0.00803566
-0.00842295
-0.00883826
-0.00892879
-0.00895469
-0.00896483
-0.00896968
-0.00897229
-0.00897375
-0.00897462
-0.00897499
-0.00897458
-0.00897358
-0.00897202
-0.00896926
-0.00896407
-0.00895308
-0.00892435
-0.008819
-0.00840153
-0.00858194
-0.0090205
-0.00911455
-0.00914177
-0.00915241
-0.0091575
-0.00916024
-0.00916177
-0.00916267
-0.00916306
-0.00916263
-0.00916158
-0.00915995
-0.00915706
-0.00915164
-0.00914015
-0.00911018
-0.00899937
-0.00857001
-0.00855017
-0.00899359
-0.00908844
-0.00911622
-0.00912707
-0.00913227
-0.00913505
-0.00913661
-0.00913753
-0.00913793
-0.00913747
-0.00913641
-0.00913475
-0.00913181
-0.00912628
-0.00911457
-0.00908405
-0.00897033
-0.00853641
-0.00832804
-0.0087578
-0.00885102
-0.00887865
-0.00888943
-0.00889459
-0.00889735
-0.00889889
-0.00889981
-0.0089002
-0.00889973
-0.00889868
-0.00889701
-0.00889409
-0.00888859
-0.00887694
-0.0088466
-0.00873265
-0.0083014
-0.00791337
-0.00831811
-0.00840773
-0.00843456
-0.00844501
-0.00844999
-0.00845266
-0.00845415
-0.00845504
-0.00845541
-0.00845494
-0.00845393
-0.00845231
-0.00844947
-0.00844414
-0.00843284
-0.00840343
-0.00829202
-0.00787076
-0.0073058
-0.00768353
-0.00776858
-0.00779417
-0.0078041
-0.00780881
-0.00781132
-0.00781271
-0.00781357
-0.0078139
-0.00781344
-0.0078125
-0.00781098
-0.00780829
-0.00780327
-0.00779262
-0.00776491
-0.00765902
-0.00726026
-0.0065271
-0.00686922
-0.00694837
-0.00697229
-0.00698151
-0.00698586
-0.00698817
-0.00698945
-0.00699026
-0.00699055
-0.00699011
-0.00698926
-0.00698788
-0.00698542
-0.00698084
-0.00697113
-0.00694588
-0.00684858
-0.00648654
-0.00559281
-0.0058951
-0.00596642
-0.00598805
-0.00599634
-0.00600023
-0.00600229
-0.00600342
-0.00600415
-0.00600441
-0.006004
-0.00600326
-0.00600204
-0.00599987
-0.00599583
-0.00598729
-0.00596509
-0.00587837
-0.00556886
-0.00451399
-0.00478328
-0.00484533
-0.00486424
-0.00487142
-0.00487476
-0.00487651
-0.00487748
-0.00487811
-0.00487832
-0.00487795
-0.00487732
-0.00487629
-0.00487445
-0.00487105
-0.00486385
-0.00484524
-0.00477022
-0.0045218
-0.00332803
-0.00355956
-0.0036111
-0.00362692
-0.00363288
-0.00363562
-0.00363705
-0.00363782
-0.00363835
-0.0036385
-0.00363817
-0.00363768
-0.00363686
-0.0036354
-0.00363269
-0.00362701
-0.00361253
-0.00355134
-0.00336813
-0.00207076
-0.00225238
-0.00229269
-0.00230512
-0.00230972
-0.0023118
-0.00231287
-0.00231344
-0.00231385
-0.00231395
-0.00231369
-0.00231335
-0.00231276
-0.00231172
-0.0023098
-0.0023058
-0.00229553
-0.00224973
-0.00213592
-0.000776699
-0.000894077
-0.000921544
-0.000930079
-0.000933128
-0.000934471
-0.000935143
-0.000935488
-0.000935764
-0.000935816
-0.000935625
-0.000935443
-0.000935106
-0.000934522
-0.000933433
-0.000931194
-0.000925232
-0.000895797
-0.000854141
0.00052738
0.00048213
0.000469568
0.000465596
0.000464304
0.000463782
0.000463543
0.000463435
0.000463306
0.000463302
0.00046341
0.000463432
0.000463503
0.000463627
0.000463865
0.000464347
0.000465953
0.00047865
0.000447458
0.00181451
0.00184267
0.00184762
0.00184851
0.00184913
0.00184953
0.00184979
0.00184997
0.00185003
0.0018501
0.00185014
0.00185002
0.00184984
0.00184952
0.00184893
0.0018477
0.00184496
0.00184104
0.00173881
0.00305583
0.00315603
0.00317975
0.00318589
0.00318855
0.00318992
0.0031907
0.00319116
0.00319141
0.00319154
0.0031915
0.00319124
0.00319083
0.00319007
0.00318868
0.00318581
0.00317889
0.00315904
0.00298868
0.00422191
0.00439191
0.00443444
0.004446
0.00445066
0.00445294
0.0044542
0.00445492
0.00445533
0.00445551
0.00445539
0.00445498
0.00445433
0.00445315
0.00445098
0.00444652
0.00443558
0.00440058
0.00416704
0.00528459
0.00552203
0.00558198
0.00559866
0.00560517
0.0056083
0.00560998
0.00561094
0.00561151
0.00561173
0.00561154
0.00561099
0.00561012
0.00560855
0.00560567
0.00559975
0.00558515
0.00553646
0.00524716
0.00621739
0.00652159
0.00659499
0.00661625
0.00662446
0.00662836
0.00663044
0.00663161
0.00663231
0.00663258
0.00663231
0.00663164
0.00663056
0.00662863
0.00662508
0.00661778
0.00659981
0.00653886
0.00620287
0.00699912
0.00736574
0.00744945
0.0074746
0.00748428
0.00748885
0.00749128
0.00749263
0.00749346
0.00749376
0.00749343
0.00749265
0.00749139
0.00748912
0.00748498
0.00747642
0.00745544
0.00738385
0.00701112
0.00761275
0.00803209
0.00812521
0.00815344
0.00816429
0.00816942
0.00817214
0.00817366
0.0081746
0.00817493
0.00817455
0.00817368
0.00817225
0.0081697
0.00816503
0.00815538
0.00813179
0.00805111
0.00765184
0.00804608
0.00850495
0.0086054
0.00863651
0.00864847
0.00865412
0.00865711
0.00865878
0.00865981
0.00866018
0.00865976
0.00865882
0.00865726
0.00865449
0.00864939
0.00863885
0.00861311
0.00852502
0.0081093
0.0082904
0.00877521
0.00888004
0.00891328
0.00892611
0.00893208
0.00893521
0.00893695
0.00893803
0.00893841
0.00893795
0.00893697
0.00893532
0.00893237
0.00892694
0.00891573
0.00888839
0.00879475
0.00837075

