# vtk DataFile Version 2.0
OUTPUT by 3D-VPM
ASCII
DATASET UNSTRUCTURED_GRID
POINTS 1600 double
7.819694e+01	1.035028e+00	-3.291306e+00
7.834524e+01	1.869672e+00	-1.545932e+00
7.891684e+01	2.471040e+00	-2.787056e+00
7.834485e+01	3.501583e+00	-2.483767e+00
7.849834e+01	4.477443e+00	-1.749175e+00
7.872687e+01	5.519298e+00	-1.709501e+00
7.865014e+01	6.515815e+00	-1.690191e+00
7.859787e+01	7.496366e+00	-1.542047e+00
7.861968e+01	8.493514e+00	-1.487594e+00
7.861337e+01	9.497349e+00	-1.476704e+00
7.861334e+01	1.050288e+01	-1.476723e+00
7.861960e+01	1.150673e+01	-1.487648e+00
7.859772e+01	1.250391e+01	-1.542111e+00
7.864984e+01	1.348455e+01	-1.690220e+00
7.872628e+01	1.448126e+01	-1.709494e+00
7.849766e+01	1.552413e+01	-1.748949e+00
7.834262e+01	1.650542e+01	-2.482848e+00
7.890071e+01	1.753180e+01	-2.791261e+00
7.839175e+01	1.816616e+01	-1.510253e+00
7.796075e+01	1.890290e+01	-3.084465e+00
7.745221e+01	1.181280e+00	-3.386165e+00
7.799207e+01	1.184862e+00	-8.676822e-01
7.757070e+01	2.432372e+00	-3.263050e+00
7.721746e+01	3.418276e+00	-1.470927e+00
7.748063e+01	4.454904e+00	-8.969801e-01
7.745304e+01	5.450508e+00	-1.038712e+00
7.738059e+01	6.411587e+00	-8.552902e-01
7.736414e+01	7.435774e+00	-7.637839e-01
7.735071e+01	8.460173e+00	-7.359078e-01
7.734130e+01	9.485496e+00	-7.173243e-01
7.734128e+01	1.051467e+01	-7.173508e-01
7.735066e+01	1.154003e+01	-7.359901e-01
7.736405e+01	1.256451e+01	-7.639235e-01
7.738045e+01	1.358887e+01	-8.555592e-01
7.745282e+01	1.455029e+01	-1.039235e+00
7.748017e+01	1.554640e+01	-8.982572e-01
7.721802e+01	1.658509e+01	-1.476178e+00
7.759446e+01	1.759163e+01	-3.274749e+00
7.798222e+01	1.880060e+01	-8.578660e-01
7.776263e+01	1.876566e+01	-3.502047e+00
7.657854e+01	1.082144e+00	-2.007281e+00
7.607081e+01	1.592590e+00	-2.689399e+00
7.841847e+01	4.582934e-01	-2.790311e+00
7.886072e+01	2.826227e+00	-1.952578e+00
7.938942e+01	3.697338e+00	-1.634764e+00
7.975325e+01	5.038235e+00	-1.505772e+00
7.963067e+01	6.211658e+00	-1.197485e+00
7.960069e+01	7.283742e+00	-1.040373e+00
7.958845e+01	8.379248e+00	-9.511700e-01
7.956778e+01	9.461909e+00	-9.057183e-01
7.956777e+01	1.053811e+01	-9.057601e-01
7.958845e+01	1.162074e+01	-9.513189e-01
7.960072e+01	1.271618e+01	-1.040683e+00
7.963074e+01	1.378814e+01	-1.198086e+00
7.975317e+01	1.496119e+01	-1.506853e+00
7.938889e+01	1.630165e+01	-1.635479e+00
7.885305e+01	1.717464e+01	-1.951618e+00
7.849154e+01	1.962772e+01	-2.834481e+00
7.609153e+01	1.845620e+01	-2.739507e+00
7.659529e+01	1.892050e+01	-1.995639e+00
7.540200e+01	2.884059e-01	-2.318847e+00
7.550870e+01	1.653231e+00	-2.293495e+00
7.690621e+01	-3.796455e-01	-3.227935e+00
7.709878e+01	2.302792e+00	-4.620650e+00
7.748130e+01	3.965104e+00	-4.400710e+00
7.768440e+01	5.173818e+00	-4.173838e+00
7.779019e+01	6.287425e+00	-4.013911e+00
7.785648e+01	7.365067e+00	-3.897544e+00
7.789450e+01	8.423149e+00	-3.824138e+00
7.791148e+01	9.474778e+00	-3.789556e+00
7.791148e+01	1.052526e+01	-3.789596e+00
7.789451e+01	1.157691e+01	-3.824264e+00
7.785650e+01	1.263505e+01	-3.897762e+00
7.779017e+01	1.371281e+01	-4.014230e+00
7.768454e+01	1.482670e+01	-4.174218e+00
7.748215e+01	1.603608e+01	-4.400155e+00
7.710218e+01	1.769854e+01	-4.614058e+00
7.690557e+01	2.037321e+01	-3.244391e+00
7.551922e+01	1.834108e+01	-2.291615e+00
7.543170e+01	1.970821e+01	-2.316160e+00
7.451525e+01	1.779908e-01	-2.028651e+00
7.466779e+01	1.513997e+00	-1.241094e+00
7.550675e+01	-8.697733e-01	-3.042871e+00
7.544086e+01	1.978479e+00	-4.725223e+00
7.561945e+01	3.781307e+00	-4.651496e+00
7.576962e+01	5.099980e+00	-4.468057e+00
7.586331e+01	6.252988e+00	-4.317053e+00
7.591962e+01	7.345817e+00	-4.209820e+00
7.595185e+01	8.414023e+00	-4.142311e+00
7.596660e+01	9.472152e+00	-4.109983e+00
7.596664e+01	1.052781e+01	-4.110058e+00
7.595197e+01	1.158594e+01	-4.142556e+00
7.591987e+01	1.265415e+01	-4.210275e+00
7.586375e+01	1.374696e+01	-4.317767e+00
7.577071e+01	1.489993e+01	-4.469202e+00
7.562204e+01	1.621809e+01	-4.652213e+00
7.544560e+01	1.801628e+01	-4.723773e+00
7.550787e+01	2.086134e+01	-3.069113e+00
7.467088e+01	1.848720e+01	-1.236953e+00
7.452900e+01	1.981732e+01	-2.020719e+00
7.373511e+01	1.580435e-01	-1.586807e+00
7.366804e+01	1.381765e+00	-1.547725e+00
7.433978e+01	-1.094170e+00	-2.986112e+00
7.416740e+01	1.800431e+00	-4.666019e+00
7.425968e+01	3.656291e+00	-4.619317e+00
7.435968e+01	5.025493e+00	-4.443412e+00
7.443151e+01	6.211008e+00	-4.291362e+00
7.447777e+01	7.322300e+00	-4.181614e+00
7.450497e+01	8.401999e+00	-4.112234e+00
7.451762e+01	9.468436e+00	-4.078932e+00
7.451765e+01	1.053142e+01	-4.079027e+00
7.450510e+01	1.159782e+01	-4.112544e+00
7.447802e+01	1.267744e+01	-4.182182e+00
7.443196e+01	1.378854e+01	-4.292225e+00
7.436069e+01	1.497368e+01	-4.444790e+00
7.426171e+01	1.634166e+01	-4.620245e+00
7.416985e+01	1.819183e+01	-4.665037e+00
7.433777e+01	2.108292e+01	-3.012853e+00
7.367073e+01	1.861706e+01	-1.555579e+00
7.374535e+01	1.983735e+01	-1.585607e+00
7.282495e+01	-7.757413e-02	-1.552809e+00
7.286160e+01	1.388030e+00	-1.522654e+00
7.316879e+01	-1.227893e+00	-2.835972e+00
7.303824e+01	1.693716e+00	-4.555133e+00
7.309185e+01	3.575168e+00	-4.517409e+00
7.315972e+01	4.970410e+00	-4.339269e+00
7.321313e+01	6.176052e+00	-4.182744e+00
7.324979e+01	7.301322e+00	-4.068947e+00
7.327222e+01	8.390852e+00	-3.996819e+00
7.328287e+01	9.464918e+00	-3.962150e+00
7.328290e+01	1.053483e+01	-3.962249e+00
7.327233e+01	1.160884e+01	-3.997133e+00
7.324999e+01	1.269824e+01	-4.069502e+00
7.321347e+01	1.382323e+01	-4.183564e+00
7.316045e+01	1.502833e+01	-4.340478e+00
7.309318e+01	1.642207e+01	-4.517743e+00
7.303949e+01	1.829751e+01	-4.553018e+00
7.316710e+01	2.121476e+01	-2.861185e+00
7.286651e+01	1.860789e+01	-1.521603e+00
7.283334e+01	2.007325e+01	-1.550751e+00
7.187520e+01	4.623344e-02	-1.519185e+00
7.196298e+01	1.465410e+00	-1.305207e+00
7.207810e+01	-1.281764e+00	-2.582303e+00
7.197885e+01	1.623414e+00	-4.430945e+00
7.201315e+01	3.521508e+00	-4.398243e+00
7.206043e+01	4.931346e+00	-4.215891e+00
7.209989e+01	6.149211e+00	-4.054475e+00
7.212834e+01	7.284167e+00	-3.936746e+00
7.214636e+01	8.381360e+00	-3.861981e+00
7.215510e+01	9.461864e+00	-3.826009e+00
7.215513e+01	1.053781e+01	-3.826098e+00
7.214644e+01	1.161825e+01	-3.862255e+00
7.212848e+01	1.271528e+01	-3.937202e+00
7.210014e+01	1.384992e+01	-4.055205e+00
7.206094e+01	1.506718e+01	-4.216808e+00
7.201403e+01	1.647539e+01	-4.397731e+00
7.197964e+01	1.836720e+01	-4.427491e+00
7.207728e+01	2.126915e+01	-2.609012e+00
7.196581e+01	1.853074e+01	-1.299353e+00
7.188295e+01	1.994646e+01	-1.517632e+00
7.096410e+01	1.312346e-01	-1.327641e+00
7.100483e+01	1.474391e+00	-1.221310e+00
7.105896e+01	-1.286966e+00	-2.394736e+00
7.095721e+01	1.578111e+00	-4.310455e+00
7.097886e+01	3.486801e+00	-4.280714e+00
7.101217e+01	4.904726e+00	-4.094173e+00
7.104127e+01	6.129731e+00	-3.928555e+00
7.106304e+01	7.271039e+00	-3.807478e+00
7.107721e+01	8.373824e+00	-3.730455e+00
7.108421e+01	9.459396e+00	-3.693357e+00
7.108423e+01	1.054023e+01	-3.693421e+00
7.107727e+01	1.162573e+01	-3.730636e+00
7.106314e+01	1.272835e+01	-3.807771e+00
7.104144e+01	1.386932e+01	-3.929005e+00
7.101254e+01	1.509371e+01	-4.094639e+00
7.097954e+01	1.650994e+01	-4.279379e+00
7.095790e+01	1.841202e+01	-4.305820e+00
7.105837e+01	2.127488e+01	-2.422227e+00
7.100633e+01	1.852221e+01	-1.215512e+00
7.097026e+01	1.986119e+01	-1.323182e+00
7.002085e+01	1.066885e-01	-1.260435e+00
7.006274e+01	1.492574e+00	-1.141889e+00
7.004569e+01	-1.274568e+00	-2.262419e+00
6.995503e+01	1.553883e+00	-4.201785e+00
6.996715e+01	3.466382e+00	-4.171759e+00
6.999046e+01	4.887760e+00	-3.981381e+00
7.001189e+01	6.116391e+00	-3.812603e+00
7.002836e+01	7.261608e+00	-3.688930e+00
7.003924e+01	8.368245e+00	-3.609895e+00
7.004473e+01	9.457537e+00	-3.571811e+00
7.004474e+01	1.054206e+01	-3.571813e+00
7.003926e+01	1.163131e+01	-3.609805e+00
7.002830e+01	1.273774e+01	-3.688523e+00
7.001187e+01	1.388255e+01	-3.812191e+00
6.999065e+01	1.511054e+01	-3.980673e+00
6.996768e+01	1.653016e+01	-4.169155e+00
6.995572e+01	1.843586e+01	-4.196123e+00
7.004541e+01	2.126268e+01	-2.289981e+00
7.006416e+01	1.850384e+01	-1.133875e+00
7.002549e+01	1.988704e+01	-1.255991e+00
6.906747e+01	1.483572e-01	-1.239504e+00
6.910567e+01	1.521687e+00	-1.035873e+00
6.903955e+01	-1.245935e+00	-2.154942e+00
6.896108e+01	1.545811e+00	-4.106355e+00
6.896656e+01	3.456968e+00	-4.073036e+00
6.898258e+01	4.878362e+00	-3.878922e+00
6.899800e+01	6.108358e+00	-3.705071e+00
6.901033e+01	7.255434e+00	-3.579420e+00
6.901885e+01	8.364345e+00	-3.501509e+00
6.902310e+01	9.456222e+00	-3.462876e+00
6.902312e+01	1.054336e+01	-3.462791e+00
6.901886e+01	1.163516e+01	-3.501271e+00
6.901048e+01	1.274397e+01	-3.581326e+00
6.899815e+01	1.389073e+01	-3.706727e+00
6.898273e+01	1.511985e+01	-3.877516e+00
6.896704e+01	1.653943e+01	-4.069534e+00
6.896177e+01	1.844362e+01	-4.099777e+00
6.903943e+01	2.123429e+01	-2.182426e+00
6.910658e+01	1.847468e+01	-1.025356e+00
6.907108e+01	1.984478e+01	-1.235011e+00
6.810485e+01	1.867070e-01	-1.193683e+00
6.813345e+01	1.539967e+00	-9.343314e-01
6.804149e+01	-1.209423e+00	-2.079805e+00
6.797025e+01	1.549619e+00	-4.022648e+00
6.797110e+01	3.455884e+00	-3.983931e+00
6.798181e+01	4.874835e+00	-3.786364e+00
6.799296e+01	6.104290e+00	-3.609749e+00
6.800217e+01	7.251773e+00	-3.482391e+00
6.800864e+01	8.361876e+00	-3.404289e+00
6.801189e+01	9.455373e+00	-3.365561e+00
6.801190e+01	1.054418e+01	-3.365439e+00
6.800862e+01	1.163754e+01	-3.404259e+00
6.800229e+01	1.274761e+01	-3.485644e+00
6.799312e+01	1.389496e+01	-3.612513e+00
6.798201e+01	1.512344e+01	-3.785105e+00
6.797158e+01	1.654051e+01	-3.980157e+00
6.797096e+01	1.843962e+01	-4.015305e+00
6.804119e+01	2.119753e+01	-2.106677e+00
6.813436e+01	1.845629e+01	-9.218402e-01
6.810759e+01	1.980488e+01	-1.186843e+00
6.712419e+01	2.292076e-01	-1.155835e+00
6.715779e+01	1.553417e+00	-8.330825e-01
6.704465e+01	-1.167726e+00	-2.030381e+00
6.698030e+01	1.562483e+00	-3.948935e+00
6.697773e+01	3.460990e+00	-3.903213e+00
6.698460e+01	4.875635e+00	-3.702486e+00
6.699272e+01	6.102957e+00	-3.526548e+00
[...]
CELL_DATA 1501
SCALARS Mu double 1
LOOKUP_TABLE default
-0.388429
-0.434839
-0.445113
-0.448285
-0.449531
-0.450112
-0.450415
-0.45058
-0.450664
-0.450691
-0.450664
-0.45058
-0.450415
-0.450112
-0.449531
-0.448285
-0.445113
-0.434839
-0.388429
-0.510131
-0.594683
-0.616974
-0.624665
-0.627855
-0.629376
-0.630171
-0.630603
-0.630824
-0.630893
-0.630827
-0.630608
-0.630178
-0.629383
-0.627864
-0.624669
-0.616953
-0.594531
-0.509768
-0.565402
-0.676259
-0.708906
-0.721304
-0.726769
-0.729481
-0.73093
-0.731726
-0.732133
-0.732261
-0.732142
-0.731746
-0.730963
-0.729527
-0.726831
-0.721339
-0.708845
-0.676044
-0.567553
-0.5965
-0.724128
-0.764294
-0.780705
-0.788374
-0.792329
-0.794491
-0.79569
-0.796305
-0.796497
-0.796315
-0.795713
-0.794527
-0.792381
-0.788441
-0.780711
-0.764093
-0.72369
-0.599882
-0.616157
-0.754595
-0.800147
-0.819703
-0.829262
-0.834366
-0.837218
-0.838823
-0.839649
-0.839907
-0.839656
-0.838838
-0.837242
-0.834395
-0.829287
-0.81961
-0.799729
-0.753863
-0.620006
-0.629462
-0.77515
-0.824573
-0.846525
-0.857613
-0.863703
-0.867176
-0.869157
-0.870184
-0.870502
-0.870184
-0.869157
-0.867173
-0.863686
-0.85756
-0.846289
-0.823906
-0.774108
-0.633433
-0.63891
-0.789621
-0.841854
-0.865629
-0.87793
-0.884838
-0.888843
-0.891155
-0.892362
-0.892735
-0.892353
-0.891135
-0.888804
-0.884767
-0.877784
-0.865235
-0.840944
-0.78829
-0.642855
-0.645861
-0.800146
-0.854446
-0.879611
-0.892871
-0.900442
-0.904899
-0.907495
-0.908859
-0.909278
-0.908838
-0.907451
-0.904819
-0.900312
-0.892624
-0.879062
-0.853314
-0.798557
-0.649722
-0.651118
-0.808004
-0.863847
-0.890074
-0.904089
-0.912208
-0.917035
-0.91987
-0.921366
-0.921824
-0.921333
-0.919799
-0.916913
-0.912002
-0.903739
-0.889378
-0.86252
-0.80619
-0.654877
-0.655184
-0.813999
-0.871014
-0.898055
-0.91267
-0.921219
-0.926358
-0.929393
-0.931
-0.93149
-0.930954
-0.929291
-0.926181
-0.920941
-0.912171
-0.897221
-0.869514
-0.811993
-0.658841
-0.658388
-0.818659
-0.87657
-0.904239
-0.919324
-0.928202
-0.933353
-0.936781
-0.938511
-0.939032
-0.938454
-0.936687
-0.933422
-0.927882
-0.918774
-0.903285
-0.874921
-0.816489
-0.661948
-0.660949
-0.822338
-0.88094
-0.909098
-0.924554
-0.933726
-0.939242
-0.942613
-0.944431
-0.944972
-0.944365
-0.94251
-0.939127
-0.933362
-0.923934
-0.908042
-0.879166
-0.820031
-0.664423
-0.663021
-0.825283
-0.884419
-0.91296
-0.928706
-0.938104
-0.943837
-0.947298
-0.94915
-0.949712
-0.94908
-0.947156
-0.943615
-0.937678
-0.92802
-0.911817
-0.882541
-0.82286
-0.666419
-0.664715
-0.827667
-0.887216
-0.916056
-0.932031
-0.941591
-0.947475
-0.951026
-0.95292
-0.953498
-0.952849
-0.950851
-0.947181
-0.941111
-0.931284
-0.91484
-0.885252
-0.825147
-0.668047
-0.666097
-0.829594
-0.889464
-0.918544
-0.934709
-0.944423
-0.950403
-0.954048
-0.955985
-0.956559
-0.955888
-0.953846
-0.950085
-0.943903
-0.933924
-0.917287
-0.887452
-0.827017
-0.669388
-0.667253
-0.831199
-0.891318
-0.920587
-0.936901
-0.946741
-0.952803
-0.956494
-0.958367
-0.959029
-0.958341
-0.955882
-0.952377
-0.946158
-0.93607
-0.919281
-0.889251
-0.828559
-0.670503
-0.668225
-0.832528
-0.892849
-0.922268
-0.938724
-0.948632
-0.95476
-0.958469
-0.960483
-0.961076
-0.960326
-0.958144
-0.954299
-0.947591
-0.937793
-0.920911
-0.890737
-0.829835
-0.671435
-0.669047
-0.833641
-0.894119
-0.923653
-0.940183
-0.950182
-0.956367
-0.960143
-0.962458
-0.963208
-0.962042
-0.959854
-0.955938
-0.949468
-0.93926
-0.922276
-0.89198
-0.830914
-0.672233
-0.669767
-0.834672
-0.895229
-0.924909
-0.941505
-0.951463
-0.957689
-0.96148
-0.963593
-0.96431
-0.963546
-0.961351
-0.957315
-0.950829
-0.940496
-0.923416
-0.893019
-0.831825
-0.672916
-0.670312
-0.835344
-0.896019
-0.925722
-0.942395
-0.952498
-0.958791
-0.962623
-0.964705
-0.965348
-0.964681
-0.962445
-0.958452
-0.951955
-0.941544
-0.924384
-0.893894
-0.832588
-0.673485
-0.670778
-0.835965
-0.896752
-0.926487
-0.943239
-0.953408
-0.959746
-0.963602
-0.965689
-0.966309
-0.965575
-0.963436
-0.959372
-0.952866
-0.942406
-0.9252
-0.894666
-0.833238
-0.673966
-0.671201
-0.836527
-0.897403
-0.927221
-0.943991
-0.954198
-0.960565
-0.964442
-0.966536
-0.96716
-0.966427
-0.964225
-0.960186
-0.953631
-0.94313
-0.925872
-0.895265
-0.833767
-0.674364
-0.671574
-0.837024
-0.897976
-0.927847
-0.944655
-0.954893
-0.961277
-0.965168
-0.967284
-0.96792
-0.96719
-0.964957
-0.96089
-0.954257
-0.943745
-0.926479
-0.895817
-0.834246
-0.674719
-0.671901
-0.837465
-0.898476
-0.928371
-0.945229
-0.955506
-0.961918
-0.965836
-0.967943
-0.9686
-0.967847
-0.965649
-0.961531
-0.954898
-0.944353
-0.927025
-0.896261
-0.834667
-0.67503
-0.672181
-0.837848
-0.89886
-0.928876
-0.945762
-0.956053
-0.96248
-0.966416
-0.968528
-0.96916
-0.968423
-0.96618
-0.96197
-0.955345
-0.944872
-0.92751
-0.896732
-0.835035
-0.675302
-0.672432
-0.838191
-0.899304
-0.929302
-0.946225
-0.956537
-0.962983
-0.966931
-0.969046
-0.969698
-0.968958
-0.966693
-0.962563
-0.955913
-0.945337
-0.927944
-0.897097
-0.835372
-0.675543
-0.67265
-0.838473
-0.899433
-0.929681
-0.946642
-0.956974
-0.963416
-0.967382
-0.969528
-0.970182
-0.969434
-0.967162
-0.963034
-0.95637
-0.945756
-0.928334
-0.897476
-0.835673
-0.675758
-0.672843
-0.838734
-0.899801
-0.930017
-0.94701
-0.957366
-0.963823
-0.96782
-0.969982
-0.970669
-0.969866
-0.967549
-0.963444
-0.956781
-0.946143
-0.928686
-0.89776
-0.835933
-0.675947
-0.673019
-0.838981
-0.900132
-0.930327
-0.947327
-0.957681
-0.964209
-0.968202
-0.970361
-0.971052
-0.970207
-0.967921
-0.963822
-0.957088
-0.946483
-0.928995
-0.898061
-0.836171
-0.676117
-0.673184
-0.839214
-0.900475
-0.930633
-0.947652
-0.958038
-0.964544
-0.968532
-0.9707
-0.971412
-0.970585
-0.968296
-0.964105
-0.957431
-0.946776
-0.929278
-0.898315
-0.836391
-0.676271
-0.673336
-0.839438
-0.900733
-0.930907
-0.947952
-0.958539
-0.96489
-0.96909
-0.971099
-0.971747
-0.971032
-0.968664
-0.964525
-0.957764
-0.947021
-0.929528
-0.898543
-0.836589
-0.676412
-0.673093
-0.832934
-0.900547
-0.931022
-0.948003
-0.95862
-0.965148
-0.969415
-0.971412
-0.972045
-0.971313
-0.969027
-0.965407
-0.958068
-0.947317
-0.929762
-0.898751
-0.83677
-0.676538
-0.673109
-0.838233
-0.900522
-0.931105
-0.948293
-0.958806
-0.965382
-0.969683
-0.971677
-0.972301
-0.971567
-0.969306
-0.965783
-0.95836
-0.947568
-0.929975
-0.898935
-0.83693
-0.676652
-0.673397
-0.839334
-0.900867
-0.931315
-0.948502
-0.959012
-0.965615
-0.970051
-0.972024
-0.97254
-0.971793
-0.969506
-0.96541
-0.958569
-0.947775
-0.930156
-0.899072
-0.83707
-0.676757
-0.673604
-0.839754
-0.901216
-0.931532
-0.948696
-0.959212
-0.965862
-0.970156
-0.972154
-0.972747
-0.971998
-0.969691
-0.965496
-0.958798
-0.947957
-0.930312
-0.899211
-0.837196
-0.676852
-0.673756
-0.839992
-0.901407
-0.931681
-0.948861
-0.959426
-0.966021
-0.970411
-0.972329
-0.972929
-0.972154
-0.969843
-0.965629
-0.958887
-0.948089
-0.930449
-0.899337
-0.83731
-0.676936
-0.673875
-0.840163
-0.901591
-0.931873
-0.949026
-0.959545
-0.966179
-0.970492
-0.972491
-0.973094
-0.972311
-0.970005
-0.965796
-0.959061
-0.948218
-0.930574
-0.899452
-0.83741
-0.677013
-0.673972
-0.840299
-0.90173
-0.932019
-0.949157
-0.959648
-0.966291
-0.970629
-0.972706
-0.973241
-0.972472
-0.970159
-0.965913
-0.959131
-0.948335
-0.93073
-0.899558
-0.837505
-0.677083
-0.674055
-0.840414
-0.901851
-0.932148
-0.949367
-0.959803
-0.966422
-0.970753
-0.972774
-0.973387
-0.972691
-0.970305
-0.966032
-0.95925
-0.948466
-0.930802
-0.899682
-0.837596
-0.677151
-0.67413
-0.840515
-0.901958
-0.932259
-0.94945
-0.959925
-0.966547
-0.97095
-0.972724
-0.973462
-0.972732
-0.970365
-0.96615
-0.959404
-0.948576
-0.930894
-0.899772
-0.837678
-0.677212
-0.674198
-0.840603
-0.90205
-0.932345
-0.94942
-0.960026
-0.966664
-0.970992
-0.972961
-0.973695
-0.972848
-0.970146
-0.966318
-0.959473
-0.948614
-0.930956
-0.899821
-0.837742
-0.677265
-0.674258
-0.84068
-0.902131
-0.932425
-0.949485
-0.960115
-0.966749
-0.971085
-0.973081
-0.973718
-0.972906
-0.970484
-0.966326
-0.959536
-0.948734
-0.93109
-0.899936
-0.83783
-0.677332
-0.67431
-0.84075
-0.902206
-0.932504
-0.949582
-0.96021
-0.967018
-0.971233
-0.973196
-0.973804
-0.973005
-0.970645
-0.966413
-0.959631
-0.948933
-0.93116
-0.900019
-0.837902
-0.677385
-0.674361
-0.840818
-0.902278
-0.932589
-0.949749
-0.960329
-0.966975
-0.971287
-0.973286
-0.973891
-0.973088
-0.970748
-0.966503
-0.959712
-0.948919
-0.931231
-0.90009
-0.837968
-0.677434
-0.674408
-0.84088
-0.902346
-0.932665
-0.949841
-0.960414
-0.967024
-0.97135
-0.973367
-0.974031
-0.97314
-0.970837
-0.966663
-0.959791
-0.948975
-0.931295
-0.900155
-0.838031
-0.67748
-0.67445
-0.840931
-0.902395
-0.932701
-0.949911
-0.960555
-0.967096
-0.971419
-0.973434
-0.974045
-0.973248
-0.970958
-0.966758
-0.959867
-0.949038
-0.931354
-0.900214
-0.838086
-0.677522
-0.674494
-0.840983
-0.902448
-0.932754
-0.949967
-0.960535
-0.967169
-0.971481
-0.973485
-0.974101
-0.973326
-0.971033
-0.966759
-0.959927
-0.949097
-0.931411
-0.900268
-0.838137
-0.677563
-0.674532
-0.841035
-0.902512
-0.932835
-0.950032
-0.96057
-0.96722
-0.971574
-0.973597
-0.974172
-0.973392
-0.971098
-0.966815
-0.959977
-0.949151
-0.931465
-0.90032
-0.838186
-0.677601
-0.674563
-0.841077
-0.902561
-0.932881
-0.949981
-0.960609
-0.967262
-0.971636
-0.973667
-0.974236
-0.973453
-0.971158
-0.966875
-0.960066
-0.949221
-0.931526
-0.90037
-0.838231
-0.677636
-0.674597
-0.841121
-0.902607
-0.932929
-0.950109
-0.960653
-0.967309
-0.971687
-0.973721
-0.974284
-0.973456
-0.97113
-0.966912
-0.960116
-0.949275
-0.931577
-0.900417
-0.838273
-0.677668
-0.674628
-0.841162
-0.90265
-0.932977
-0.95017
-0.960703
-0.967357
-0.971735
-0.973766
-0.974328
-0.973492
-0.971168
-0.967092
-0.960134
-0.949308
-0.931614
-0.900459
-0.838313
-0.677699
-0.674656
-0.8412
-0.902692
-0.933023
-0.950252
-0.960752
-0.967403
-0.971781
-0.973811
-0.974371
-0.973531
-0.971212
-0.967153
-0.960184
-0.949349
-0.931655
-0.900498
-0.83835
-0.677728
-0.674684
-0.841236
-0.902732
-0.933066
-0.950302
-0.960796
-0.967442
-0.971794
-0.973849
-0.974408
-0.973574
-0.971267
-0.967281
-0.960261
-0.949395
-0.931694
-0.900536
-0.838385
-0.677755
-0.67471
-0.84127
-0.90277
-0.933108
-0.950345
-0.960838
-0.967482
-0.971834
-0.973904
-0.974506
-0.973629
-0.97135
-0.967322
-0.960292
-0.949434
-0.931732
-0.900572
-0.838419
-0.677781
-0.674735
-0.841302
-0.902806
-0.933151
-0.950391
-0.960933
-0.967553
-0.971876
-0.973897
-0.974498
-0.973663
-0.97135
-0.967205
-0.960267
-0.949464
-0.931766
-0.900606
-0.83845
-0.677805
-0.674759
-0.841335
-0.902839
-0.933187
-0.950428
-0.960939
-0.967594
-0.971912
-0.973932
-0.974602
-0.973733
-0.971418
-0.967176
-0.960304
-0.949493
-0.931798
-0.900637
-0.838479
-0.677828
-0.674781
-0.841364
-0.90287
-0.933216
-0.950411
-0.960962
-0.967628
-0.971945
-0.973957
-0.974573
-0.973748
-0.971466
-0.967192
-0.960335
-0.949592
-0.931833
-0.900668
-0.838507
-0.67785
-0.674804
-0.84139
-0.902899
-0.933245
-0.950432
-0.96099
-0.967662
-0.972023
-0.973995
-0.974628
-0.973778
-0.971495
-0.96722
-0.960368
-0.949636
-0.931868
-0.900698
-0.838534
-0.677869
-0.674824
-0.841417
-0.902924
-0.933269
-0.950456
-0.961015
-0.96769
-0.97206
-0.97402
-0.97463
-0.973798
-0.971486
-0.967243
-0.960397
-0.949669
-0.931899
-0.900726
-0.838559
-0.677889
-0.674839
-0.841437
-0.902946
-0.933288
-0.950481
-0.961041
-0.967719
-0.972119
-0.974049
-0.974651
-0.973817
-0.971502
-0.967263
-0.960396
-0.949697
-0.931927
-0.900752
-0.838583
-0.677907
-0.674856
-0.841458
-0.90297
-0.933315
-0.950521
-0.961071
-0.96775
-0.972159
-0.974092
-0.974728
-0.973845
-0.971524
-0.967276
-0.960413
-0.949721
-0.931953
-0.900777
-0.838606
-0.677925
-0.674876
-0.841481
-0.902995
-0.93334
-0.95055
-0.961098
-0.967774
-0.97216
-0.974122
-0.974765
-0.973875
-0.971551
-0.967298
-0.960435
-0.949745
-0.931976
-0.9008
-0.838627
-0.677942
-0.67489
-0.841502
-0.903017
-0.933365
-0.950565
-0.961167
-0.967803
-0.972182
-0.974148
-0.974794
-0.973902
-0.971577
-0.967322
-0.960459
-0.949779
-0.932001
-0.900822
-0.838648
-0.677958
-0.674906
-0.841521
-0.903038
-0.933388
-0.950589
-0.961201
-0.967837
-0.972208
-0.974173
-0.974819
-0.973926
-0.9716
-0.967343
-0.960476
-0.949733
-0.932018
-0.900842
-0.838667
-0.677973
-0.674921
-0.841543
-0.903059
-0.933409
-0.950609
-0.961185
-0.967865
-0.972259
-0.974629
-0.974899
-0.973964
-0.971643
-0.967457
-0.961978
-0.949833
-0.932052
-0.900866
-0.838687
-0.677988
-0.674935
-0.841562
-0.903079
-0.93343
-0.950629
-0.961202
-0.967896
-0.972312
-0.974752
-0.97497
-0.974015
-0.971713
-0.967635
-0.962331
-0.949975
-0.93211
-0.900898
-0.83871
-0.678004
-0.674949
-0.841579
-0.903098
-0.93345
-0.950651
-0.961225
-0.967926
-0.972352
-0.97481
-0.975024
-0.974065
-0.971777
-0.967727
-0.962467
-0.950076
-0.932165
-0.900932
-0.838734
-0.678021
-0.674962
-0.841596
-0.903116
-0.933469
-0.950671
-0.961246
-0.967948
-0.972359
-0.974421
-0.975038
-0.974101
-0.971824
-0.96779
-0.962543
-0.950139
-0.932207
-0.900963
-0.838762
-0.678038
-0.674975
-0.841612
-0.903133
-0.933486
-0.950689
-0.961264
-0.967961
-0.972357
-0.974359
-0.975035
-0.974123
-0.971858
-0.967834
-0.962594
-0.950183
-0.932241
-0.90099
-0.838784
-0.678053
-0.674986
-0.841627
-0.903149
-0.933503
-0.950705
-0.961279
-0.967973
-0.972365
-0.974354
-0.97504
-0.974142
-0.971885
-0.967867
-0.962631
-0.950216
-0.932268
-0.901014
-0.838804
-0.678068
-0.674997
-0.841641
-0.903165
-0.933518
-0.950721
-0.961294
-0.967986
-0.972376
-0.974362
-0.975054
-0.974169
-0.971909
-0.967894
-0.962661
-0.950243
-0.932292
-0.901035
-0.838822
-0.678081
-0.675008
-0.841655
-0.903179
-0.933533
-0.950736
-0.961309
-0.968
-0.972387
-0.974374
-0.975071
-0.974192
-0.971931
-0.967917
-0.962685
-0.950266
-0.932312
-0.901055
-0.838839
-0.678093
-0.675018
-0.841668
-0.903193
-0.933548
-0.950752
-0.961333
-0.968121
-0.97241
-0.97439
-0.975087
-0.97421
-0.971949
-0.967937
-0.962707
-0.950286
-0.93233
-0.901072
-0.838854
-0.678105
-0.675028
-0.841681
-0.903207
-0.933563
-0.950769
-0.961355
-0.96816
-0.972434
-0.974407
-0.975103
-0.974227
-0.971966
-0.967955
-0.962726
-0.950303
-0.932346
-0.901087
-0.838868
-0.678116
-0.675038
-0.841693
-0.90322
-0.933577
-0.950785
-0.961373
-0.968182
-0.972453
-0.974424
-0.975119
-0.974243
-0.971982
-0.967971
-0.962743
-0.95032
-0.932361
-0.901101
-0.838881
-0.678126
-0.675047
-0.841705
-0.903233
-0.933591
-0.950799
-0.961389
-0.968199
-0.97247
-0.974439
-0.975134
-0.974257
-0.971997
-0.967987
-0.962759
-0.950334
-0.932375
-0.901114
-0.838893
-0.678135
-0.675056
-0.841716
-0.903245
-0.933603
-0.950813
-0.961403
-0.968214
-0.972485
-0.974453
-0.975148
-0.974271
-0.97201
-0.968001
-0.962773
-0.950348
-0.932388
-0.901127
-0.838904
-0.678144
-0.675064
-0.841727
-0.903257
-0.933616
-0.950826
-0.961416
-0.968228
-0.972498
-0.974466
-0.975161
-0.974285
-0.972023
-0.968014
-0.962787
-0.950361
-0.9324
-0.901138
-0.838915
-0.678152

