# vtk DataFile Version 2.0
OUTPUT by 3D-VPM
ASCII
DATASET UNSTRUCTURED_GRID
POINTS 920 double
1.362088e+00	3.348417e-02	7.563389e-03
1.366640e+00	1.060912e+00	3.428810e-02
1.369207e+00	2.107252e+00	3.316767e-02
1.369756e+00	3.158485e+00	3.282265e-02
1.369936e+00	4.210758e+00	3.274868e-02
1.370017e+00	5.263268e+00	3.271672e-02
1.370055e+00	6.315848e+00	3.270550e-02
1.370073e+00	7.368454e+00	3.270248e-02
1.370082e+00	8.421072e+00	3.270212e-02
1.370102e+00	9.473509e+00	3.270256e-02
1.370102e+00	1.052649e+01	3.270251e-02
1.370082e+00	1.157893e+01	3.270166e-02
1.370074e+00	1.263155e+01	3.270220e-02
1.370056e+00	1.368415e+01	3.270477e-02
1.370019e+00	1.473674e+01	3.271463e-02
1.369941e+00	1.578925e+01	3.274314e-02
1.369772e+00	1.684156e+01	3.280573e-02
1.369290e+00	1.789299e+01	3.307175e-02
1.367282e+00	1.894266e+01	3.326827e-02
1.361510e+00	1.996529e+01	8.984587e-03
1.378346e+00	2.376499e-02	7.019768e-03
1.371554e+00	1.058407e+00	8.257738e-03
1.368751e+00	2.106589e+00	8.634107e-03
1.368144e+00	3.158315e+00	8.717866e-03
1.367983e+00	4.210748e+00	8.740513e-03
1.367910e+00	5.263289e+00	8.750382e-03
1.367885e+00	6.315865e+00	8.754380e-03
1.367879e+00	7.368464e+00	8.755885e-03
1.367877e+00	8.421078e+00	8.756453e-03
1.367901e+00	9.473517e+00	8.757513e-03
1.367901e+00	1.052648e+01	8.757296e-03
1.367876e+00	1.157893e+01	8.756341e-03
1.367878e+00	1.263154e+01	8.755978e-03
1.367884e+00	1.368414e+01	8.754617e-03
1.367907e+00	1.473671e+01	8.751049e-03
1.367974e+00	1.578926e+01	8.742342e-03
1.368120e+00	1.684170e+01	8.723815e-03
1.368638e+00	1.789350e+01	8.668640e-03
1.369868e+00	1.894234e+01	8.400716e-03
1.375102e+00	1.997243e+01	7.022612e-03
1.376890e+00	1.335632e-02	2.466570e-02
1.356858e+00	1.058089e+00	1.837136e-02
1.356026e+00	2.106196e+00	2.006206e-02
1.356252e+00	3.158166e+00	2.054620e-02
1.356357e+00	4.210634e+00	2.069326e-02
1.356406e+00	5.263210e+00	2.075711e-02
1.356431e+00	6.315817e+00	2.078497e-02
1.356444e+00	7.368437e+00	2.079752e-02
1.356450e+00	8.421061e+00	2.080367e-02
1.356472e+00	9.473523e+00	2.080194e-02
1.356472e+00	1.052648e+01	2.080173e-02
1.356450e+00	1.157894e+01	2.080384e-02
1.356444e+00	1.263156e+01	2.079788e-02
1.356432e+00	1.368418e+01	2.078584e-02
1.356408e+00	1.473679e+01	2.075943e-02
1.356360e+00	1.578937e+01	2.069929e-02
1.356261e+00	1.684185e+01	2.056386e-02
1.356054e+00	1.789390e+01	2.015178e-02
1.356436e+00	1.894435e+01	1.945666e-02
1.382346e+00	1.998184e+01	2.092581e-02
1.371552e+00	2.676502e-02	2.239590e-02
1.353817e+00	1.056288e+00	8.047360e-03
1.352592e+00	2.105932e+00	7.309692e-03
1.352291e+00	3.158097e+00	7.338602e-03
1.352211e+00	4.210608e+00	7.367355e-03
1.352178e+00	5.263198e+00	7.377124e-03
1.352167e+00	6.315811e+00	7.384023e-03
1.352163e+00	7.368433e+00	7.389322e-03
1.352162e+00	8.421058e+00	7.393230e-03
1.352187e+00	9.473520e+00	7.388345e-03
1.352187e+00	1.052648e+01	7.388182e-03
1.352161e+00	1.157894e+01	7.392985e-03
1.352163e+00	1.263157e+01	7.389552e-03
1.352166e+00	1.368419e+01	7.384336e-03
1.352176e+00	1.473680e+01	7.377418e-03
1.352207e+00	1.578939e+01	7.367690e-03
1.352277e+00	1.684191e+01	7.339759e-03
1.352541e+00	1.789408e+01	7.309487e-03
1.353109e+00	1.894422e+01	7.856840e-03
1.372703e+00	1.997202e+01	2.220120e-02
1.360418e+00	1.474181e-02	2.763331e-02
1.376561e+00	1.054522e+00	3.242879e-02
1.379587e+00	2.105634e+00	2.890230e-02
1.380018e+00	3.158006e+00	2.823880e-02
1.380149e+00	4.210572e+00	2.805662e-02
1.380202e+00	5.263181e+00	2.797885e-02
1.380230e+00	6.315802e+00	2.794550e-02
1.380246e+00	7.368428e+00	2.793072e-02
1.380256e+00	8.421055e+00	2.792334e-02
1.380278e+00	9.473518e+00	2.792781e-02
1.380277e+00	1.052648e+01	2.792795e-02
1.380255e+00	1.157895e+01	2.792299e-02
1.380247e+00	1.263157e+01	2.793029e-02
1.380231e+00	1.368420e+01	2.794456e-02
1.380204e+00	1.473682e+01	2.797632e-02
1.380153e+00	1.578943e+01	2.804987e-02
1.380033e+00	1.684200e+01	2.821816e-02
1.379663e+00	1.789439e+01	2.881419e-02
1.378125e+00	1.894567e+01	3.098299e-02
1.361579e+00	1.998322e+01	2.943336e-02
1.347427e+00	1.897352e-02	3.261406e-02
1.350419e+00	1.054880e+00	4.763565e-02
1.352558e+00	2.105685e+00	4.824797e-02
1.353014e+00	3.158021e+00	4.834400e-02
1.353160e+00	4.210578e+00	4.837489e-02
1.353224e+00	5.263183e+00	4.838660e-02
1.353255e+00	6.315803e+00	4.839310e-02
1.353270e+00	7.368429e+00	4.839715e-02
1.353278e+00	8.421056e+00	4.839982e-02
1.353302e+00	9.473517e+00	4.840209e-02
1.353302e+00	1.052648e+01	4.840192e-02
1.353278e+00	1.157894e+01	4.839963e-02
1.353271e+00	1.263157e+01	4.839726e-02
1.353255e+00	1.368420e+01	4.839326e-02
1.353225e+00	1.473682e+01	4.838684e-02
1.353163e+00	1.578942e+01	4.837544e-02
1.353025e+00	1.684198e+01	4.834632e-02
1.352608e+00	1.789435e+01	4.826768e-02
1.351240e+00	1.894567e+01	4.844923e-02
1.347352e+00	1.997985e+01	3.390683e-02
1.336025e+00	1.881553e-02	3.020684e-02
1.332047e+00	1.054588e+00	5.277006e-02
1.333165e+00	2.105641e+00	5.412360e-02
1.333447e+00	3.158009e+00	5.434862e-02
1.333542e+00	4.210574e+00	5.441746e-02
1.333586e+00	5.263181e+00	5.444618e-02
1.333607e+00	6.315802e+00	5.446052e-02
1.333618e+00	7.368428e+00	5.446836e-02
1.333623e+00	8.421056e+00	5.447282e-02
1.333647e+00	9.473502e+00	5.447511e-02
1.333647e+00	1.052650e+01	5.447527e-02
1.333623e+00	1.157894e+01	5.447275e-02
1.333618e+00	1.263157e+01	5.446772e-02
1.333607e+00	1.368420e+01	5.445933e-02
1.333586e+00	1.473682e+01	5.444378e-02
1.333544e+00	1.578943e+01	5.441184e-02
1.333453e+00	1.684199e+01	5.433185e-02
1.333188e+00	1.789438e+01	5.405483e-02
1.332137e+00	1.894586e+01	5.311718e-02
1.335487e+00	1.998071e+01	3.130043e-02
1.325780e+00	1.489156e-02	2.964491e-02
1.316045e+00	1.054412e+00	5.421807e-02
1.316527e+00	2.105611e+00	5.572746e-02
1.316734e+00	3.158001e+00	5.597370e-02
1.316805e+00	4.210570e+00	5.605266e-02
1.316837e+00	5.263180e+00	5.608650e-02
1.316852e+00	6.315801e+00	5.610339e-02
1.316860e+00	7.368428e+00	5.611254e-02
1.316864e+00	8.421055e+00	5.611761e-02
1.316888e+00	9.473510e+00	5.611989e-02
1.316888e+00	1.052649e+01	5.612028e-02
1.316864e+00	1.157894e+01	5.611756e-02
1.316861e+00	1.263157e+01	5.611128e-02
1.316854e+00	1.368420e+01	5.610107e-02
1.316841e+00	1.473682e+01	5.608185e-02
1.316815e+00	1.578943e+01	5.604172e-02
1.316765e+00	1.684200e+01	5.594061e-02
1.316656e+00	1.789440e+01	5.557856e-02
1.316622e+00	1.894594e+01	5.374292e-02
1.325404e+00	1.998441e+01	2.958474e-02
1.314900e+00	1.516002e-02	3.187057e-02
1.301501e+00	1.054283e+00	5.307109e-02
1.301622e+00	2.105590e+00	5.451450e-02
1.301802e+00	3.157995e+00	5.477495e-02
1.301855e+00	4.210568e+00	5.486076e-02
1.301878e+00	5.263179e+00	5.489736e-02
1.301890e+00	6.315801e+00	5.491554e-02
1.301895e+00	7.368427e+00	5.492535e-02
1.301898e+00	8.421055e+00	5.493088e-02
1.301922e+00	9.473520e+00	5.493316e-02
1.301921e+00	1.052648e+01	5.493347e-02
1.301898e+00	1.157894e+01	5.493079e-02
1.301897e+00	1.263157e+01	5.492423e-02
1.301893e+00	1.368420e+01	5.491352e-02
1.301885e+00	1.473682e+01	5.489337e-02
1.301873e+00	1.578943e+01	5.485136e-02
1.301856e+00	1.684201e+01	5.474667e-02
1.301866e+00	1.789442e+01	5.437722e-02
1.302592e+00	1.894604e+01	5.249735e-02
1.314932e+00	1.998530e+01	3.139550e-02
1.305005e+00	1.598189e-02	2.963268e-02
1.288540e+00	1.054178e+00	4.979951e-02
1.288420e+00	2.105571e+00	5.113658e-02
1.288525e+00	3.157989e+00	5.143192e-02
1.288551e+00	4.210566e+00	5.152556e-02
1.288563e+00	5.263178e+00	5.156429e-02
1.288569e+00	6.315800e+00	5.158320e-02
1.288571e+00	7.368427e+00	5.159328e-02
1.288572e+00	8.421055e+00	5.159926e-02
1.288597e+00	9.473530e+00	5.160120e-02
1.288597e+00	1.052647e+01	5.160112e-02
1.288572e+00	1.157894e+01	5.159911e-02
1.288573e+00	1.263157e+01	5.159305e-02
1.288571e+00	1.368420e+01	5.158278e-02
1.288567e+00	1.473682e+01	5.156357e-02
1.288562e+00	1.578943e+01	5.152412e-02
1.288562e+00	1.684201e+01	5.142841e-02
1.288607e+00	1.789443e+01	5.110452e-02
1.289397e+00	1.894610e+01	4.966309e-02
1.305169e+00	1.998456e+01	2.931415e-02
1.296108e+00	1.552982e-02	2.622111e-02
1.277829e+00	1.054176e+00	4.472960e-02
1.277278e+00	2.105560e+00	4.603804e-02
1.277076e+00	3.157985e+00	4.639728e-02
1.277038e+00	4.210564e+00	4.649878e-02
1.277028e+00	5.263177e+00	4.653900e-02
1.277024e+00	6.315800e+00	4.655814e-02
1.277023e+00	7.368427e+00	4.656819e-02
1.277020e+00	8.421055e+00	4.657443e-02
1.277042e+00	9.473515e+00	4.657704e-02
1.277042e+00	1.052648e+01	4.657661e-02
1.277019e+00	1.157894e+01	4.657437e-02
1.277019e+00	1.263157e+01	4.656917e-02
1.277018e+00	1.368420e+01	4.656000e-02
1.277017e+00	1.473682e+01	4.654284e-02
1.277014e+00	1.578944e+01	4.650807e-02
1.277012e+00	1.684202e+01	4.642639e-02
1.277042e+00	1.789444e+01	4.615370e-02
1.277625e+00	1.894609e+01	4.515391e-02
1.296001e+00	1.998518e+01	2.629125e-02
1.286781e+00	1.362155e-02	2.290125e-02
1.268145e+00	1.054177e+00	3.850288e-02
1.268303e+00	2.105550e+00	3.976467e-02
1.267775e+00	3.157982e+00	4.010351e-02
1.267672e+00	4.210563e+00	4.019338e-02
1.267641e+00	5.263176e+00	4.022850e-02
1.267628e+00	6.315799e+00	4.024509e-02
1.267621e+00	7.368427e+00	4.025373e-02
1.267615e+00	8.421055e+00	4.025903e-02
1.267637e+00	9.473516e+00	4.026131e-02
1.267637e+00	1.052648e+01	4.026092e-02
1.267612e+00	1.157895e+01	4.025887e-02
1.267611e+00	1.263157e+01	4.025435e-02
1.267610e+00	1.368420e+01	4.024634e-02
1.267608e+00	1.473682e+01	4.023138e-02
1.267606e+00	1.578944e+01	4.020097e-02
1.267600e+00	1.684202e+01	4.012970e-02
1.267634e+00	1.789445e+01	3.989029e-02
1.268269e+00	1.894607e+01	3.919057e-02
1.286763e+00	1.998628e+01	2.328574e-02
1.277286e+00	1.350278e-02	2.083703e-02
1.255648e+00	1.053374e+00	2.731414e-02
1.260005e+00	2.105503e+00	3.262314e-02
1.260866e+00	3.157976e+00	3.306608e-02
1.261002e+00	4.210561e+00	3.316298e-02
1.261051e+00	5.263175e+00	3.319973e-02
1.261075e+00	6.315799e+00	3.321682e-02
1.261086e+00	7.368426e+00	3.322563e-02
1.261090e+00	8.421055e+00	3.323069e-02
1.261122e+00	9.473516e+00	3.323428e-02
1.261127e+00	1.052648e+01	3.323452e-02
1.261102e+00	1.157895e+01	3.323189e-02
1.261106e+00	1.263157e+01	3.322827e-02
1.261109e+00	1.368420e+01	3.322180e-02
[...]
CELL_DATA 855
SCALARS Mu double 1
LOOKUP_TABLE default
-2.66312e-11
-3.10664e-11
-3.18437e-11
-3.20552e-11
-3.21323e-11
-3.21718e-11
-3.21894e-11
-3.2205e-11
-3.22268e-11
-3.22102e-11
-3.22278e-11
-3.22073e-11
-3.21913e-11
-3.21714e-11
-3.21368e-11
-3.20551e-11
-3.18426e-11
-3.10702e-11
-2.66293e-11
0.00415121
0.00443406
0.00448509
0.00449967
0.00450535
0.00450804
0.00450948
0.00451029
0.00451071
0.00451085
0.00451071
0.00451029
0.00450948
0.00450804
0.00450535
0.00449967
0.00448509
0.00443406
0.00415121
0.00559784
0.00596326
0.00603655
0.00605728
0.0060653
0.00606909
0.00607111
0.00607224
0.0060729
0.00607312
0.00607289
0.00607226
0.00607116
0.00606918
0.00606547
0.00605767
0.0060378
0.00596923
0.00564305
0.00640968
0.00693568
0.00702847
0.00705412
0.00706391
0.0070685
0.00707094
0.00707229
0.00707316
0.0070734
0.00707305
0.00707236
0.00707106
0.00706873
0.00706438
0.00705529
0.00703244
0.00695572
0.00671908
0.0069648
0.00755651
0.00765777
0.00768596
0.00769675
0.00770181
0.0077045
0.00770599
0.00770694
0.00770723
0.00770685
0.00770605
0.0077046
0.00770201
0.00769715
0.00768698
0.00766127
0.00757311
0.00733451
0.00726833
0.00788298
0.00798796
0.00801715
0.00802839
0.00803369
0.00803651
0.00803807
0.00803905
0.00803939
0.008039
0.0080381
0.00803655
0.00803377
0.00802854
0.00801754
0.00798942
0.00788835
0.007577
0.00733533
0.00794558
0.00804937
0.0080786
0.00808994
0.00809532
0.00809817
0.00809976
0.00810073
0.00810112
0.00810073
0.00809976
0.00809816
0.00809528
0.00808987
0.00807842
0.00804897
0.00794052
0.00752251
0.00717642
0.00775941
0.00786198
0.00789115
0.00790248
0.00790784
0.00791069
0.00791227
0.00791325
0.00791363
0.00791323
0.00791227
0.00791067
0.00790781
0.00790243
0.00789104
0.00786183
0.00775361
0.00731422
0.00680116
0.00734184
0.00744473
0.00747379
0.00748499
0.00749026
0.00749305
0.0074946
0.00749559
0.00749595
0.00749554
0.00749464
0.0074931
0.00749035
0.00748519
0.00747431
0.00744667
0.00734469
0.00694306
0.00622373
0.00671545
0.006818
0.00684641
0.00685723
0.0068623
0.00686497
0.00686644
0.00686742
0.00686774
0.00686733
0.00686651
0.00686508
0.00686251
0.0068577
0.00684762
0.00682229
0.0067289
0.00638513
0.00546651
0.0059058
0.00600398
0.0060307
0.00604079
0.00604548
0.00604795
0.0060493
0.00605022
0.00605051
0.00605011
0.00604939
0.00604809
0.00604576
0.00604139
0.00603228
0.00600961
0.00592591
0.00564692
0.00454778
0.00493779
0.00502658
0.00505052
0.00505952
0.00506368
0.00506586
0.00506705
0.00506788
0.00506812
0.00506775
0.00506713
0.00506598
0.00506393
0.00506008
0.00505208
0.00503231
0.00495926
0.00474823
0.00347496
0.00383336
0.00391132
0.00393196
0.00393968
0.00394323
0.00394508
0.00394609
0.00394679
0.003947
0.00394669
0.00394617
0.0039452
0.00394347
0.00394023
0.00393349
0.00391693
0.00385573
0.00371128
0.00229078
0.0026212
0.00268695
0.00270386
0.00271013
0.00271301
0.0027145
0.00271531
0.00271587
0.00271604
0.0027158
0.00271539
0.00271464
0.00271327
0.00271071
0.0027054
0.00269243
0.00264445
0.00256079
0.00105664
0.00133609
0.00138515
0.0013975
0.00140205
0.00140412
0.00140519
0.00140577
0.00140617
0.0014063
0.00140612
0.00140584
0.00140531
0.00140435
0.00140255
0.00139881
0.00138982
0.00135657
0.00132289
-0.000209143
6.43864e-06
3.77109e-05
4.5225e-05
4.79346e-05
4.91465e-05
4.97616e-05
5.00891e-05
5.03252e-05
5.03915e-05
5.02853e-05
5.01526e-05
4.9865e-05
4.93396e-05
4.83492e-05
4.63025e-05
4.16187e-05
2.43149e-05
3.41971e-05
-0.00147823
-0.00133624
-0.00132229
-0.00131959
-0.00131872
-0.00131838
-0.00131822
-0.00131815
-0.00131807
-0.00131807
-0.0013181
-0.00131809
-0.00131812
-0.00131819
-0.00131834
-0.00131862
-0.0013188
-0.00131969
-0.00126034
-0.0027229
-0.00265853
-0.00266119
-0.0026632
-0.00266413
-0.00266463
-0.00266492
-0.0026651
-0.00266518
-0.00266523
-0.00266519
-0.00266503
-0.00266481
-0.00266443
-0.00266372
-0.00266221
-0.00265782
-0.00264222
-0.00252414
-0.0039124
-0.00392742
-0.00394586
-0.00395235
-0.00395502
-0.00395634
-0.00395707
-0.00395749
-0.00395773
-0.00395783
-0.00395772
-0.0039574
-0.00395693
-0.0039561
-0.00395456
-0.00395128
-0.00394238
-0.0039105
-0.00373133
-0.00501246
-0.00511084
-0.0051444
-0.00515517
-0.0051595
-0.00516161
-0.00516276
-0.00516341
-0.00516379
-0.00516396
-0.00516378
-0.00516331
-0.0051626
-0.00516134
-0.005159
-0.00515403
-0.00514076
-0.00509319
-0.00485636
-0.00599743
-0.00617912
-0.00622714
-0.00624195
-0.00624786
-0.00625073
-0.00625228
-0.00625316
-0.00625368
-0.0062539
-0.00625367
-0.00625306
-0.00625214
-0.00625048
-0.00624739
-0.00624084
-0.00622349
-0.00616118
-0.00587251
-0.00684815
-0.00710615
-0.00716781
-0.00718629
-0.00719359
-0.00719711
-0.007199
-0.00720007
-0.0072007
-0.00720097
-0.00720069
-0.00719995
-0.00719882
-0.00719681
-0.00719304
-0.00718506
-0.00716403
-0.00708828
-0.00675498
-0.00754625
-0.00786968
-0.00794355
-0.00796506
-0.00797352
-0.00797758
-0.00797977
-0.00798099
-0.00798172
-0.00798204
-0.0079817
-0.00798085
-0.00797955
-0.00797723
-0.00797288
-0.00796367
-0.00793946
-0.00785187
-0.00748208
-0.00807533
-0.0084516
-0.00853532
-0.00855931
-0.00856871
-0.00857322
-0.00857565
-0.008577
-0.00857781
-0.00857816
-0.00857778
-0.00857685
-0.0085754
-0.00857283
-0.008568
-0.00855777
-0.00853098
-0.00843343
-0.00803566
-0.00842295
-0.00883826
-0.00892879
-0.00895469
-0.00896483
-0.00896968
-0.00897229
-0.00897375
-0.00897462
-0.00897499
-0.00897458
-0.00897358
-0.00897202
-0.00896926
-0.00896407
-0.00895308
-0.00892435
-0.008819
-0.00840153
-0.00858194
-0.0090205
-0.00911455
-0.00914177
-0.00915241
-0.0091575
-0.00916024
-0.00916177
-0.00916267
-0.00916306
-0.00916263
-0.00916158
-0.00915995
-0.00915706
-0.00915164
-0.00914015
-0.00911018
-0.00899937
-0.00857001
-0.00855017
-0.00899359
-0.00908844
-0.00911622
-0.00912707
-0.00913227
-0.00913505
-0.00913661
-0.00913753
-0.00913793
-0.00913747
-0.00913641
-0.00913475
-0.00913181
-0.00912628
-0.00911457
-0.00908405
-0.00897033
-0.00853641
-0.00832804
-0.0087578
-0.00885102
-0.00887865
-0.00888943
-0.00889459
-0.00889735
-0.00889889
-0.00889981
-0.0089002
-0.00889973
-0.00889868
-0.00889701
-0.00889409
-0.00888859
-0.00887694
-0.0088466
-0.00873265
-0.0083014
-0.00791337
-0.00831811
-0.00840773
-0.00843456
-0.00844501
-0.00844999
-0.00845266
-0.00845415
-0.00845504
-0.00845541
-0.00845494
-0.00845393
-0.00845231
-0.00844947
-0.00844414
-0.00843284
-0.00840343
-0.00829202
-0.00787076
-0.0073058
-0.00768353
-0.00776858
-0.00779417
-0.0078041
-0.00780881
-0.00781132
-0.00781271
-0.00781357
-0.0078139
-0.00781344
-0.0078125
-0.00781098
-0.00780829
-0.00780327
-0.00779262
-0.00776491
-0.00765902
-0.00726026
-0.0065271
-0.00686922
-0.00694837
-0.00697229
-0.00698151
-0.00698586
-0.00698817
-0.00698945
-0.00699026
-0.00699055
-0.00699011
-0.00698926
-0.00698788
-0.00698542
-0.00698084
-0.00697113
-0.00694588
-0.00684858
-0.00648654
-0.00559281
-0.0058951
-0.00596642
-0.00598805
-0.00599634
-0.00600023
-0.00600229
-0.00600342
-0.00600415
-0.00600441
-0.006004
-0.00600326
-0.00600204
-0.00599987
-0.00599583
-0.00598729
-0.00596509
-0.00587837
-0.00556886
-0.00451399
-0.00478328
-0.00484533
-0.00486424
-0.00487142
-0.00487476
-0.00487651
-0.00487748
-0.00487811
-0.00487832
-0.00487795
-0.00487732
-0.00487629
-0.00487445
-0.00487105
-0.00486385
-0.00484524
-0.00477022
-0.0045218
-0.00332803
-0.00355956
-0.0036111
-0.00362692
-0.00363288
-0.00363562
-0.00363705
-0.00363782
-0.00363835
-0.0036385
-0.00363817
-0.00363768
-0.00363686
-0.0036354
-0.00363269
-0.00362701
-0.00361253
-0.00355134
-0.00336813
-0.00207076
-0.00225238
-0.00229269
-0.00230512
-0.00230972
-0.0023118
-0.00231287
-0.00231344
-0.00231385
-0.00231395
-0.00231369
-0.00231335
-0.00231276
-0.00231172
-0.0023098
-0.0023058
-0.00229553
-0.00224973
-0.00213592
-0.000776699
-0.000894077
-0.000921544
-0.000930079
-0.000933128
-0.000934471
-0.000935143
-0.000935488
-0.000935764
-0.000935816
-0.000935625
-0.000935443
-0.000935106
-0.000934522
-0.000933433
-0.000931194
-0.000925232
-0.000895797
-0.000854141
0.00052738
0.00048213
0.000469568
0.000465596
0.000464304
0.000463782
0.000463543
0.000463435
0.000463306
0.000463302
0.00046341
0.000463432
0.000463503
0.000463627
0.000463865
0.000464347
0.000465953
0.00047865
0.000447458
0.00181451
0.00184267
0.00184762
0.00184851
0.00184913
0.00184953
0.00184979
0.00184997
0.00185003
0.0018501
0.00185014
0.00185002
0.00184984
0.00184952
0.00184893
0.0018477
0.00184496
0.00184104
0.00173881
0.00305583
0.00315603
0.00317975
0.00318589
0.00318855
0.00318992
0.0031907
0.00319116
0.00319141
0.00319154
0.0031915
0.00319124
0.00319083
0.00319007
0.00318868
0.00318581
0.00317889
0.00315904
0.00298868
0.00422191
0.00439191
0.00443444
0.004446
0.00445066
0.00445294
0.0044542
0.00445492
0.00445533
0.00445551
0.00445539
0.00445498
0.00445433
0.00445315
0.00445098
0.00444652
0.00443558
0.00440058
0.00416704
0.00528459
0.00552203
0.00558198
0.00559866
0.00560517
0.0056083
0.00560998
0.00561094
0.00561151
0.00561173
0.00561154
0.00561099
0.00561012
0.00560855
0.00560567
0.00559975
0.00558515
0.00553646
0.00524716
0.00621739
0.00652159
0.00659499
0.00661625
0.00662446
0.00662836
0.00663044
0.00663161
0.00663231
0.00663258
0.00663231
0.00663164
0.00663056
0.00662863
0.00662508
0.00661778
0.00659981
0.00653886
0.00620287
0.00699912
0.00736574
0.00744945
0.0074746
0.00748428
0.00748885
0.00749128
0.00749263
0.00749346
0.00749376
0.00749343
0.00749265
0.00749139
0.00748912
0.00748498
0.00747642
0.00745544
0.00738385
0.00701112
0.00761275
0.00803209
0.00812521
0.00815344
0.00816429
0.00816942
0.00817214
0.00817366
0.0081746
0.00817493
0.00817455
0.00817368
0.00817225
0.0081697
0.00816503
0.00815538
0.00813179
0.00805111
0.00765184

