# vtk DataFile Version 2.0
OUTPUT by 3D-VPM
ASCII
DATASET UNSTRUCTURED_GRID
POINTS 620 double
1.236731e+00	2.031987e-02	-8.790864e-03
1.220782e+00	1.055883e+00	1.861223e-02
1.221808e+00	2.105890e+00	2.060749e-02
1.221969e+00	3.158076e+00	2.088697e-02
1.222022e+00	4.210598e+00	2.096715e-02
1.222045e+00	5.263193e+00	2.099938e-02
1.222057e+00	6.315808e+00	2.101512e-02
1.222064e+00	7.368432e+00	2.102367e-02
1.222067e+00	8.421058e+00	2.102855e-02
1.222081e+00	9.473512e+00	2.102424e-02
1.222081e+00	1.052649e+01	2.102411e-02
1.222067e+00	1.157894e+01	2.102841e-02
1.222064e+00	1.263157e+01	2.102364e-02
1.222057e+00	1.368419e+01	2.101506e-02
1.222044e+00	1.473681e+01	2.099929e-02
1.222020e+00	1.578940e+01	2.096704e-02
1.221964e+00	1.684194e+01	2.088732e-02
1.221799e+00	1.789417e+01	2.061854e-02
1.220835e+00	1.894545e+01	1.912552e-02
1.236402e+00	1.997953e+01	-9.125204e-03
1.249693e+00	1.604037e-02	8.894247e-03
1.235362e+00	1.059313e+00	1.007446e-02
1.233816e+00	2.106741e+00	9.969996e-03
1.233829e+00	3.158320e+00	1.002054e-02
1.233864e+00	4.210693e+00	1.004007e-02
1.233882e+00	5.263237e+00	1.004830e-02
1.233893e+00	6.315832e+00	1.005237e-02
1.233898e+00	7.368445e+00	1.005459e-02
1.233901e+00	8.421066e+00	1.005601e-02
1.233918e+00	9.473520e+00	1.005608e-02
1.233919e+00	1.052648e+01	1.005585e-02
1.233901e+00	1.157894e+01	1.005588e-02
1.233898e+00	1.263156e+01	1.005488e-02
1.233893e+00	1.368417e+01	1.005291e-02
1.233883e+00	1.473677e+01	1.004938e-02
1.233864e+00	1.578931e+01	1.004263e-02
1.233829e+00	1.684171e+01	1.002842e-02
1.233798e+00	1.789341e+01	1.000683e-02
1.234164e+00	1.894235e+01	1.016739e-02
1.248954e+00	1.998381e+01	7.250419e-03
1.238675e+00	1.962008e-02	1.041130e-02
1.224816e+00	1.054392e+00	-3.126730e-03
1.223975e+00	2.105598e+00	-3.023169e-03
1.223894e+00	3.157996e+00	-2.889274e-03
1.223882e+00	4.210568e+00	-2.844534e-03
1.223880e+00	5.263178e+00	-2.826149e-03
1.223880e+00	6.315801e+00	-2.817142e-03
1.223881e+00	7.368427e+00	-2.812243e-03
1.223880e+00	8.421056e+00	-2.809188e-03
1.223900e+00	9.473529e+00	-2.812487e-03
1.223900e+00	1.052647e+01	-2.812633e-03
1.223880e+00	1.157894e+01	-2.809230e-03
1.223880e+00	1.263157e+01	-2.811952e-03
1.223880e+00	1.368420e+01	-2.816601e-03
1.223879e+00	1.473682e+01	-2.825073e-03
1.223880e+00	1.578943e+01	-2.842045e-03
1.223887e+00	1.684201e+01	-2.881802e-03
1.223943e+00	1.789442e+01	-2.987703e-03
1.224091e+00	1.894613e+01	-2.913720e-03
1.238071e+00	1.997931e+01	1.063338e-02
1.238800e+00	9.881330e-03	1.596078e-02
1.239372e+00	1.054521e+00	-1.288355e-03
1.238944e+00	2.105624e+00	-2.019803e-03
1.238824e+00	3.158004e+00	-2.168120e-03
1.238795e+00	4.210571e+00	-2.211642e-03
1.238785e+00	5.263180e+00	-2.228945e-03
1.238782e+00	6.315801e+00	-2.237264e-03
1.238780e+00	7.368428e+00	-2.241716e-03
1.238778e+00	8.421056e+00	-2.244428e-03
1.238800e+00	9.473526e+00	-2.242205e-03
1.238800e+00	1.052647e+01	-2.242301e-03
1.238778e+00	1.157894e+01	-2.244522e-03
1.238780e+00	1.263157e+01	-2.241697e-03
1.238781e+00	1.368420e+01	-2.237204e-03
1.238784e+00	1.473682e+01	-2.228807e-03
1.238792e+00	1.578943e+01	-2.211306e-03
1.238816e+00	1.684200e+01	-2.167149e-03
1.238917e+00	1.789439e+01	-2.005444e-03
1.238890e+00	1.894560e+01	-1.413891e-03
1.239062e+00	1.998929e+01	1.569037e-02
1.222881e+00	1.483657e-02	2.083259e-02
1.230194e+00	1.054080e+00	2.907713e-02
1.232155e+00	2.105522e+00	2.897506e-02
1.232531e+00	3.157972e+00	2.898815e-02
1.232649e+00	4.210558e+00	2.899581e-02
1.232698e+00	5.263174e+00	2.899938e-02
1.232723e+00	6.315798e+00	2.900127e-02
1.232736e+00	7.368426e+00	2.900234e-02
1.232743e+00	8.421055e+00	2.900291e-02
1.232759e+00	9.473524e+00	2.900494e-02
1.232759e+00	1.052648e+01	2.900478e-02
1.232743e+00	1.157895e+01	2.900283e-02
1.232737e+00	1.263157e+01	2.900255e-02
1.232724e+00	1.368420e+01	2.900169e-02
1.232700e+00	1.473683e+01	2.900024e-02
1.232654e+00	1.578944e+01	2.899783e-02
1.232547e+00	1.684203e+01	2.899419e-02
1.232226e+00	1.789449e+01	2.901139e-02
1.231230e+00	1.894606e+01	2.937390e-02
1.223459e+00	1.998461e+01	2.221782e-02
1.211565e+00	1.427055e-02	1.937592e-02
1.211424e+00	1.054008e+00	3.512069e-02
1.212413e+00	2.105515e+00	3.616396e-02
1.212615e+00	3.157971e+00	3.634458e-02
1.212682e+00	4.210558e+00	3.639918e-02
1.212711e+00	5.263173e+00	3.642152e-02
1.212726e+00	6.315798e+00	3.643252e-02
1.212734e+00	7.368426e+00	3.643849e-02
1.212738e+00	8.421055e+00	3.644198e-02
1.212755e+00	9.473524e+00	3.644328e-02
1.212755e+00	1.052648e+01	3.644313e-02
1.212738e+00	1.157895e+01	3.644189e-02
1.212734e+00	1.263157e+01	3.643866e-02
1.212726e+00	1.368420e+01	3.643283e-02
1.212711e+00	1.473683e+01	3.642213e-02
1.212682e+00	1.578944e+01	3.640069e-02
1.212617e+00	1.684203e+01	3.634960e-02
1.212420e+00	1.789450e+01	3.619382e-02
1.211717e+00	1.894623e+01	3.604228e-02
1.211576e+00	1.998525e+01	2.076996e-02
1.202203e+00	1.184353e-02	1.979564e-02
1.197471e+00	1.053847e+00	3.709933e-02
1.197929e+00	2.105487e+00	3.833837e-02
1.198049e+00	3.157963e+00	3.853953e-02
1.198093e+00	4.210555e+00	3.860116e-02
1.198112e+00	5.263172e+00	3.862710e-02
1.198123e+00	6.315797e+00	3.864007e-02
1.198128e+00	7.368425e+00	3.864715e-02
1.198131e+00	8.421055e+00	3.865114e-02
1.198148e+00	9.473510e+00	3.865230e-02
1.198148e+00	1.052649e+01	3.865245e-02
1.198131e+00	1.157895e+01	3.865111e-02
1.198128e+00	1.263157e+01	3.864664e-02
1.198123e+00	1.368420e+01	3.863909e-02
1.198113e+00	1.473683e+01	3.862510e-02
1.198093e+00	1.578945e+01	3.859642e-02
1.198050e+00	1.684204e+01	3.852529e-02
1.197928e+00	1.789452e+01	3.827826e-02
1.197386e+00	1.894636e+01	3.737147e-02
1.201936e+00	1.998780e+01	2.045923e-02
1.192559e+00	1.118973e-02	2.066654e-02
1.185264e+00	1.053720e+00	3.713428e-02
1.185419e+00	2.105465e+00	3.835501e-02
1.185508e+00	3.157957e+00	3.854904e-02
1.185540e+00	4.210552e+00	3.861231e-02
1.185555e+00	5.263171e+00	3.863958e-02
1.185562e+00	6.315797e+00	3.865336e-02
1.185566e+00	7.368425e+00	3.866093e-02
1.185568e+00	8.421054e+00	3.866513e-02
1.185585e+00	9.473518e+00	3.866614e-02
1.185584e+00	1.052648e+01	3.866645e-02
1.185568e+00	1.157895e+01	3.866510e-02
1.185567e+00	1.263157e+01	3.865998e-02
1.185563e+00	1.368420e+01	3.865160e-02
1.185557e+00	1.473683e+01	3.863600e-02
1.185545e+00	1.578945e+01	3.860378e-02
1.185522e+00	1.684204e+01	3.852305e-02
1.185479e+00	1.789454e+01	3.823571e-02
1.185488e+00	1.894643e+01	3.673650e-02
1.192408e+00	1.998850e+01	2.048612e-02
1.183098e+00	1.134237e-02	2.045490e-02
1.174255e+00	1.053611e+00	3.573488e-02
1.174270e+00	2.105445e+00	3.684096e-02
1.174340e+00	3.157951e+00	3.704339e-02
1.174363e+00	4.210550e+00	3.711077e-02
1.174374e+00	5.263170e+00	3.713951e-02
1.174379e+00	6.315796e+00	3.715395e-02
1.174382e+00	7.368425e+00	3.716186e-02
1.174383e+00	8.421054e+00	3.716636e-02
1.174399e+00	9.473529e+00	3.716731e-02
1.174399e+00	1.052647e+01	3.716751e-02
1.174383e+00	1.157895e+01	3.716631e-02
1.174382e+00	1.263158e+01	3.716120e-02
1.174380e+00	1.368420e+01	3.715273e-02
1.174376e+00	1.473683e+01	3.713704e-02
1.174370e+00	1.578945e+01	3.710483e-02
1.174361e+00	1.684205e+01	3.702526e-02
1.174365e+00	1.789456e+01	3.674823e-02
1.174678e+00	1.894653e+01	3.530336e-02
1.183206e+00	1.998890e+01	1.993605e-02
1.174249e+00	1.099417e-02	1.837043e-02
1.164406e+00	1.053520e+00	3.319631e-02
1.164363e+00	2.105427e+00	3.417881e-02
1.164384e+00	3.157945e+00	3.441071e-02
1.164392e+00	4.210548e+00	3.448399e-02
1.164398e+00	5.263169e+00	3.451424e-02
1.164400e+00	6.315795e+00	3.452917e-02
1.164402e+00	7.368424e+00	3.453725e-02
1.164402e+00	8.421054e+00	3.454207e-02
1.164418e+00	9.473540e+00	3.454297e-02
1.164418e+00	1.052646e+01	3.454287e-02
1.164402e+00	1.157895e+01	3.454200e-02
1.164402e+00	1.263158e+01	3.453735e-02
1.164401e+00	1.368420e+01	3.452933e-02
1.164398e+00	1.473683e+01	3.451456e-02
1.164394e+00	1.578945e+01	3.448471e-02
1.164388e+00	1.684205e+01	3.441305e-02
1.164395e+00	1.789457e+01	3.417241e-02
1.164652e+00	1.894659e+01	3.304036e-02
1.174314e+00	1.998940e+01	1.819158e-02
1.165205e+00	9.853919e-03	1.698330e-02
1.155616e+00	1.053474e+00	2.985323e-02
1.155585e+00	2.105415e+00	3.070472e-02
1.155535e+00	3.157942e+00	3.096057e-02
1.155529e+00	4.210546e+00	3.103617e-02
1.155529e+00	5.263168e+00	3.106652e-02
1.155530e+00	6.315795e+00	3.108124e-02
1.155531e+00	7.368424e+00	3.108913e-02
1.155530e+00	8.421054e+00	3.109398e-02
1.155545e+00	9.473525e+00	3.109509e-02
1.155545e+00	1.052647e+01	3.109478e-02
1.155530e+00	1.157895e+01	3.109391e-02
1.155530e+00	1.263158e+01	3.108978e-02
1.155529e+00	1.368420e+01	3.108245e-02
1.155526e+00	1.473683e+01	3.106898e-02
1.155522e+00	1.578945e+01	3.104208e-02
1.155515e+00	1.684206e+01	3.097912e-02
1.155511e+00	1.789458e+01	3.077064e-02
1.155630e+00	1.894660e+01	2.991219e-02
1.165186e+00	1.999029e+01	1.709754e-02
1.156271e+00	9.570544e-03	1.556076e-02
1.147453e+00	1.053401e+00	2.606657e-02
1.147641e+00	2.105401e+00	2.674227e-02
1.147596e+00	3.157938e+00	2.697724e-02
1.147592e+00	4.210545e+00	2.704610e-02
1.147593e+00	5.263167e+00	2.707360e-02
1.147594e+00	6.315795e+00	2.708688e-02
1.147595e+00	7.368424e+00	2.709397e-02
1.147595e+00	8.421054e+00	2.709834e-02
1.147609e+00	9.473526e+00	2.709929e-02
1.147609e+00	1.052647e+01	2.709892e-02
1.147595e+00	1.157895e+01	2.709813e-02
1.147595e+00	1.263158e+01	2.709440e-02
1.147593e+00	1.368421e+01	2.708772e-02
1.147591e+00	1.473683e+01	2.707549e-02
1.147586e+00	1.578946e+01	2.705114e-02
1.147578e+00	1.684206e+01	2.699463e-02
1.147569e+00	1.789460e+01	2.680819e-02
1.147572e+00	1.894663e+01	2.614769e-02
1.156344e+00	1.999036e+01	1.558602e-02
1.147921e+00	9.551557e-03	1.328471e-02
1.139878e+00	1.053334e+00	2.192634e-02
1.140241e+00	2.105387e+00	2.251218e-02
1.140263e+00	3.157934e+00	2.270459e-02
1.140272e+00	4.210543e+00	2.276275e-02
1.140278e+00	5.263166e+00	2.278621e-02
1.140281e+00	6.315794e+00	2.279754e-02
1.140283e+00	7.368424e+00	2.280358e-02
1.140283e+00	8.421054e+00	2.280728e-02
1.140297e+00	9.473528e+00	2.280804e-02
1.140297e+00	1.052647e+01	2.280770e-02
1.140284e+00	1.157895e+01	2.280688e-02
1.140284e+00	1.263158e+01	2.280344e-02
[...]
CELL_DATA 570
SCALARS Mu double 1
LOOKUP_TABLE default
-2.66312e-11
-3.10664e-11
-3.18437e-11
-3.20552e-11
-3.21323e-11
-3.21718e-11
-3.21894e-11
-3.2205e-11
-3.22268e-11
-3.22102e-11
-3.22278e-11
-3.22073e-11
-3.21913e-11
-3.21714e-11
-3.21368e-11
-3.20551e-11
-3.18426e-11
-3.10702e-11
-2.66293e-11
0.00415121
0.00443406
0.00448509
0.00449967
0.00450535
0.00450804
0.00450948
0.00451029
0.00451071
0.00451085
0.00451071
0.00451029
0.00450948
0.00450804
0.00450535
0.00449967
0.00448509
0.00443406
0.00415121
0.00559784
0.00596326
0.00603655
0.00605728
0.0060653
0.00606909
0.00607111
0.00607224
0.0060729
0.00607312
0.00607289
0.00607226
0.00607116
0.00606918
0.00606547
0.00605767
0.0060378
0.00596923
0.00564305
0.00640968
0.00693568
0.00702847
0.00705412
0.00706391
0.0070685
0.00707094
0.00707229
0.00707316
0.0070734
0.00707305
0.00707236
0.00707106
0.00706873
0.00706438
0.00705529
0.00703244
0.00695572
0.00671908
0.0069648
0.00755651
0.00765777
0.00768596
0.00769675
0.00770181
0.0077045
0.00770599
0.00770694
0.00770723
0.00770685
0.00770605
0.0077046
0.00770201
0.00769715
0.00768698
0.00766127
0.00757311
0.00733451
0.00726833
0.00788298
0.00798796
0.00801715
0.00802839
0.00803369
0.00803651
0.00803807
0.00803905
0.00803939
0.008039
0.0080381
0.00803655
0.00803377
0.00802854
0.00801754
0.00798942
0.00788835
0.007577
0.00733533
0.00794558
0.00804937
0.0080786
0.00808994
0.00809532
0.00809817
0.00809976
0.00810073
0.00810112
0.00810073
0.00809976
0.00809816
0.00809528
0.00808987
0.00807842
0.00804897
0.00794052
0.00752251
0.00717642
0.00775941
0.00786198
0.00789115
0.00790248
0.00790784
0.00791069
0.00791227
0.00791325
0.00791363
0.00791323
0.00791227
0.00791067
0.00790781
0.00790243
0.00789104
0.00786183
0.00775361
0.00731422
0.00680116
0.00734184
0.00744473
0.00747379
0.00748499
0.00749026
0.00749305
0.0074946
0.00749559
0.00749595
0.00749554
0.00749464
0.0074931
0.00749035
0.00748519
0.00747431
0.00744667
0.00734469
0.00694306
0.00622373
0.00671545
0.006818
0.00684641
0.00685723
0.0068623
0.00686497
0.00686644
0.00686742
0.00686774
0.00686733
0.00686651
0.00686508
0.00686251
0.0068577
0.00684762
0.00682229
0.0067289
0.00638513
0.00546651
0.0059058
0.00600398
0.0060307
0.00604079
0.00604548
0.00604795
0.0060493
0.00605022
0.00605051
0.00605011
0.00604939
0.00604809
0.00604576
0.00604139
0.00603228
0.00600961
0.00592591
0.00564692
0.00454778
0.00493779
0.00502658
0.00505052
0.00505952
0.00506368
0.00506586
0.00506705
0.00506788
0.00506812
0.00506775
0.00506713
0.00506598
0.00506393
0.00506008
0.00505208
0.00503231
0.00495926
0.00474823
0.00347496
0.00383336
0.00391132
0.00393196
0.00393968
0.00394323
0.00394508
0.00394609
0.00394679
0.003947
0.00394669
0.00394617
0.0039452
0.00394347
0.00394023
0.00393349
0.00391693
0.00385573
0.00371128
0.00229078
0.0026212
0.00268695
0.00270386
0.00271013
0.00271301
0.0027145
0.00271531
0.00271587
0.00271604
0.0027158
0.00271539
0.00271464
0.00271327
0.00271071
0.0027054
0.00269243
0.00264445
0.00256079
0.00105664
0.00133609
0.00138515
0.0013975
0.00140205
0.00140412
0.00140519
0.00140577
0.00140617
0.0014063
0.00140612
0.00140584
0.00140531
0.00140435
0.00140255
0.00139881
0.00138982
0.00135657
0.00132289
-0.000209143
6.43864e-06
3.77109e-05
4.5225e-05
4.79346e-05
4.91465e-05
4.97616e-05
5.00891e-05
5.03252e-05
5.03915e-05
5.02853e-05
5.01526e-05
4.9865e-05
4.93396e-05
4.83492e-05
4.63025e-05
4.16187e-05
2.43149e-05
3.41971e-05
-0.00147823
-0.00133624
-0.00132229
-0.00131959
-0.00131872
-0.00131838
-0.00131822
-0.00131815
-0.00131807
-0.00131807
-0.0013181
-0.00131809
-0.00131812
-0.00131819
-0.00131834
-0.00131862
-0.0013188
-0.00131969
-0.00126034
-0.0027229
-0.00265853
-0.00266119
-0.0026632
-0.00266413
-0.00266463
-0.00266492
-0.0026651
-0.00266518
-0.00266523
-0.00266519
-0.00266503
-0.00266481
-0.00266443
-0.00266372
-0.00266221
-0.00265782
-0.00264222
-0.00252414
-0.0039124
-0.00392742
-0.00394586
-0.00395235
-0.00395502
-0.00395634
-0.00395707
-0.00395749
-0.00395773
-0.00395783
-0.00395772
-0.0039574
-0.00395693
-0.0039561
-0.00395456
-0.00395128
-0.00394238
-0.0039105
-0.00373133
-0.00501246
-0.00511084
-0.0051444
-0.00515517
-0.0051595
-0.00516161
-0.00516276
-0.00516341
-0.00516379
-0.00516396
-0.00516378
-0.00516331
-0.0051626
-0.00516134
-0.005159
-0.00515403
-0.00514076
-0.00509319
-0.00485636
-0.00599743
-0.00617912
-0.00622714
-0.00624195
-0.00624786
-0.00625073
-0.00625228
-0.00625316
-0.00625368
-0.0062539
-0.00625367
-0.00625306
-0.00625214
-0.00625048
-0.00624739
-0.00624084
-0.00622349
-0.00616118
-0.00587251
-0.00684815
-0.00710615
-0.00716781
-0.00718629
-0.00719359
-0.00719711
-0.007199
-0.00720007
-0.0072007
-0.00720097
-0.00720069
-0.00719995
-0.00719882
-0.00719681
-0.00719304
-0.00718506
-0.00716403
-0.00708828
-0.00675498
-0.00754625
-0.00786968
-0.00794355
-0.00796506
-0.00797352
-0.00797758
-0.00797977
-0.00798099
-0.00798172
-0.00798204
-0.0079817
-0.00798085
-0.00797955
-0.00797723
-0.00797288
-0.00796367
-0.00793946
-0.00785187
-0.00748208
-0.00807533
-0.0084516
-0.00853532
-0.00855931
-0.00856871
-0.00857322
-0.00857565
-0.008577
-0.00857781
-0.00857816
-0.00857778
-0.00857685
-0.0085754
-0.00857283
-0.008568
-0.00855777
-0.00853098
-0.00843343
-0.00803566
-0.00842295
-0.00883826
-0.00892879
-0.00895469
-0.00896483
-0.00896968
-0.00897229
-0.00897375
-0.00897462
-0.00897499
-0.00897458
-0.00897358
-0.00897202
-0.00896926
-0.00896407
-0.00895308
-0.00892435
-0.008819
-0.00840153
-0.00858194
-0.0090205
-0.00911455
-0.00914177
-0.00915241
-0.0091575
-0.00916024
-0.00916177
-0.00916267
-0.00916306
-0.00916263
-0.00916158
-0.00915995
-0.00915706
-0.00915164
-0.00914015
-0.00911018
-0.00899937
-0.00857001
-0.00855017
-0.00899359
-0.00908844
-0.00911622
-0.00912707
-0.00913227
-0.00913505
-0.00913661
-0.00913753
-0.00913793
-0.00913747
-0.00913641
-0.00913475
-0.00913181
-0.00912628
-0.00911457
-0.00908405
-0.00897033
-0.00853641
-0.00832804
-0.0087578
-0.00885102
-0.00887865
-0.00888943
-0.00889459
-0.00889735
-0.00889889
-0.00889981
-0.0089002
-0.00889973
-0.00889868
-0.00889701
-0.00889409
-0.00888859
-0.00887694
-0.0088466
-0.00873265
-0.0083014
-0.00791337
-0.00831811
-0.00840773
-0.00843456
-0.00844501
-0.00844999
-0.00845266
-0.00845415
-0.00845504
-0.00845541
-0.00845494
-0.00845393
-0.00845231
-0.00844947
-0.00844414
-0.00843284
-0.00840343
-0.00829202
-0.00787076

