/*--------------------------------*- C++ -*----------------------------------*\
| =========                 |                                                 |
| \\      /  F ield         | OpenFOAM: The Open Source CFD Toolbox           |
|  \\    /   O peration     | Version:  4.1                                   |
|   \\  /    A nd           | Web:      www.OpenFOAM.org                      |
|    \\/     M anipulation  |                                                 |
\*---------------------------------------------------------------------------*/
FoamFile
{
    version     2.0;
    format      ascii;
    class       volScalarField;
    location    "3.6";
    object      p;
}
// * * * * * * * * * * * * * * * * * * * * * * * * * * * * * * * * * * * * * //

dimensions      [0 2 -2 0 0 0 0];

internalField   nonuniform List<scalar> 
400
(
3.41659e-11
3.81478e-11
3.25479e-11
3.4821e-11
3.06969e-11
3.18956e-11
2.87765e-11
2.91145e-11
2.67504e-11
2.64137e-11
2.46489e-11
2.37653e-11
2.25193e-11
2.11447e-11
2.03661e-11
1.851e-11
1.82296e-11
1.59053e-11
1.62786e-11
1.53399e-11
3.40427e-11
3.80214e-11
3.25384e-11
3.48185e-11
3.06971e-11
3.18951e-11
2.87768e-11
2.91143e-11
2.67505e-11
2.64136e-11
2.4649e-11
2.37654e-11
2.25193e-11
2.11448e-11
2.0366e-11
1.85101e-11
1.82282e-11
1.59062e-11
1.61943e-11
1.52508e-11
3.39724e-11
3.79311e-11
3.25267e-11
3.48183e-11
3.06955e-11
3.18961e-11
2.8776e-11
2.9115e-11
2.675e-11
2.64139e-11
2.46488e-11
2.37655e-11
2.25193e-11
2.11446e-11
2.03662e-11
1.85096e-11
1.82276e-11
1.59053e-11
1.61276e-11
1.5189e-11
3.39502e-11
3.78888e-11
3.25156e-11
3.48187e-11
3.06938e-11
3.18973e-11
2.8775e-11
2.91158e-11
2.67494e-11
2.64143e-11
2.46486e-11
2.37656e-11
2.25193e-11
2.11445e-11
2.03664e-11
1.85091e-11
1.82274e-11
1.59029e-11
1.60893e-11
1.51575e-11
3.39572e-11
3.78801e-11
3.25052e-11
3.48189e-11
3.06924e-11
3.18982e-11
2.87742e-11
2.91164e-11
2.67489e-11
2.64146e-11
2.46484e-11
2.37657e-11
2.25194e-11
2.11444e-11
2.03667e-11
1.85087e-11
1.82272e-11
1.59e-11
1.60733e-11
1.51466e-11
3.39833e-11
3.78937e-11
3.24948e-11
3.4819e-11
3.06913e-11
3.18989e-11
2.87736e-11
2.91169e-11
2.67486e-11
2.64149e-11
2.46483e-11
2.37657e-11
2.25195e-11
2.11443e-11
2.03669e-11
1.85083e-11
1.82272e-11
1.58967e-11
1.60749e-11
1.51517e-11
3.40227e-11
3.79229e-11
3.24842e-11
3.48189e-11
3.06904e-11
3.18994e-11
2.87732e-11
2.91174e-11
2.67483e-11
2.64151e-11
2.46481e-11
2.37657e-11
2.25196e-11
2.11442e-11
2.0367e-11
1.8508e-11
1.82273e-11
1.58932e-11
1.60915e-11
1.51702e-11
3.40692e-11
3.7961e-11
3.24733e-11
3.48187e-11
3.06896e-11
3.18998e-11
2.87728e-11
2.91177e-11
2.67481e-11
2.64153e-11
2.4648e-11
2.37657e-11
2.25197e-11
2.11441e-11
2.03671e-11
1.85077e-11
1.82274e-11
1.589e-11
1.61193e-11
1.51982e-11
3.41161e-11
3.8001e-11
3.2462e-11
3.48182e-11
3.0689e-11
3.19e-11
2.87725e-11
2.91179e-11
2.67479e-11
2.64154e-11
2.4648e-11
2.37657e-11
2.25198e-11
2.11441e-11
2.03673e-11
1.85075e-11
1.82275e-11
1.58873e-11
1.61542e-11
1.52316e-11
3.41575e-11
3.80368e-11
3.24505e-11
3.48174e-11
3.06886e-11
3.19001e-11
2.87724e-11
2.91181e-11
2.67479e-11
2.64155e-11
2.46479e-11
2.37657e-11
2.25199e-11
2.11441e-11
2.03673e-11
1.85074e-11
1.82276e-11
1.58851e-11
1.61915e-11
1.52657e-11
3.41882e-11
3.8063e-11
3.24388e-11
3.48163e-11
3.06884e-11
3.19e-11
2.87724e-11
2.91181e-11
2.67479e-11
2.64155e-11
2.4648e-11
2.37657e-11
2.252e-11
2.11441e-11
2.03674e-11
1.85073e-11
1.82276e-11
1.58837e-11
1.62267e-11
1.52963e-11
3.42043e-11
3.80756e-11
3.24272e-11
3.48147e-11
3.06884e-11
3.18997e-11
2.87726e-11
2.9118e-11
2.6748e-11
2.64155e-11
2.4648e-11
2.37656e-11
2.25201e-11
2.11441e-11
2.03674e-11
1.85073e-11
1.82275e-11
1.5883e-11
1.62557e-11
1.53194e-11
3.42034e-11
3.80723e-11
3.24159e-11
3.48128e-11
3.06885e-11
3.18992e-11
2.87729e-11
2.91178e-11
2.67481e-11
2.64154e-11
2.46481e-11
2.37655e-11
2.25202e-11
2.11441e-11
2.03674e-11
1.85073e-11
1.82272e-11
1.5883e-11
1.6275e-11
1.53316e-11
3.41847e-11
3.80526e-11
3.24053e-11
3.48106e-11
3.06889e-11
3.18985e-11
2.87733e-11
2.91175e-11
2.67483e-11
2.64154e-11
2.46482e-11
2.37654e-11
2.25203e-11
2.11442e-11
2.03673e-11
1.85074e-11
1.82266e-11
1.58837e-11
1.62819e-11
1.5331e-11
3.41492e-11
3.80177e-11
3.23958e-11
3.4808e-11
3.06894e-11
3.18977e-11
2.87738e-11
2.91172e-11
2.67486e-11
2.64153e-11
2.46483e-11
2.37653e-11
2.25204e-11
2.11443e-11
2.03671e-11
1.85076e-11
1.8226e-11
1.58849e-11
1.62753e-11
1.53161e-11
3.41002e-11
3.79713e-11
3.23876e-11
3.48052e-11
3.06901e-11
3.18967e-11
2.87744e-11
2.91167e-11
2.67489e-11
2.64151e-11
2.46485e-11
2.37652e-11
2.25205e-11
2.11444e-11
2.0367e-11
1.85078e-11
1.8225e-11
1.58864e-11
1.62555e-11
1.52877e-11
3.40418e-11
3.79185e-11
3.23811e-11
3.48021e-11
3.06911e-11
3.18956e-11
2.87752e-11
2.91162e-11
2.67493e-11
2.64149e-11
2.46487e-11
2.3765e-11
2.25206e-11
2.11445e-11
2.03667e-11
1.85081e-11
1.82239e-11
1.58881e-11
1.62241e-11
1.5247e-11
3.39827e-11
3.78691e-11
3.23766e-11
3.47988e-11
3.06923e-11
3.18942e-11
2.87762e-11
2.91155e-11
2.67498e-11
2.64145e-11
2.4649e-11
2.37648e-11
2.25206e-11
2.11447e-11
2.03664e-11
1.85084e-11
1.82225e-11
1.58899e-11
1.61846e-11
1.51975e-11
3.39372e-11
3.78324e-11
3.23733e-11
3.47958e-11
3.06934e-11
3.18929e-11
2.8777e-11
2.91149e-11
2.67502e-11
2.64142e-11
2.46492e-11
2.37647e-11
2.25206e-11
2.11448e-11
2.03662e-11
1.85087e-11
1.82211e-11
1.58914e-11
1.61397e-11
1.51441e-11
3.39288e-11
3.78162e-11
3.23689e-11
3.47952e-11
3.06927e-11
3.18932e-11
2.87767e-11
2.91152e-11
2.675e-11
2.64144e-11
2.46491e-11
2.37647e-11
2.25207e-11
2.11447e-11
2.03663e-11
1.85084e-11
1.82203e-11
1.5892e-11
1.60978e-11
1.5103e-11
)
;

boundaryField
{
    top
    {
        type            zeroGradient;
    }
    bottom
    {
        type            zeroGradient;
    }
    inlet
    {
        type            fixedValue;
        value           uniform 0;
    }
    outlet
    {
        type            fixedValue;
        value           uniform 0;
    }
    frontAndBack
    {
        type            empty;
    }
}


// ************************************************************************* //
