/*--------------------------------*- C++ -*----------------------------------*\
| =========                 |                                                 |
| \\      /  F ield         | OpenFOAM: The Open Source CFD Toolbox           |
|  \\    /   O peration     | Version:  4.1                                   |
|   \\  /    A nd           | Web:      www.OpenFOAM.org                      |
|    \\/     M anipulation  |                                                 |
\*---------------------------------------------------------------------------*/
FoamFile
{
    version     2.0;
    format      ascii;
    class       surfaceScalarField;
    location    "3.6";
    object      phi;
}
// * * * * * * * * * * * * * * * * * * * * * * * * * * * * * * * * * * * * * //

dimensions      [0 3 -1 0 0 0 0];

internalField   nonuniform List<scalar> 
760
(
1.25e-06
-5.3098e-17
1.25e-06
-3.64848e-17
1.25e-06
4.58285e-19
1.25e-06
-2.58511e-18
1.25e-06
1.72612e-18
1.25e-06
-1.46362e-18
1.25e-06
1.15836e-18
1.25e-06
-9.02265e-19
1.25e-06
6.73097e-19
1.25e-06
-4.76686e-19
1.25e-06
2.97729e-19
1.25e-06
-1.11688e-19
1.25e-06
-5.15456e-20
1.25e-06
1.98761e-19
1.25e-06
-3.78535e-19
1.25e-06
5.13214e-19
1.25e-06
-9.6714e-19
1.25e-06
1.36188e-18
1.25e-06
-2.18649e-17
-3.22121e-17
3.75e-06
-1.60494e-16
3.75e-06
-1.27657e-16
3.75e-06
-2.64291e-18
3.75e-06
-6.28576e-18
3.75e-06
3.61992e-18
3.75e-06
-3.17896e-18
3.75e-06
2.49203e-18
3.75e-06
-1.93675e-18
3.75e-06
1.43815e-18
3.75e-06
-1.02383e-18
3.75e-06
6.46372e-19
3.75e-06
-2.24837e-19
3.75e-06
-1.22701e-19
3.75e-06
4.23845e-19
3.75e-06
-8.41486e-19
3.75e-06
1.07845e-18
3.75e-06
-2.5396e-18
3.75e-06
3.59195e-18
3.75e-06
-8.05203e-17
-1.04015e-16
6.25e-06
-2.90367e-16
6.25e-06
-2.5169e-16
6.25e-06
-9.82642e-18
6.25e-06
-9.63404e-18
6.25e-06
4.65822e-18
6.25e-06
-4.28689e-18
6.25e-06
3.32313e-18
6.25e-06
-2.5747e-18
6.25e-06
1.89891e-18
6.25e-06
-1.36286e-18
6.25e-06
8.73197e-19
6.25e-06
-2.74706e-19
6.25e-06
-1.85722e-19
6.25e-06
5.58472e-19
6.25e-06
-1.16696e-18
6.25e-06
1.39779e-18
6.25e-06
-4.18929e-18
6.25e-06
6.01818e-18
6.25e-06
-1.6535e-16
-1.9888e-16
8.75e-06
-4.23121e-16
8.75e-06
-3.87176e-16
8.75e-06
-1.97411e-17
8.75e-06
-1.24893e-17
8.75e-06
4.9546e-18
8.75e-06
-4.84685e-18
8.75e-06
3.69854e-18
8.75e-06
-2.85543e-18
8.75e-06
2.08581e-18
8.75e-06
-1.51599e-18
8.75e-06
9.90032e-19
8.75e-06
-2.72556e-19
8.75e-06
-2.3191e-19
8.75e-06
6.11211e-19
8.75e-06
-1.36219e-18
8.75e-06
1.4988e-18
8.75e-06
-5.80408e-18
8.75e-06
8.47709e-18
8.75e-06
-2.63846e-16
-3.04319e-16
1.125e-05
-5.41869e-16
1.125e-05
-5.15272e-16
1.125e-05
-3.09319e-17
1.125e-05
-1.46992e-17
1.125e-05
4.6159e-18
1.125e-05
-4.91514e-18
1.125e-05
3.68215e-18
1.125e-05
-2.82001e-18
1.125e-05
2.03552e-18
1.125e-05
-1.50827e-18
1.125e-05
1.00697e-18
1.125e-05
-2.28839e-19
1.125e-05
-2.62836e-19
1.125e-05
5.89461e-19
1.125e-05
-1.42811e-18
1.125e-05
1.41319e-18
1.125e-05
-7.2703e-18
1.125e-05
1.08068e-17
1.125e-05
-3.6398e-16
-4.08379e-16
1.375e-05
-6.33669e-16
1.375e-05
-6.21022e-16
1.375e-05
-4.19686e-17
1.375e-05
-1.61385e-17
1.375e-05
3.77217e-18
1.375e-05
-4.55818e-18
1.375e-05
3.32778e-18
1.375e-05
-2.52503e-18
1.375e-05
1.78959e-18
1.375e-05
-1.36815e-18
1.375e-05
9.39782e-19
1.375e-05
-1.54909e-19
1.375e-05
-2.71345e-19
1.375e-05
5.12698e-19
1.375e-05
-1.38696e-18
1.375e-05
1.17284e-18
1.375e-05
-8.46654e-18
1.375e-05
1.28487e-17
1.375e-05
-4.54911e-16
-5.0032e-16
1.625e-05
-6.89582e-16
1.625e-05
-6.93531e-16
1.625e-05
-5.15822e-17
1.625e-05
-1.67043e-17
1.625e-05
2.55177e-18
1.625e-05
-3.84783e-18
1.625e-05
2.70315e-18
1.625e-05
-2.0147e-18
1.625e-05
1.38111e-18
1.625e-05
-1.11725e-18
1.625e-05
8.04277e-19
1.625e-05
-6.5575e-20
1.625e-05
-2.58944e-19
1.625e-05
3.85576e-19
1.625e-05
-1.24804e-18
1.625e-05
8.19896e-19
1.625e-05
-9.30353e-18
1.625e-05
1.44297e-17
1.625e-05
-5.27689e-16
-5.71347e-16
1.875e-05
-7.05157e-16
1.875e-05
-7.26563e-16
1.875e-05
-5.87508e-17
1.875e-05
-1.63553e-17
1.875e-05
1.08181e-18
1.875e-05
-2.85784e-18
1.875e-05
1.87148e-18
1.875e-05
-1.35069e-18
1.875e-05
8.59089e-19
1.875e-05
-7.84175e-19
1.875e-05
6.1985e-19
1.875e-05
3.16124e-20
1.875e-05
-2.2463e-19
1.875e-05
2.25422e-19
1.875e-05
-1.03048e-18
1.875e-05
3.74503e-19
1.875e-05
-9.7082e-18
1.875e-05
1.54003e-17
1.875e-05
-5.75756e-16
-6.15134e-16
2.125e-05
-6.80209e-16
2.125e-05
-7.1841e-16
2.125e-05
-6.27841e-17
2.125e-05
-1.51056e-17
2.125e-05
-5.2569e-19
2.125e-05
-1.67111e-18
2.125e-05
9.12388e-19
2.125e-05
-5.94047e-19
2.125e-05
2.63335e-19
2.125e-05
-3.89403e-19
2.125e-05
3.96223e-19
2.125e-05
1.30575e-19
2.125e-05
-1.83558e-19
2.125e-05
5.00695e-20
2.125e-05
-7.43225e-19
2.125e-05
-1.19678e-19
2.125e-05
-9.64727e-18
2.125e-05
1.56343e-17
2.125e-05
-5.95277e-16
-6.28178e-16
2.375e-05
-6.18603e-16
2.375e-05
-6.71712e-16
2.375e-05
-6.33994e-17
2.375e-05
-1.30486e-17
2.375e-05
-2.13501e-18
2.375e-05
-3.78466e-19
2.375e-05
-1.16543e-19
2.375e-05
2.13763e-19
2.375e-05
-3.50611e-19
2.375e-05
1.60138e-20
2.375e-05
1.4478e-19
2.375e-05
2.25347e-19
2.375e-05
-1.22252e-19
2.375e-05
-1.3723e-19
2.375e-05
-4.21648e-19
2.375e-05
-6.20369e-19
2.375e-05
-9.12214e-18
2.375e-05
1.50595e-17
2.375e-05
-5.85305e-16
-6.09933e-16
2.625e-05
-5.27656e-16
2.625e-05
-5.92896e-16
2.625e-05
-6.07397e-17
2.625e-05
-1.03427e-17
2.625e-05
-3.63696e-18
2.625e-05
9.37479e-19
2.625e-05
-1.13717e-18
2.625e-05
1.00821e-18
2.625e-05
-9.56e-19
2.625e-05
4.23095e-19
2.625e-05
-1.02999e-19
2.625e-05
3.14634e-19
2.625e-05
-7.35511e-20
2.625e-05
-3.25422e-19
2.625e-05
-6.74564e-20
2.625e-05
-1.09851e-18
2.625e-05
-8.17567e-18
2.625e-05
1.36863e-17
2.625e-05
-5.47632e-16
-5.62757e-16
2.875e-05
-4.17334e-16
2.875e-05
-4.91354e-16
2.875e-05
-5.52568e-17
2.875e-05
-7.23383e-18
2.875e-05
-4.9396e-18
2.875e-05
2.17547e-18
2.875e-05
-2.07216e-18
2.875e-05
1.73584e-18
2.875e-05
-1.51014e-18
2.875e-05
8.00594e-19
2.875e-05
-3.38176e-19
2.875e-05
3.90731e-19
2.875e-05
-2.42387e-20
2.875e-05
-5.04973e-19
2.875e-05
2.78219e-19
2.875e-05
-1.51782e-18
2.875e-05
-6.87435e-18
2.875e-05
1.16154e-17
2.875e-05
-4.86583e-16
-4.9164e-16
3.125e-05
-2.99294e-16
3.125e-05
-3.78434e-16
3.125e-05
-4.77366e-17
3.125e-05
-3.97888e-18
3.125e-05
-5.9521e-18
3.125e-05
3.25053e-18
3.125e-05
-2.87114e-18
3.125e-05
2.34936e-18
3.125e-05
-1.94592e-18
3.125e-05
1.11106e-18
3.125e-05
-5.48075e-19
3.125e-05
4.57416e-19
3.125e-05
9.72415e-21
3.125e-05
-6.59129e-19
3.125e-05
6.07825e-19
3.125e-05
-1.84383e-18
3.125e-05
-5.34809e-18
3.125e-05
9.0383e-18
3.125e-05
-4.08486e-16
-4.03745e-16
3.375e-05
-1.85643e-16
3.375e-05
-2.66035e-16
3.375e-05
-3.90818e-17
3.375e-05
-8.83753e-19
3.375e-05
-6.58887e-18
3.375e-05
4.06784e-18
3.375e-05
-3.45956e-18
3.375e-05
2.79445e-18
3.375e-05
-2.26026e-18
3.375e-05
1.35e-18
3.375e-05
-7.17188e-19
3.375e-05
4.87659e-19
3.375e-05
4.49902e-20
3.375e-05
-7.57185e-19
3.375e-05
8.79651e-19
3.375e-05
-2.05699e-18
3.375e-05
-3.73024e-18
3.375e-05
6.24517e-18
3.375e-05
-3.21067e-16
-3.07656e-16
3.625e-05
-8.78528e-17
3.625e-05
-1.65475e-16
3.625e-05
-3.01921e-17
3.625e-05
1.71643e-18
3.625e-05
-6.78284e-18
3.625e-05
4.54827e-18
3.625e-05
-3.77919e-18
3.625e-05
3.01884e-18
3.625e-05
-2.40495e-18
3.625e-05
1.48109e-18
3.625e-05
-8.24973e-19
3.625e-05
4.99485e-19
3.625e-05
7.06017e-20
3.625e-05
-7.97673e-19
3.625e-05
1.0496e-18
3.625e-05
-2.12566e-18
3.625e-05
-2.15706e-18
3.625e-05
3.55494e-18
3.625e-05
-2.3275e-16
-2.12724e-16
3.875e-05
-1.494e-17
3.875e-05
-8.55676e-17
3.875e-05
-2.18701e-17
3.875e-05
3.53267e-18
3.875e-05
-6.45528e-18
3.875e-05
4.59702e-18
3.875e-05
-3.76223e-18
3.875e-05
2.98517e-18
3.875e-05
-2.34436e-18
3.875e-05
1.48803e-18
3.875e-05
-8.52641e-19
3.875e-05
4.66402e-19
3.875e-05
8.21855e-20
3.875e-05
-7.71252e-19
3.875e-05
1.11694e-18
3.875e-05
-2.01685e-18
3.875e-05
-8.13919e-19
3.875e-05
1.27849e-18
3.875e-05
-1.51504e-16
-1.27892e-16
4.125e-05
2.70501e-17
4.125e-05
-3.19529e-17
4.125e-05
-1.45772e-17
4.125e-05
4.29542e-18
4.125e-05
-5.55586e-18
4.125e-05
4.15543e-18
4.125e-05
-3.36315e-18
4.125e-05
2.6393e-18
4.125e-05
-2.05334e-18
4.125e-05
1.35285e-18
4.125e-05
-7.91552e-19
4.125e-05
3.98925e-19
4.125e-05
9.37235e-20
4.125e-05
-6.74454e-19
4.125e-05
1.02829e-18
4.125e-05
-1.73275e-18
4.125e-05
1.66341e-19
4.125e-05
-2.83659e-19
4.125e-05
-8.44273e-17
-6.10595e-17
4.375e-05
3.76469e-17
4.375e-05
-4.44905e-18
4.375e-05
-8.45988e-18
4.375e-05
3.82275e-18
4.375e-05
-4.04392e-18
4.375e-05
3.13154e-18
4.375e-05
-2.50067e-18
4.375e-05
1.9619e-18
4.375e-05
-1.52133e-18
4.375e-05
1.01761e-18
4.375e-05
-5.93581e-19
4.375e-05
2.80649e-19
4.375e-05
7.77058e-20
4.375e-05
-4.76332e-19
4.375e-05
7.80047e-19
4.375e-05
-1.25398e-18
4.375e-05
6.34635e-19
4.375e-05
-9.28758e-19
4.375e-05
-3.60416e-17
-1.7385e-17
4.625e-05
2.11498e-17
4.625e-05
2.2078e-18
4.625e-05
-3.23967e-18
4.625e-05
1.96186e-18
4.625e-05
-1.8287e-18
4.625e-05
1.4568e-18
4.625e-05
-1.1667e-18
4.625e-05
9.02304e-19
4.625e-05
-6.94454e-19
4.625e-05
4.72729e-19
4.625e-05
-2.85815e-19
4.625e-05
1.31836e-19
4.625e-05
3.21501e-20
4.625e-05
-2.11107e-19
4.625e-05
3.6213e-19
4.625e-05
-5.58904e-19
4.625e-05
4.62608e-19
4.625e-05
-6.48115e-19
4.625e-05
-8.44023e-18
5.86008e-19
4.875e-05
4.875e-05
4.875e-05
4.875e-05
4.875e-05
4.875e-05
4.875e-05
4.875e-05
4.875e-05
4.875e-05
4.875e-05
4.875e-05
4.875e-05
4.875e-05
4.875e-05
4.875e-05
4.875e-05
4.875e-05
4.875e-05
)
;

boundaryField
{
    top
    {
        type            calculated;
        value           uniform 0;
    }
    bottom
    {
        type            calculated;
        value           uniform 0;
    }
    inlet
    {
        type            calculated;
        value           nonuniform List<scalar> 
20
(
-1.25e-06
-3.75e-06
-6.25e-06
-8.75e-06
-1.125e-05
-1.375e-05
-1.625e-05
-1.875e-05
-2.125e-05
-2.375e-05
-2.625e-05
-2.875e-05
-3.125e-05
-3.375e-05
-3.625e-05
-3.875e-05
-4.125e-05
-4.375e-05
-4.625e-05
-4.875e-05
)
;
    }
    outlet
    {
        type            calculated;
        value           nonuniform List<scalar> 
20
(
1.25e-06
3.75e-06
6.25e-06
8.75e-06
1.125e-05
1.375e-05
1.625e-05
1.875e-05
2.125e-05
2.375e-05
2.625e-05
2.875e-05
3.125e-05
3.375e-05
3.625e-05
3.875e-05
4.125e-05
4.375e-05
4.625e-05
4.875e-05
)
;
    }
    frontAndBack
    {
        type            empty;
        value           nonuniform 0();
    }
}


// ************************************************************************* //
