/*--------------------------------*- C++ -*----------------------------------*\
| =========                 |                                                 |
| \\      /  F ield         | OpenFOAM: The Open Source CFD Toolbox           |
|  \\    /   O peration     | Version:  4.1                                   |
|   \\  /    A nd           | Web:      www.OpenFOAM.org                      |
|    \\/     M anipulation  |                                                 |
\*---------------------------------------------------------------------------*/
FoamFile
{
    version     2.0;
    format      ascii;
    class       volVectorField;
    location    "3.6";
    object      U;
}
// * * * * * * * * * * * * * * * * * * * * * * * * * * * * * * * * * * * * * //

dimensions      [0 1 -1 0 0 0 0];

internalField   nonuniform List<vector> 
400
(
(0.025 -2.36575e-14 0)
(0.025 -1.47501e-14 0)
(0.025 5.45088e-16 0)
(0.025 -1.29159e-15 0)
(0.025 9.08898e-16 0)
(0.025 -7.62098e-16 0)
(0.025 6.05367e-16 0)
(0.025 -4.71717e-16 0)
(0.025 3.52602e-16 0)
(0.025 -2.49226e-16 0)
(0.025 1.54886e-16 0)
(0.025 -5.95079e-17 0)
(0.025 -2.56492e-17 0)
(0.025 1.04077e-16 0)
(0.025 -1.9533e-16 0)
(0.025 2.69144e-16 0)
(0.025 -4.67829e-16 0)
(0.025 6.03843e-16 0)
(0.025 -8.31175e-15 0)
(0.025 -1.35451e-14 0)
(0.075 -9.95587e-14 0)
(0.075 -7.34686e-14 0)
(0.075 -1.89338e-16 0)
(0.075 -4.37021e-15 0)
(0.075 2.76635e-15 0)
(0.075 -2.37412e-15 0)
(0.075 1.87206e-15 0)
(0.075 -1.45722e-15 0)
(0.075 1.08532e-15 0)
(0.075 -7.69746e-16 0)
(0.075 4.82758e-16 0)
(0.075 -1.76027e-16 0)
(0.075 -8.68075e-17 0)
(0.075 3.20271e-16 0)
(0.075 -6.19635e-16 0)
(0.075 8.22712e-16 0)
(0.075 -1.68592e-15 0)
(0.075 2.42439e-15 0)
(0.075 -4.48167e-14 0)
(0.075 -6.18965e-14 0)
(0.125 -2.20852e-13 0)
(0.125 -1.83351e-13 0)
(0.125 -5.43919e-15 0)
(0.125 -7.98646e-15 0)
(0.125 4.27714e-15 0)
(0.125 -3.8263e-15 0)
(0.125 2.9866e-15 0)
(0.125 -2.31874e-15 0)
(0.125 1.71729e-15 0)
(0.125 -1.22601e-15 0)
(0.125 7.78548e-16 0)
(0.125 -2.60074e-16 0)
(0.125 -1.55703e-16 0)
(0.125 5.0582e-16 0)
(0.125 -1.02502e-15 0)
(0.125 1.27751e-15 0)
(0.125 -3.33356e-15 0)
(0.125 4.70143e-15 0)
(0.125 -1.17587e-13 0)
(0.125 -1.46478e-13 0)
(0.175 -3.5748e-13 0)
(0.175 -3.18208e-13 0)
(0.175 -1.42256e-14 0)
(0.175 -1.11956e-14 0)
(0.175 4.98145e-15 0)
(0.175 -4.69784e-15 0)
(0.175 3.61779e-15 0)
(0.175 -2.79964e-15 0)
(0.175 2.05664e-15 0)
(0.175 -1.48289e-15 0)
(0.175 9.57944e-16 0)
(0.175 -2.85691e-16 0)
(0.175 -2.13054e-16 0)
(0.175 6.04471e-16 0)
(0.175 -1.29636e-15 0)
(0.175 1.49922e-15 0)
(0.175 -5.01592e-15 0)
(0.175 7.24166e-15 0)
(0.175 -2.12335e-13 0)
(0.175 -2.50079e-13 0)
(0.225 -4.87509e-13 0)
(0.225 -4.54743e-13 0)
(0.225 -2.51778e-14 0)
(0.225 -1.37781e-14 0)
(0.225 4.93451e-15 0)
(0.225 -5.00085e-15 0)
(0.225 3.7864e-15 0)
(0.225 -2.91365e-15 0)
(0.225 2.11781e-15 0)
(0.225 -1.55113e-15 0)
(0.225 1.02266e-15 0)
(0.225 -2.59766e-16 0)
(0.225 -2.52462e-16 0)
(0.225 6.1766e-16 0)
(0.225 -1.426e-15 0)
(0.225 1.50021e-15 0)
(0.225 -6.5918e-15 0)
(0.225 9.67624e-15 0)
(0.225 -3.14788e-13 0)
(0.225 -3.57987e-13 0)
(0.275 -5.95518e-13 0)
(0.275 -5.74964e-13 0)
(0.275 -3.66513e-14 0)
(0.275 -1.56251e-14 0)
(0.275 4.30585e-15 0)
(0.275 -4.83508e-15 0)
(0.275 3.58165e-15 0)
(0.275 -2.73217e-15 0)
(0.275 1.95752e-15 0)
(0.275 -1.46923e-15 0)
(0.275 9.92647e-16 0)
(0.275 -1.9787e-16 0)
(0.275 -2.7228e-16 0)
(0.275 5.64588e-16 0)
(0.275 -1.43396e-15 0)
(0.275 1.32758e-15 0)
(0.275 -7.94715e-15 0)
(0.275 1.19032e-14 0)
(0.275 -4.12813e-13 0)
(0.275 -4.58423e-13 0)
(0.325 -6.7101e-13 0)
(0.325 -6.66219e-13 0)
(0.325 -4.7276e-14 0)
(0.325 -1.6644e-14 0)
(0.325 3.23995e-15 0)
(0.325 -4.28164e-15 0)
(0.325 3.07457e-15 0)
(0.325 -2.31472e-15 0)
(0.325 1.61927e-15 0)
(0.325 -1.2665e-15 0)
(0.325 8.86844e-16 0)
(0.325 -1.13754e-16 0)
(0.325 -2.69718e-16 0)
(0.325 4.58814e-16 0)
(0.325 -1.3398e-15 0)
(0.325 1.02192e-15 0)
(0.325 -8.98289e-15 0)
(0.325 1.37571e-14 0)
(0.325 -4.9657e-13 0)
(0.325 -5.41761e-13 0)
(0.375 -7.07338e-13 0)
(0.375 -7.19993e-13 0)
(0.375 -5.58883e-14 0)
(0.375 -1.67567e-14 0)
(0.375 1.86356e-15 0)
(0.375 -3.41168e-15 0)
(0.375 2.32951e-15 0)
(0.375 -1.71411e-15 0)
(0.375 1.143e-15 0)
(0.375 -9.67594e-16 0)
(0.375 7.23141e-16 0)
(0.375 -1.80935e-17 0)
(0.375 -2.45516e-16 0)
(0.375 3.11945e-16 0)
(0.375 -1.15732e-15 0)
(0.375 6.13867e-16 0)
(0.375 -9.617e-15 0)
(0.375 1.50734e-14 0)
(0.375 -5.58272e-13 0)
(0.375 -6.00388e-13 0)
(0.425 -7.02214e-13 0)
(0.425 -7.32345e-13 0)
(0.425 -6.16166e-14 0)
(0.425 -1.59451e-14 0)
(0.425 2.94724e-16 0)
(0.425 -2.30295e-15 0)
(0.425 1.41642e-15 0)
(0.425 -9.89788e-16 0)
(0.425 5.74033e-16 0)
(0.425 -5.96564e-16 0)
(0.425 5.14923e-16 0)
(0.425 8.14869e-17 0)
(0.425 -2.0681e-16 0)
(0.425 1.41967e-16 0)
(0.425 -9.00116e-16 0)
(0.425 1.34588e-16 0)
(0.425 -9.793e-15 0)
(0.425 1.57062e-14 0)
(0.425 -5.92661e-13 0)
(0.425 -6.29316e-13 0)
(0.475 -6.57563e-13 0)
(0.475 -7.03815e-13 0)
(0.475 -6.39656e-14 0)
(0.475 -1.42606e-14 0)
(0.475 -1.34224e-15 0)
(0.475 -1.04094e-15 0)
(0.475 4.04512e-16 0)
(0.475 -1.94399e-16 0)
(0.475 -4.171e-17 0)
(0.475 -1.89541e-16 0)
(0.475 2.73641e-16 0)
(0.475 1.79426e-16 0)
(0.475 -1.54207e-16 0)
(0.475 -4.25454e-17 0)
(0.475 -5.90878e-16 0)
(0.475 -3.71386e-16 0)
(0.475 -9.49496e-15 0)
(0.475 1.5549e-14 0)
(0.475 -5.97331e-13 0)
(0.475 -6.26496e-13 0)
(0.525 -5.79153e-13 0)
(0.525 -6.39112e-13 0)
(0.525 -6.28691e-14 0)
(0.525 -1.18309e-14 0)
(0.525 -2.92465e-15 0)
(0.525 2.86612e-16 0)
(0.525 -6.37873e-16 0)
(0.525 6.19907e-16 0)
(0.525 -6.62729e-16 0)
(0.525 2.24534e-16 0)
(0.525 2.03523e-17 0)
(0.525 2.72893e-16 0)
(0.525 -9.74004e-17 0)
(0.525 -2.32999e-16 0)
(0.525 -2.47336e-16 0)
(0.525 -8.70722e-16 0)
(0.525 -8.74492e-15 0)
(0.525 1.45663e-14 0)
(0.525 -5.72753e-13 0)
(0.525 -5.92878e-13 0)
(0.575 -4.75843e-13 0)
(0.575 -5.46376e-13 0)
(0.575 -5.8638e-14 0)
(0.575 -8.86147e-15 0)
(0.575 -4.3514e-15 0)
(0.575 1.58667e-15 0)
(0.575 -1.63189e-15 0)
(0.575 1.39476e-15 0)
(0.575 -1.25273e-15 0)
(0.575 6.2253e-16 0)
(0.575 -2.2565e-16 0)
(0.575 3.56437e-16 0)
(0.575 -4.68883e-17 0)
(0.575 -4.20004e-16 0)
(0.575 1.08766e-16 0)
(0.575 -1.32678e-15 0)
(0.575 -7.59717e-15 0)
(0.575 1.28099e-14 0)
(0.575 -5.22076e-13 0)
(0.575 -5.3223e-13 0)
(0.625 -3.58732e-13 0)
(0.625 -4.36274e-13 0)
(0.625 -5.19215e-14 0)
(0.625 -5.60606e-15 0)
(0.625 -5.52968e-15 0)
(0.625 2.76565e-15 0)
(0.625 -2.51521e-15 0)
(0.625 2.07702e-15 0)
(0.625 -1.7571e-15 0)
(0.625 9.7335e-16 0)
(0.625 -4.51805e-16 0)
(0.625 4.28534e-16 0)
(0.625 -4.62245e-18 0)
(0.625 -5.91487e-16 0)
(0.625 4.53235e-16 0)
(0.625 -1.70632e-15 0)
(0.625 -6.15305e-15 0)
(0.625 1.04288e-14 0)
(0.625 -4.50771e-13 0)
(0.625 -4.50777e-13 0)
(0.675 -2.39981e-13 0)
(0.675 -3.20745e-13 0)
(0.675 -4.3595e-14 0)
(0.675 -2.35321e-15 0)
(0.675 -6.37334e-15 0)
(0.675 3.73302e-15 0)
(0.675 -3.22456e-15 0)
(0.675 2.62019e-15 0)
(0.675 -2.14172e-15 0)
(0.675 1.25335e-15 0)
(0.675 -6.45347e-16 0)
(0.675 4.79483e-16 0)
(0.675 2.96978e-17 0)
(0.675 -7.21015e-16 0)
(0.675 7.62358e-16 0)
(0.675 -1.98374e-15 0)
(0.675 -4.54476e-15 0)
(0.675 7.66949e-15 0)
(0.675 -3.66031e-13 0)
(0.675 -3.56569e-13 0)
(0.725 -1.31726e-13 0)
(0.725 -2.11789e-13 0)
(0.725 -3.46016e-14 0)
(0.725 5.7392e-16 0)
(0.725 -6.80723e-15 0)
(0.725 4.40334e-15 0)
(0.725 -3.69479e-15 0)
(0.725 2.96772e-15 0)
(0.725 -2.37871e-15 0)
(0.725 1.44446e-15 0)
(0.725 -7.88581e-16 0)
(0.725 5.01132e-16 0)
(0.725 5.97467e-17 0)
(0.725 -7.9328e-16 0)
(0.725 9.90338e-16 0)
(0.725 -2.12991e-15 0)
(0.725 -2.90958e-15 0)
(0.725 4.84246e-15 0)
(0.725 -2.76159e-13 0)
(0.725 -2.58805e-13 0)
(0.775 -4.44989e-14 0)
(0.775 -1.19812e-13 0)
(0.775 -2.58371e-14 0)
(0.775 2.8598e-15 0)
(0.775 -6.76181e-15 0)
(0.775 4.69368e-15 0)
(0.775 -3.86671e-15 0)
(0.775 3.07704e-15 0)
(0.775 -2.43059e-15 0)
(0.775 1.52243e-15 0)
(0.775 -8.62239e-16 0)
(0.775 4.92791e-16 0)
(0.775 7.89896e-17 0)
(0.775 -8.04283e-16 0)
(0.775 1.11794e-15 0)
(0.775 -2.11716e-15 0)
(0.775 -1.40978e-15 0)
(0.775 2.27703e-15 0)
(0.775 -1.89536e-13 0)
(0.775 -1.66826e-13 0)
(0.825 1.35359e-14 0)
(0.825 -5.25252e-14 0)
(0.825 -1.79262e-14 0)
(0.825 4.20417e-15 0)
(0.825 -6.15578e-15 0)
(0.825 4.51212e-15 0)
(0.825 -3.66819e-15 0)
(0.825 2.89394e-15 0)
(0.825 -2.26006e-15 0)
(0.825 1.46357e-15 0)
(0.825 -8.49325e-16 0)
(0.825 4.42369e-16 0)
(0.825 9.21701e-17 0)
(0.825 -7.42354e-16 0)
(0.825 1.1111e-15 0)
(0.825 -1.92281e-15 0)
(0.825 -2.0997e-16 0)
(0.825 3.00547e-16 0)
(0.825 -1.13915e-13 0)
(0.825 -8.93679e-14 0)
(0.875 3.87609e-14 0)
(0.875 -1.25654e-14 0)
(0.875 -1.11456e-14 0)
(0.875 4.31049e-15 0)
(0.875 -4.90042e-15 0)
(0.875 3.74319e-15 0)
(0.875 -3.00842e-15 0)
(0.875 2.35893e-15 0)
(0.875 -1.83021e-15 0)
(0.875 1.21758e-15 0)
(0.875 -7.13062e-16 0)
(0.875 3.46061e-16 0)
(0.875 8.92105e-17 0)
(0.875 -5.88118e-16 0)
(0.875 9.3265e-16 0)
(0.875 -1.5242e-15 0)
(0.875 5.20899e-16 0)
(0.875 -8.30242e-16 0)
(0.875 -5.52833e-14 0)
(0.875 -3.33755e-14 0)
(0.925 3.35579e-14 0)
(0.925 2.70043e-15 0)
(0.925 -5.47794e-15 0)
(0.925 3.08934e-15 0)
(0.925 -2.98481e-15 0)
(0.925 2.35718e-15 0)
(0.925 -1.88012e-15 0)
(0.925 1.46375e-15 0)
(0.925 -1.13145e-15 0)
(0.925 7.65509e-16 0)
(0.925 -4.53566e-16 0)
(0.925 2.09762e-16 0)
(0.925 5.83143e-17 0)
(0.925 -3.49835e-16 0)
(0.925 5.88469e-16 0)
(0.925 -9.21153e-16 0)
(0.925 6.58748e-16 0)
(0.925 -9.36461e-16 0)
(0.925 -1.78265e-14 0)
(0.925 -3.40204e-15 0)
(0.975 1.25291e-14 0)
(0.975 2.79244e-15 0)
(0.975 -1.51143e-15 0)
(0.975 1.0628e-15 0)
(0.975 -9.45558e-16 0)
(0.975 7.59276e-16 0)
(0.975 -6.07381e-16 0)
(0.975 4.70455e-16 0)
(0.975 -3.62258e-16 0)
(0.975 2.47717e-16 0)
(0.975 -1.49019e-16 0)
(0.975 6.73888e-17 0)
(0.975 1.80897e-17 0)
(0.975 -1.09158e-16 0)
(0.975 1.90352e-16 0)
(0.975 -2.89369e-16 0)
(0.975 2.74016e-16 0)
(0.975 -4.27011e-16 0)
(0.975 -2.33318e-15 0)
(0.975 2.50458e-15 0)
)
;

boundaryField
{
    top
    {
        type            fixedValue;
        value           uniform (1 0 0);
    }
    bottom
    {
        type            fixedValue;
        value           uniform (0 0 0);
    }
    inlet
    {
        type            zeroGradient;
    }
    outlet
    {
        type            zeroGradient;
    }
    frontAndBack
    {
        type            empty;
    }
}


// ************************************************************************* //
