/*--------------------------------*- C++ -*----------------------------------*\
| =========                 |                                                 |
| \\      /  F ield         | OpenFOAM: The Open Source CFD Toolbox           |
|  \\    /   O peration     | Version:  4.1                                   |
|   \\  /    A nd           | Web:      www.OpenFOAM.org                      |
|    \\/     M anipulation  |                                                 |
\*---------------------------------------------------------------------------*/
FoamFile
{
    version     2.0;
    format      ascii;
    class       surfaceScalarField;
    location    "1.5";
    object      phi;
}
// * * * * * * * * * * * * * * * * * * * * * * * * * * * * * * * * * * * * * //

dimensions      [0 3 -1 0 0 0 0];

internalField   nonuniform List<scalar> 
760
(
-1.91638e-05
8.57796e-13
-1.91638e-05
1.72132e-12
-1.91638e-05
1.88017e-12
-1.91638e-05
1.48123e-12
-1.91638e-05
1.7731e-12
-1.91638e-05
1.59245e-12
-1.91638e-05
1.92819e-12
-1.91638e-05
1.63918e-12
-1.91638e-05
2.01249e-12
-1.91638e-05
1.55986e-12
-1.91638e-05
1.90881e-12
-1.91638e-05
1.35545e-12
-1.91638e-05
1.64675e-12
-1.91638e-05
1.07782e-12
-1.91638e-05
1.25227e-12
-1.91638e-05
6.7939e-13
-1.91638e-05
8.97006e-13
-1.91638e-05
1.66259e-13
-1.91638e-05
-2.21654e-14
6.30505e-13
-5.11585e-05
1.80903e-12
-5.11585e-05
3.06385e-12
-5.11585e-05
2.79615e-12
-5.11585e-05
1.57296e-13
-5.11585e-05
1.01356e-12
-5.11585e-05
-8.06989e-13
-5.11585e-05
6.9727e-13
-5.11585e-05
-1.21529e-12
-5.11585e-05
6.66963e-13
-5.11585e-05
-1.39371e-12
-5.11585e-05
5.71244e-13
-5.11585e-05
-1.39693e-12
-5.11585e-05
4.10802e-13
-5.11585e-05
-1.21361e-12
-5.11585e-05
1.99532e-13
-5.11585e-05
-1.0513e-12
-5.11585e-05
2.47048e-13
-5.11585e-05
-1.28673e-12
-5.11585e-05
-6.91204e-13
1.7873e-12
-7.68205e-05
3.54738e-12
-7.68205e-05
5.24985e-12
-7.68205e-05
4.14009e-12
-7.68205e-05
-1.45897e-12
-7.68205e-05
1.7486e-13
-7.68205e-05
-3.81307e-12
-7.68205e-05
-6.79084e-13
-7.68205e-05
-4.7426e-12
-7.68205e-05
-8.13568e-13
-7.68205e-05
-4.99087e-12
-7.68205e-05
-8.77951e-13
-7.68205e-05
-4.69329e-12
-7.68205e-05
-9.17668e-13
-7.68205e-05
-3.90324e-12
-7.68205e-05
-9.21205e-13
-7.68205e-05
-3.01637e-12
-7.68205e-05
-4.10045e-13
-7.68205e-05
-3.04941e-12
-7.68205e-05
-8.67693e-13
3.74156e-12
-9.61497e-05
6.25711e-12
-9.61497e-05
8.77272e-12
-9.61497e-05
6.05542e-12
-9.61497e-05
-2.32175e-12
-9.61497e-05
-3.46716e-13
-9.61497e-05
-6.01578e-12
-9.61497e-05
-1.78183e-12
-9.61497e-05
-7.37977e-12
-9.61497e-05
-2.05574e-12
-9.61497e-05
-7.68716e-12
-9.61497e-05
-2.12782e-12
-9.61497e-05
-7.16299e-12
-9.61497e-05
-2.09083e-12
-9.61497e-05
-5.91829e-12
-9.61497e-05
-1.92584e-12
-9.61497e-05
-4.51457e-12
-9.61497e-05
-9.6299e-13
-9.61497e-05
-4.72063e-12
-9.61497e-05
-3.43264e-13
6.40271e-12
-0.000109146
9.754e-12
-0.000109146
1.32912e-11
-0.000109146
8.32455e-12
-0.000109146
-2.48734e-12
-0.000109146
-5.293e-13
-0.000109146
-7.34456e-12
-0.000109146
-2.524e-12
-0.000109146
-9.01405e-12
-0.000109146
-2.95016e-12
-0.000109146
-9.34839e-12
-0.000109146
-3.06268e-12
-0.000109146
-8.66555e-12
-0.000109146
-2.99791e-12
-0.000109146
-7.12261e-12
-0.000109146
-2.7171e-12
-0.000109146
-5.42389e-12
-0.000109146
-1.36079e-12
-0.000109146
-6.09247e-12
-0.000109146
9.57323e-13
9.7033e-12
-0.00011581
1.37079e-11
-0.00011581
1.82875e-11
-0.00011581
1.05581e-11
-0.00011581
-2.22956e-12
-0.00011581
-6.51896e-13
-0.00011581
-8.05386e-12
-0.00011581
-3.19428e-12
-0.00011581
-9.9111e-12
-0.00011581
-3.79564e-12
-0.00011581
-1.02336e-11
-0.00011581
-3.96678e-12
-0.00011581
-9.43477e-12
-0.00011581
-3.88458e-12
-0.00011581
-7.7099e-12
-0.00011581
-3.48376e-12
-0.00011581
-5.87746e-12
-0.00011581
-1.74659e-12
-0.00011581
-7.15046e-12
-0.00011581
2.88472e-12
1.3395e-11
-0.000116141
1.7748e-11
-0.000116141
2.32404e-11
-0.000116141
1.24768e-11
-0.000116141
-1.75e-12
-0.000116141
-8.53397e-13
-0.000116141
-8.31789e-12
-0.000116141
-3.91155e-12
-0.000116141
-1.02543e-11
-0.000116141
-4.70385e-12
-0.000116141
-1.05259e-11
-0.000116141
-4.93875e-12
-0.000116141
-9.63796e-12
-0.000116141
-4.8296e-12
-0.000116141
-7.81852e-12
-0.000116141
-4.28217e-12
-0.000116141
-5.9673e-12
-0.000116141
-2.16959e-12
-0.000116141
-7.88098e-12
-0.000116141
5.22493e-12
1.71717e-11
-0.000110139
2.14853e-11
-0.000110139
2.76478e-11
-0.000110139
1.38907e-11
-0.000110139
-1.19298e-12
-0.000110139
-1.18381e-12
-0.000110139
-8.25909e-12
-0.000110139
-4.6933e-12
-0.000110139
-1.0178e-11
-0.000110139
-5.67712e-12
-0.000110139
-1.03651e-11
-0.000110139
-5.97034e-12
-0.000110139
-9.40794e-12
-0.000110139
-5.81683e-12
-0.000110139
-7.56385e-12
-0.000110139
-5.09511e-12
-0.000110139
-5.77188e-12
-0.000110139
-2.62698e-12
-0.000110139
-8.28589e-12
-0.000110139
7.70361e-12
2.06777e-11
-9.78043e-05
2.45445e-11
-9.78043e-05
3.10599e-11
-9.78043e-05
1.46746e-11
-9.78043e-05
-6.56385e-13
-9.78043e-05
-1.64188e-12
-9.78043e-05
-7.95629e-12
-9.78043e-05
-5.50348e-12
-9.78043e-05
-9.77444e-12
-9.78043e-05
-6.66141e-12
-9.78043e-05
-9.85484e-12
-9.78043e-05
-6.999e-12
-9.78043e-05
-8.84865e-12
-9.78043e-05
-6.78244e-12
-9.78043e-05
-7.03952e-12
-9.78043e-05
-5.8693e-12
-9.78043e-05
-5.35826e-12
-9.78043e-05
-3.0889e-12
-9.78043e-05
-8.3821e-12
-9.78043e-05
1.00222e-11
2.35492e-11
-7.9137e-05
2.65964e-11
-7.9137e-05
3.31058e-11
-7.9137e-05
1.47568e-11
-7.9137e-05
-2.07927e-13
-7.9137e-05
-2.19523e-12
-7.9137e-05
-7.46737e-12
-7.9137e-05
-6.27805e-12
-7.9137e-05
-9.11722e-12
-7.9137e-05
-7.57438e-12
-7.9137e-05
-9.08201e-12
-7.9137e-05
-7.93584e-12
-7.9137e-05
-8.05052e-12
-7.9137e-05
-7.64038e-12
-7.9137e-05
-6.32867e-12
-7.9137e-05
-6.5357e-12
-7.9137e-05
-4.78921e-12
-7.9137e-05
-3.51218e-12
-7.9137e-05
-8.19552e-12
-7.9137e-05
1.18939e-11
2.54554e-11
-5.4137e-05
2.73946e-11
-5.4137e-05
3.35278e-11
-5.4137e-05
1.4112e-11
-5.4137e-05
1.05396e-13
-5.4137e-05
-2.79651e-12
-5.4137e-05
-6.84206e-12
-5.4137e-05
-6.94623e-12
-5.4137e-05
-8.2742e-12
-5.4137e-05
-8.32963e-12
-5.4137e-05
-8.1285e-12
-5.4137e-05
-8.69023e-12
-5.4137e-05
-7.09973e-12
-5.4137e-05
-8.30533e-12
-5.4137e-05
-5.50998e-12
-5.4137e-05
-7.02809e-12
-5.4137e-05
-4.12728e-12
-5.4137e-05
-3.8535e-12
-5.4137e-05
-7.7571e-12
-5.4137e-05
1.30825e-11
2.61424e-11
-2.28043e-05
2.68063e-11
-2.28043e-05
3.22121e-11
-2.28043e-05
1.27657e-11
-2.28043e-05
2.53571e-13
-2.28043e-05
-3.3894e-12
-2.28043e-05
-6.1283e-12
-2.28043e-05
-7.43956e-12
-2.28043e-05
-7.31334e-12
-2.28043e-05
-8.8477e-12
-2.28043e-05
-7.07517e-12
-2.28043e-05
-9.18149e-12
-2.28043e-05
-6.08026e-12
-2.28043e-05
-8.70435e-12
-2.28043e-05
-4.65791e-12
-2.28043e-05
-7.29231e-12
-2.28043e-05
-3.43407e-12
-2.28043e-05
-4.07655e-12
-2.28043e-05
-7.09982e-12
-2.28043e-05
1.34331e-11
2.54691e-11
1.48611e-05
2.48376e-11
1.48611e-05
2.92175e-11
1.48612e-05
1.08063e-11
1.48612e-05
2.28404e-13
1.48612e-05
-3.907e-12
1.48612e-05
-5.36931e-12
1.48612e-05
-7.69119e-12
1.48612e-05
-6.29848e-12
1.48612e-05
-9.05634e-12
1.48612e-05
-5.99603e-12
1.48612e-05
-9.3396e-12
1.48612e-05
-5.06703e-12
1.48612e-05
-8.7781e-12
1.48612e-05
-3.83611e-12
1.48612e-05
-7.28665e-12
1.48612e-05
-2.76426e-12
1.48612e-05
-4.15262e-12
1.48612e-05
-6.25761e-12
1.48612e-05
1.28958e-11
2.34371e-11
5.88593e-05
2.16405e-11
5.88593e-05
2.47898e-11
5.88593e-05
8.39861e-12
5.88593e-05
5.42109e-14
5.88593e-05
-4.26527e-12
5.88593e-05
-4.59164e-12
5.88593e-05
-7.62816e-12
5.88593e-05
-5.27449e-12
5.88593e-05
-8.88215e-12
5.88593e-05
-4.94191e-12
5.88593e-05
-9.09681e-12
5.88593e-05
-4.10954e-12
5.88593e-05
-8.4731e-12
5.88593e-05
-3.08319e-12
5.88593e-05
-6.97456e-12
5.88593e-05
-2.15384e-12
5.88593e-05
-4.05446e-12
5.88593e-05
-5.26536e-12
5.88593e-05
1.15342e-11
2.02039e-11
0.00010919
1.75143e-11
0.00010919
1.93673e-11
0.00010919
5.792e-12
0.00010919
-2.02517e-13
0.00010919
-4.35895e-12
0.00010919
-3.79378e-12
0.00010919
-7.16352e-12
0.00010919
-4.25286e-12
0.00010919
-8.23948e-12
0.00010919
-3.92493e-12
0.00010919
-8.3733e-12
0.00010919
-3.21669e-12
0.00010919
-7.72625e-12
0.00010919
-2.40016e-12
0.00010919
-6.30981e-12
0.00010919
-1.60962e-12
0.00010919
-3.74368e-12
0.00010919
-4.15992e-12
0.00010919
9.53107e-12
1.60878e-11
0.000165854
1.28745e-11
0.000165854
1.35559e-11
0.000165854
3.32139e-12
0.000165854
-4.09751e-13
0.000165854
-4.05056e-12
0.000165854
-2.91121e-12
0.000165854
-6.18183e-12
0.000165854
-3.17001e-12
0.000165854
-7.01528e-12
0.000165854
-2.87531e-12
0.000165854
-7.0658e-12
0.000165854
-2.31625e-12
0.000165854
-6.45347e-12
0.000165854
-1.71688e-12
0.000165854
-5.2245e-12
0.000165854
-1.08342e-12
0.000165854
-3.15677e-12
0.000165854
-2.97191e-12
0.000165854
7.16858e-12
1.15471e-11
0.00022885
8.26737e-12
0.00022885
8.12956e-12
0.00022885
1.41393e-12
0.00022885
-3.23666e-13
0.00022885
-3.12737e-12
0.00022885
-1.74451e-12
0.00022885
-4.47855e-12
0.00022885
-1.80243e-12
0.00022885
-5.00107e-12
0.00022885
-1.554e-12
0.00022885
-4.97444e-12
0.00022885
-1.1738e-12
0.00022885
-4.48059e-12
0.00022885
-8.24616e-13
0.00022885
-3.57384e-12
0.00022885
-4.20033e-13
0.00022885
-2.16695e-12
0.00022885
-1.69225e-12
0.00022885
4.84342e-12
7.1663e-12
0.000298179
4.12657e-12
0.00029818
3.71547e-12
0.00029818
2.57674e-13
0.00029818
1.72586e-15
0.00029818
-1.72638e-12
0.00029818
-4.78421e-13
0.00029818
-2.25932e-12
0.00029818
-3.54816e-13
0.00029818
-2.41783e-12
0.00029818
-1.54682e-13
0.00029818
-2.3126e-12
0.00029818
4.50242e-14
0.00029818
-1.99082e-12
0.00029818
1.507e-13
0.00029818
-1.49247e-12
0.00029818
2.90379e-13
0.00029818
-8.18191e-13
0.00029818
-4.81857e-13
0.00029818
2.90167e-12
3.53011e-12
0.000373841
1.17893e-12
0.000373841
1.20416e-12
0.000373841
2.80306e-13
0.000373841
9.10644e-13
0.000373841
3.75219e-13
0.000373841
1.22906e-12
0.000373841
6.71969e-13
0.000373841
1.55436e-12
0.000373841
9.08254e-13
0.000373841
1.71365e-12
0.000373841
1.0669e-12
0.000373841
1.70469e-12
0.000373841
1.12841e-12
0.000373841
1.51099e-12
0.000373841
1.09317e-12
0.000373841
1.26386e-12
0.000373841
9.51604e-13
0.000373841
6.65292e-13
0.000373841
1.7726e-12
1.23252e-12
0.000455836
0.000455836
0.000455836
0.000455836
0.000455836
0.000455836
0.000455836
0.000455836
0.000455836
0.000455836
0.000455836
0.000455836
0.000455836
0.000455836
0.000455836
0.000455836
0.000455836
0.000455836
0.000455836
)
;

boundaryField
{
    top
    {
        type            calculated;
        value           uniform 0;
    }
    bottom
    {
        type            calculated;
        value           uniform 0;
    }
    inlet
    {
        type            calculated;
        value           nonuniform List<scalar> 
20
(
1.91638e-05
5.11585e-05
7.68205e-05
9.61497e-05
0.000109146
0.00011581
0.000116141
0.000110139
9.78043e-05
7.9137e-05
5.4137e-05
2.28043e-05
-1.48611e-05
-5.88593e-05
-0.00010919
-0.000165854
-0.00022885
-0.000298179
-0.000373841
-0.000455836
)
;
    }
    outlet
    {
        type            calculated;
        value           nonuniform List<scalar> 
20
(
-1.91638e-05
-5.11585e-05
-7.68205e-05
-9.61497e-05
-0.000109146
-0.00011581
-0.000116141
-0.000110139
-9.78043e-05
-7.9137e-05
-5.4137e-05
-2.28043e-05
1.48612e-05
5.88593e-05
0.00010919
0.000165854
0.00022885
0.00029818
0.000373841
0.000455836
)
;
    }
    frontAndBack
    {
        type            empty;
        value           nonuniform 0();
    }
}


// ************************************************************************* //
