/*--------------------------------*- C++ -*----------------------------------*\
| =========                 |                                                 |
| \\      /  F ield         | OpenFOAM: The Open Source CFD Toolbox           |
|  \\    /   O peration     | Version:  4.1                                   |
|   \\  /    A nd           | Web:      www.OpenFOAM.org                      |
|    \\/     M anipulation  |                                                 |
\*---------------------------------------------------------------------------*/
FoamFile
{
    version     2.0;
    format      ascii;
    class       volVectorField;
    location    "1.5";
    object      U;
}
// * * * * * * * * * * * * * * * * * * * * * * * * * * * * * * * * * * * * * //

dimensions      [0 1 -1 0 0 0 0];

internalField   nonuniform List<vector> 
400
(
(-0.383276 1.11021e-10 0)
(-0.383276 2.22152e-10 0)
(-0.383276 6.45279e-11 0)
(-0.383276 -2.33685e-10 0)
(-0.383276 -3.40917e-10 0)
(-0.383276 -4.61326e-10 0)
(-0.383276 -5.27503e-10 0)
(-0.383276 -5.86226e-10 0)
(-0.383276 -6.12785e-10 0)
(-0.383276 -6.45777e-10 0)
(-0.383276 -6.3268e-10 0)
(-0.383276 -6.43795e-10 0)
(-0.383276 -5.92396e-10 0)
(-0.383276 -5.84194e-10 0)
(-0.383276 -5.02239e-10 0)
(-0.383276 -4.97691e-10 0)
(-0.383276 -3.46137e-10 0)
(-0.383276 -4.02204e-10 0)
(-0.383276 -4.02978e-10 0)
(-0.383276 3.61538e-11 0)
(-1.02317 1.2871e-09 0)
(-1.02317 2.43093e-09 0)
(-1.02317 2.91283e-09 0)
(-1.02317 1.44091e-09 0)
(-1.02317 2.49646e-09 0)
(-1.02317 1.31787e-09 0)
(-1.02317 2.71576e-09 0)
(-1.02317 1.27348e-09 0)
(-1.02317 2.88414e-09 0)
(-1.02317 1.17912e-09 0)
(-1.02317 2.76544e-09 0)
(-1.02317 1.01484e-09 0)
(-1.02317 2.39533e-09 0)
(-1.02317 8.35749e-10 0)
(-1.02317 1.81958e-09 0)
(-1.02317 5.19581e-10 0)
(-1.02317 1.317e-09 0)
(-1.02317 -1.08999e-11 0)
(-1.02317 -1.12543e-10 0)
(-1.02317 1.26872e-09 0)
(-1.53641 2.28705e-09 0)
(-1.53641 3.52405e-09 0)
(-1.53641 2.7495e-09 0)
(-1.53641 -1.3806e-09 0)
(-1.53641 -3.53587e-10 0)
(-1.53641 -3.23645e-09 0)
(-1.53641 -1.14334e-09 0)
(-1.53641 -4.02725e-09 0)
(-1.53641 -1.32988e-09 0)
(-1.53641 -4.26855e-09 0)
(-1.53641 -1.39149e-09 0)
(-1.53641 -4.05463e-09 0)
(-1.53641 -1.36347e-09 0)
(-1.53641 -3.42153e-09 0)
(-1.53641 -1.25251e-09 0)
(-1.53641 -2.69313e-09 0)
(-1.53641 -7.184e-10 0)
(-1.53641 -2.54486e-09 0)
(-1.53641 -1.22004e-09 0)
(-1.53641 2.37826e-09 0)
(-1.92299 4.7734e-09 0)
(-1.92299 6.88335e-09 0)
(-1.92299 5.21826e-09 0)
(-1.92299 -1.72316e-09 0)
(-1.92299 1.90754e-10 0)
(-1.92299 -4.65416e-09 0)
(-1.92299 -8.76549e-10 0)
(-1.92299 -5.75275e-09 0)
(-1.92299 -1.04771e-09 0)
(-1.92299 -6.01081e-09 0)
(-1.92299 -1.12157e-09 0)
(-1.92299 -5.61101e-09 0)
(-1.92299 -1.16235e-09 0)
(-1.92299 -4.6256e-09 0)
(-1.92299 -1.14708e-09 0)
(-1.92299 -3.54342e-09 0)
(-1.92299 -5.018e-10 0)
(-1.92299 -3.71846e-09 0)
(-1.92299 -6.81363e-10 0)
(-1.92299 4.98004e-09 0)
(-2.18292 7.90231e-09 0)
(-2.18292 1.09607e-08 0)
(-2.18292 7.20688e-09 0)
(-2.18292 -2.32778e-09 0)
(-2.18292 -4.11336e-10 0)
(-2.18292 -6.58493e-09 0)
(-2.18292 -2.12882e-09 0)
(-2.18292 -8.08511e-09 0)
(-2.18292 -2.48382e-09 0)
(-2.18292 -8.39883e-09 0)
(-2.18292 -2.58009e-09 0)
(-2.18292 -7.80302e-09 0)
(-2.18292 -2.53186e-09 0)
(-2.18292 -6.43048e-09 0)
(-2.18292 -2.30958e-09 0)
(-2.18292 -4.9072e-09 0)
(-2.18292 -1.15365e-09 0)
(-2.18292 -5.38114e-09 0)
(-2.18292 1.58768e-10 0)
(-2.18292 7.94153e-09 0)
(-2.31619 1.16974e-08 0)
(-2.31619 1.58085e-08 0)
(-2.31619 9.49561e-09 0)
(-2.31619 -2.28236e-09 0)
(-2.31619 -5.67505e-10 0)
(-2.31619 -7.6142e-09 0)
(-2.31619 -2.84559e-09 0)
(-2.31619 -9.36412e-09 0)
(-2.31619 -3.36416e-09 0)
(-2.31619 -9.68942e-09 0)
(-2.31619 -3.5084e-09 0)
(-2.31619 -8.95558e-09 0)
(-2.31619 -3.43558e-09 0)
(-2.31619 -7.33867e-09 0)
(-2.3162 -3.09306e-09 0)
(-2.31619 -5.59717e-09 0)
(-2.3162 -1.5432e-09 0)
(-2.3162 -6.61915e-09 0)
(-2.31619 1.81811e-09 0)
(-2.3162 1.15025e-08 0)
(-2.32281 1.57778e-08 0)
(-2.32281 2.08792e-08 0)
(-2.32281 1.1609e-08 0)
(-2.32281 -1.92085e-09 0)
(-2.32281 -7.27471e-10 0)
(-2.32281 -8.12779e-09 0)
(-2.32281 -3.54138e-09 0)
(-2.32281 -1.0016e-08 0)
(-2.32281 -4.24173e-09 0)
(-2.32281 -1.03095e-08 0)
(-2.32281 -4.44575e-09 0)
(-2.32281 -9.4695e-09 0)
(-2.32281 -4.35001e-09 0)
(-2.32281 -7.70892e-09 0)
(-2.32281 -3.87438e-09 0)
(-2.32281 -5.88353e-09 0)
(-2.32281 -1.94301e-09 0)
(-2.32281 -7.53026e-09 0)
(-2.32281 4.01895e-09 0)
(-2.32281 1.53172e-08 0)
(-2.20278 1.97563e-08 0)
(-2.20278 2.56621e-08 0)
(-2.20278 1.32997e-08 0)
(-2.20278 -1.40303e-09 0)
(-2.20278 -9.96396e-10 0)
(-2.20278 -8.24307e-09 0)
(-2.20278 -4.29935e-09 0)
(-2.20278 -1.01654e-08 0)
(-2.20278 -5.19129e-09 0)
(-2.20278 -1.0392e-08 0)
(-2.20278 -5.45561e-09 0)
(-2.20278 -9.47105e-09 0)
(-2.20278 -5.32302e-09 0)
(-2.20278 -7.64654e-09 0)
(-2.20278 -4.68559e-09 0)
(-2.20278 -5.83851e-09 0)
(-2.20278 -2.38368e-09 0)
(-2.20278 -8.11073e-09 0)
(-2.20278 6.50725e-09 0)
(-2.20278 1.90435e-08 0)
(-1.95609 2.32408e-08 0)
(-1.95609 2.96671e-08 0)
(-1.95609 1.44236e-08 0)
(-1.95609 -8.55177e-10 0)
(-1.95609 -1.38393e-09 0)
(-1.95609 -8.07468e-09 0)
(-1.95609 -5.09057e-09 0)
(-1.95609 -9.9415e-09 0)
(-1.95609 -6.1644e-09 0)
(-1.95609 -1.00724e-08 0)
(-1.95609 -6.4797e-09 0)
(-1.95609 -9.09074e-09 0)
(-1.95609 -6.29398e-09 0)
(-1.95609 -7.26823e-09 0)
(-1.95609 -5.4752e-09 0)
(-1.95609 -5.54176e-09 0)
(-1.95609 -2.83805e-09 0)
(-1.95609 -8.3694e-09 0)
(-1.95609 8.98748e-09 0)
(-1.95609 2.23159e-08 0)
(-1.58274 2.58671e-08 0)
(-1.58274 3.24735e-08 0)
(-1.58274 1.48762e-08 0)
(-1.58274 -3.60702e-10 0)
(-1.58274 -1.88183e-09 0)
(-1.58274 -7.6873e-09 0)
(-1.58274 -5.87562e-09 0)
(-1.58274 -9.42322e-09 0)
(-1.58274 -7.10466e-09 0)
(-1.58274 -9.44417e-09 0)
(-1.58274 -7.45397e-09 0)
(-1.58274 -8.4248e-09 0)
(-1.58274 -7.19828e-09 0)
(-1.58274 -6.66131e-09 0)
(-1.58274 -6.19012e-09 0)
(-1.58274 -5.05831e-09 0)
(-1.58274 -3.2751e-09 0)
(-1.58274 -8.33177e-09 0)
(-1.58274 1.11534e-08 0)
(-1.58274 2.4775e-08 0)
(-1.08274 2.73375e-08 0)
(-1.08274 3.37568e-08 0)
(-1.08274 1.46087e-08 0)
(-1.08274 2.05731e-11 0)
(-1.08274 -2.4519e-09 0)
(-1.08274 -7.13597e-09 0)
(-1.08274 -6.58861e-09 0)
(-1.08274 -8.68227e-09 0)
(-1.08274 -7.92911e-09 0)
(-1.08274 -8.5918e-09 0)
(-1.08274 -8.28989e-09 0)
(-1.08274 -7.56131e-09 0)
(-1.08274 -7.95114e-09 0)
(-1.08274 -5.90612e-09 0)
(-1.08274 -6.76334e-09 0)
(-1.08274 -4.45034e-09 0)
(-1.08274 -3.65185e-09 0)
(-1.08274 -8.02693e-09 0)
(-1.08274 1.27329e-08 0)
(-1.08274 2.61189e-08 0)
(-0.456086 2.74545e-08 0)
(-0.456086 3.33216e-08 0)
(-0.456086 1.36173e-08 0)
(-0.456086 2.49822e-10 0)
(-0.456086 -3.04389e-09 0)
(-0.456086 -6.47011e-09 0)
(-0.456086 -7.16133e-09 0)
(-0.456086 -7.78685e-09 0)
(-0.456086 -8.55614e-09 0)
(-0.456086 -7.59668e-09 0)
(-0.456086 -8.90278e-09 0)
(-0.456086 -6.58522e-09 0)
(-0.456086 -8.47419e-09 0)
(-0.456086 -5.07913e-09 0)
(-0.456086 -7.13517e-09 0)
(-0.456086 -3.77971e-09 0)
(-0.456086 -3.92898e-09 0)
(-0.456086 -7.48605e-09 0)
(-0.456086 1.35229e-08 0)
(-0.456086 2.61423e-08 0)
(0.297223 2.61509e-08 0)
(0.297223 3.11336e-08 0)
(0.297223 1.19558e-08 0)
(0.297223 3.05915e-10 0)
(0.297223 -3.59718e-09 0)
(0.297223 -5.73602e-09 0)
(0.297223 -7.52691e-09 0)
(0.297223 -6.80321e-09 0)
(0.297223 -8.9106e-09 0)
(0.297223 -6.53645e-09 0)
(0.297223 -9.21809e-09 0)
(0.297223 -5.57599e-09 0)
(0.297223 -8.70185e-09 0)
(0.297223 -4.24918e-09 0)
(0.297223 -7.25773e-09 0)
(0.297223 -3.10418e-09 0)
(0.297223 -4.07444e-09 0)
(0.297223 -6.74022e-09 0)
(0.297223 1.3418e-08 0)
(0.297223 2.47707e-08 0)
(1.17719 2.3509e-08 0)
(1.17719 2.73455e-08 0)
(1.17719 9.74854e-09 0)
(1.17719 2.02439e-10 0)
(1.17719 -4.03166e-09 0)
(1.17719 -4.96017e-09 0)
(1.17719 -7.6109e-09 0)
(1.17719 -5.77554e-09 0)
(1.17719 -8.91678e-09 0)
(1.17719 -5.46267e-09 0)
(1.17719 -9.16686e-09 0)
(1.17719 -4.58537e-09 0)
(1.17719 -8.57881e-09 0)
(1.17719 -3.45835e-09 0)
(1.17719 -7.09335e-09 0)
(1.17719 -2.46199e-09 0)
(1.17719 -4.06092e-09 0)
(1.17719 -5.81703e-09 0)
(1.17719 1.24263e-08 0)
(1.17719 2.20827e-08 0)
(2.1838 1.97501e-08 0)
(2.1838 2.22945e-08 0)
(2.1838 7.19613e-09 0)
(2.1838 -3.20604e-11 0)
(2.1838 -4.26057e-09 0)
(2.1838 -4.17658e-09 0)
(2.1838 -7.33737e-09 0)
(2.18381 -4.75649e-09 0)
(2.1838 -8.49434e-09 0)
(2.18381 -4.43195e-09 0)
(2.1838 -8.66658e-09 0)
(2.18381 -3.66611e-09 0)
(2.1838 -8.03623e-09 0)
(2.18381 -2.74586e-09 0)
(2.18381 -6.59213e-09 0)
(2.18381 -1.88857e-09 0)
(2.18381 -3.85136e-09 0)
(2.18381 -4.75792e-09 0)
(2.1838 1.06808e-08 0)
(2.18381 1.83196e-08 0)
(3.31708 1.52453e-08 0)
(3.31708 1.65112e-08 0)
(3.31708 4.58579e-09 0)
(3.31708 -2.88225e-10 0)
(3.31708 -4.16055e-09 0)
(3.31708 -3.33767e-09 0)
(3.31708 -6.6103e-09 0)
(3.31708 -3.70161e-09 0)
(3.31708 -7.55415e-09 0)
(3.31708 -3.39506e-09 0)
(3.31708 -7.64511e-09 0)
(3.31708 -2.76553e-09 0)
(3.31708 -7.02176e-09 0)
(3.31708 -2.05836e-09 0)
(3.31708 -5.71534e-09 0)
(3.31708 -1.3482e-09 0)
(3.31708 -3.40505e-09 0)
(3.31708 -3.58622e-09 0)
(3.31708 8.4141e-09 0)
(3.31708 1.38744e-08 0)
(4.57701 1.05892e-08 0)
(4.57701 1.08354e-08 0)
(4.57701 2.50522e-09 0)
(4.57701 -1.09561e-10 0)
(4.57701 -3.28573e-09 0)
(4.57701 -1.95994e-09 0)
(4.57701 -4.94782e-09 0)
(4.57701 -2.06998e-09 0)
(4.57701 -5.5936e-09 0)
(4.57701 -1.79313e-09 0)
(4.57701 -5.60754e-09 0)
(4.57701 -1.356e-09 0)
(4.57701 -5.10293e-09 0)
(4.57701 -9.44639e-10 0)
(4.57701 -4.11967e-09 0)
(4.57701 -5.08431e-10 0)
(4.57701 -2.48172e-09 0)
(4.57701 -2.17492e-09 0)
(4.57701 6.03652e-09 0)
(4.57701 9.2974e-09 0)
(5.96359 5.63812e-09 0)
(5.96359 5.1226e-09 0)
(5.96359 9.21068e-11 0)
(5.96359 -1.07112e-09 0)
(5.96359 -3.35068e-09 0)
(5.96359 -2.2512e-09 0)
(5.96359 -4.45845e-09 0)
(5.96359 -2.37138e-09 0)
(5.96359 -4.86049e-09 0)
(5.96359 -2.1755e-09 0)
(5.96359 -4.7534e-09 0)
(5.96359 -1.79503e-09 0)
(5.96359 -4.22506e-09 0)
(5.96359 -1.37011e-09 0)
(5.96359 -3.33967e-09 0)
(5.96359 -8.34801e-10 0)
(5.96359 -2.06484e-09 0)
(5.96359 -1.50307e-09 0)
(5.96359 3.42427e-09 0)
(5.96359 4.99683e-09 0)
(7.47683 2.76927e-09 0)
(7.47683 2.57138e-09 0)
(7.47683 7.59665e-10 0)
(7.47683 1.43091e-09 0)
(7.47683 3.0011e-10 0)
(7.47683 1.7547e-09 0)
(7.47683 3.92959e-10 0)
(7.47683 2.18703e-09 0)
(7.47683 5.03192e-10 0)
(7.47683 2.40698e-09 0)
(7.47683 5.89807e-10 0)
(7.47683 2.39203e-09 0)
(7.47683 6.38874e-10 0)
(7.47683 2.10175e-09 0)
(7.47683 6.5943e-10 0)
(7.47683 1.73141e-09 0)
(7.47683 6.18254e-10 0)
(7.47683 7.32362e-10 0)
(7.47683 2.46144e-09 0)
(7.47683 2.16298e-09 0)
(9.11672 1.30345e-10 0)
(9.11672 -7.94547e-11 0)
(9.11672 -5.94461e-10 0)
(9.11672 -6.04373e-10 0)
(9.11672 -8.57967e-10 0)
(9.11672 -7.66834e-10 0)
(9.11672 -9.3577e-10 0)
(9.11672 -8.08532e-10 0)
(9.11672 -9.20042e-10 0)
(9.11672 -7.73676e-10 0)
(9.11672 -8.22138e-10 0)
(9.11672 -6.74178e-10 0)
(9.11672 -6.61144e-10 0)
(9.11672 -5.30035e-10 0)
(9.11672 -4.63481e-10 0)
(9.11672 -3.37758e-10 0)
(9.11672 -2.39559e-10 0)
(9.11672 -2.34125e-10 0)
(9.11672 4.12043e-10 0)
(9.11672 3.62952e-10 0)
)
;

boundaryField
{
    top
    {
        type            fixedValue;
        value           uniform (10 0 0);
    }
    bottom
    {
        type            fixedValue;
        value           uniform (0 0 0);
    }
    inlet
    {
        type            zeroGradient;
    }
    outlet
    {
        type            zeroGradient;
    }
    frontAndBack
    {
        type            empty;
    }
}


// ************************************************************************* //
