/*--------------------------------*- C++ -*----------------------------------*\
| =========                 |                                                 |
| \\      /  F ield         | OpenFOAM: The Open Source CFD Toolbox           |
|  \\    /   O peration     | Version:  4.1                                   |
|   \\  /    A nd           | Web:      www.OpenFOAM.org                      |
|    \\/     M anipulation  |                                                 |
\*---------------------------------------------------------------------------*/
FoamFile
{
    version     2.0;
    format      ascii;
    class       volScalarField;
    location    "0.2";
    object      p;
}
// * * * * * * * * * * * * * * * * * * * * * * * * * * * * * * * * * * * * * //

dimensions      [0 2 -2 0 0 0 0];

internalField   nonuniform List<scalar> 
400
(
-5.80775e-06
-2.36523e-06
-8.05798e-08
-1.60192e-06
-2.80622e-07
-1.23852e-06
-3.89873e-07
-9.55244e-07
-4.31126e-07
-7.30434e-07
-4.22848e-07
-5.48028e-07
-3.80455e-07
-3.95615e-07
-3.22028e-07
-2.75942e-07
-3.13949e-07
-3.49116e-07
-8.99079e-07
-8.79548e-07
-5.77674e-06
-2.3415e-06
-8.74879e-08
-1.60225e-06
-2.80883e-07
-1.23838e-06
-3.89968e-07
-9.55176e-07
-4.31169e-07
-7.30407e-07
-4.22862e-07
-5.4802e-07
-3.8045e-07
-3.95608e-07
-3.2198e-07
-2.75779e-07
-3.13401e-07
-3.45398e-07
-8.84565e-07
-8.68296e-07
-5.75426e-06
-2.32009e-06
-9.21346e-08
-1.60367e-06
-2.80409e-07
-1.23884e-06
-3.89603e-07
-9.55462e-07
-4.30947e-07
-7.30575e-07
-4.22738e-07
-5.48106e-07
-3.80389e-07
-3.95633e-07
-3.21947e-07
-2.75645e-07
-3.12841e-07
-3.41385e-07
-8.71014e-07
-8.584e-07
-5.73771e-06
-2.30236e-06
-9.47817e-08
-1.60535e-06
-2.7987e-07
-1.23935e-06
-3.89195e-07
-9.55778e-07
-4.30703e-07
-7.30758e-07
-4.22604e-07
-5.48197e-07
-3.80326e-07
-3.95662e-07
-3.21933e-07
-2.75545e-07
-3.12176e-07
-3.37124e-07
-8.58937e-07
-8.50016e-07
-5.72422e-06
-2.28739e-06
-9.62227e-08
-1.60699e-06
-2.79476e-07
-1.23974e-06
-3.88874e-07
-9.56024e-07
-4.30512e-07
-7.30902e-07
-4.22499e-07
-5.48269e-07
-3.80277e-07
-3.95688e-07
-3.21936e-07
-2.7548e-07
-3.11429e-07
-3.32666e-07
-8.47787e-07
-8.42492e-07
-5.71255e-06
-2.27409e-06
-9.6805e-08
-1.60863e-06
-2.792e-07
-1.24005e-06
-3.88621e-07
-9.56216e-07
-4.30362e-07
-7.31014e-07
-4.22416e-07
-5.48325e-07
-3.80238e-07
-3.95711e-07
-3.21952e-07
-2.75445e-07
-3.10599e-07
-3.27942e-07
-8.37127e-07
-8.35464e-07
-5.70263e-06
-2.26236e-06
-9.665e-08
-1.61026e-06
-2.79012e-07
-1.2403e-06
-3.88418e-07
-9.56369e-07
-4.30243e-07
-7.31104e-07
-4.22351e-07
-5.48369e-07
-3.80207e-07
-3.95732e-07
-3.21984e-07
-2.75442e-07
-3.09716e-07
-3.23048e-07
-8.26995e-07
-8.2891e-07
-5.69426e-06
-2.25208e-06
-9.5913e-08
-1.61186e-06
-2.7891e-07
-1.24049e-06
-3.88264e-07
-9.56482e-07
-4.30154e-07
-7.3117e-07
-4.22303e-07
-5.48401e-07
-3.80185e-07
-3.95752e-07
-3.22029e-07
-2.75472e-07
-3.08803e-07
-3.18089e-07
-8.17391e-07
-8.22769e-07
-5.68712e-06
-2.24313e-06
-9.47804e-08
-1.61336e-06
-2.78899e-07
-1.24061e-06
-3.8816e-07
-9.56555e-07
-4.30096e-07
-7.31213e-07
-4.22271e-07
-5.48422e-07
-3.80171e-07
-3.9577e-07
-3.22085e-07
-2.75532e-07
-3.07883e-07
-3.13161e-07
-8.08263e-07
-8.16937e-07
-5.68091e-06
-2.23535e-06
-9.34444e-08
-1.61473e-06
-2.78979e-07
-1.24067e-06
-3.88107e-07
-9.56588e-07
-4.30069e-07
-7.31233e-07
-4.22257e-07
-5.48431e-07
-3.80165e-07
-3.95786e-07
-3.22152e-07
-2.75618e-07
-3.06979e-07
-3.08355e-07
-7.99529e-07
-8.11301e-07
-5.67537e-06
-2.22864e-06
-9.20904e-08
-1.61591e-06
-2.79151e-07
-1.24067e-06
-3.88106e-07
-9.56581e-07
-4.30073e-07
-7.3123e-07
-4.2226e-07
-5.48428e-07
-3.80168e-07
-3.95799e-07
-3.22227e-07
-2.75727e-07
-3.06112e-07
-3.0375e-07
-7.91095e-07
-8.05749e-07
-5.67026e-06
-2.22292e-06
-9.08897e-08
-1.61688e-06
-2.79413e-07
-1.24062e-06
-3.88155e-07
-9.56535e-07
-4.30108e-07
-7.31203e-07
-4.2228e-07
-5.48413e-07
-3.80179e-07
-3.9581e-07
-3.22308e-07
-2.75853e-07
-3.05304e-07
-2.99407e-07
-7.82851e-07
-8.00176e-07
-5.66542e-06
-2.21813e-06
-8.99885e-08
-1.6176e-06
-2.79762e-07
-1.2405e-06
-3.88257e-07
-9.56448e-07
-4.30173e-07
-7.31153e-07
-4.22317e-07
-5.48386e-07
-3.80198e-07
-3.95816e-07
-3.22393e-07
-2.7599e-07
-3.04576e-07
-2.95361e-07
-7.74673e-07
-7.94482e-07
-5.66071e-06
-2.21425e-06
-8.94937e-08
-1.61806e-06
-2.80195e-07
-1.24031e-06
-3.88409e-07
-9.56322e-07
-4.3027e-07
-7.3108e-07
-4.22371e-07
-5.48348e-07
-3.80225e-07
-3.9582e-07
-3.22479e-07
-2.76133e-07
-3.03949e-07
-2.9162e-07
-7.66426e-07
-7.88581e-07
-5.65609e-06
-2.21128e-06
-8.94578e-08
-1.61826e-06
-2.80702e-07
-1.24007e-06
-3.88611e-07
-9.56158e-07
-4.30396e-07
-7.30984e-07
-4.22442e-07
-5.48299e-07
-3.80261e-07
-3.95819e-07
-3.22565e-07
-2.76275e-07
-3.03438e-07
-2.88163e-07
-7.57976e-07
-7.82403e-07
-5.65153e-06
-2.20922e-06
-8.98644e-08
-1.61822e-06
-2.81278e-07
-1.23977e-06
-3.88864e-07
-9.55955e-07
-4.30552e-07
-7.30866e-07
-4.22529e-07
-5.48239e-07
-3.80304e-07
-3.95815e-07
-3.22648e-07
-2.7641e-07
-3.03054e-07
-2.84944e-07
-7.49209e-07
-7.75906e-07
-5.64702e-06
-2.20814e-06
-9.06318e-08
-1.61793e-06
-2.81943e-07
-1.23938e-06
-3.89185e-07
-9.557e-07
-4.30748e-07
-7.30718e-07
-4.22638e-07
-5.48164e-07
-3.80357e-07
-3.95804e-07
-3.22726e-07
-2.76534e-07
-3.028e-07
-2.81886e-07
-7.39992e-07
-7.69035e-07
-5.64331e-06
-2.20868e-06
-9.14904e-08
-1.61737e-06
-2.82721e-07
-1.23888e-06
-3.89591e-07
-9.55379e-07
-4.30994e-07
-7.30533e-07
-4.22774e-07
-5.4807e-07
-3.80423e-07
-3.95787e-07
-3.22799e-07
-2.76648e-07
-3.02681e-07
-2.78787e-07
-7.29912e-07
-7.6156e-07
-5.6419e-06
-2.21084e-06
-9.2077e-08
-1.61686e-06
-2.83386e-07
-1.23844e-06
-3.8995e-07
-9.55096e-07
-4.31214e-07
-7.30366e-07
-4.22897e-07
-5.47985e-07
-3.80484e-07
-3.95772e-07
-3.22863e-07
-2.76743e-07
-3.02743e-07
-2.75547e-07
-7.18617e-07
-7.53299e-07
-5.64746e-06
-2.21481e-06
-9.13837e-08
-1.61727e-06
-2.8327e-07
-1.23859e-06
-3.89843e-07
-9.55171e-07
-4.31163e-07
-7.30398e-07
-4.22879e-07
-5.47996e-07
-3.80487e-07
-3.95787e-07
-3.2292e-07
-2.76816e-07
-3.03004e-07
-2.72357e-07
-7.07353e-07
-7.45437e-07
)
;

boundaryField
{
    top
    {
        type            zeroGradient;
    }
    bottom
    {
        type            zeroGradient;
    }
    inlet
    {
        type            fixedValue;
        value           uniform 0;
    }
    outlet
    {
        type            fixedValue;
        value           uniform 0;
    }
    frontAndBack
    {
        type            empty;
    }
}


// ************************************************************************* //
