/*--------------------------------*- C++ -*----------------------------------*\
| =========                 |                                                 |
| \\      /  F ield         | OpenFOAM: The Open Source CFD Toolbox           |
|  \\    /   O peration     | Version:  4.1                                   |
|   \\  /    A nd           | Web:      www.OpenFOAM.org                      |
|    \\/     M anipulation  |                                                 |
\*---------------------------------------------------------------------------*/
FoamFile
{
    version     2.0;
    format      ascii;
    class       surfaceScalarField;
    location    "0.2";
    object      phi;
}
// * * * * * * * * * * * * * * * * * * * * * * * * * * * * * * * * * * * * * //

dimensions      [0 3 -1 0 0 0 0];

internalField   nonuniform List<scalar> 
760
(
8.86506e-07
1.15695e-11
8.86502e-07
4.58585e-12
8.86505e-07
-2.95074e-12
8.86504e-07
8.6332e-13
8.86505e-07
-7.76852e-13
8.86504e-07
6.01468e-13
8.86504e-07
-4.69157e-13
8.86504e-07
3.59668e-13
8.86504e-07
-2.70107e-13
8.86504e-07
1.97788e-13
8.86504e-07
-1.39837e-13
8.86504e-07
9.39342e-14
8.86504e-07
-5.69449e-14
8.86504e-07
2.87955e-14
8.86504e-07
2.8528e-16
8.86504e-07
-1.53772e-15
8.86504e-07
5.2856e-14
8.86504e-07
4.55727e-13
8.86501e-07
3.24212e-12
3.02989e-12
2.66833e-06
3.44736e-11
2.66831e-06
1.71328e-11
2.66832e-06
-8.86088e-12
2.66832e-06
1.70068e-12
2.66832e-06
-1.6938e-12
2.66832e-06
1.28802e-12
2.66832e-06
-1.00277e-12
2.66832e-06
7.66507e-13
2.66832e-06
-5.73561e-13
2.66832e-06
4.18527e-13
2.66832e-06
-2.94556e-13
2.66832e-06
1.97146e-13
2.66832e-06
-1.17496e-13
2.66832e-06
6.08917e-14
2.66832e-06
1.20584e-14
2.66832e-06
3.11e-14
2.66832e-06
1.75434e-13
2.66832e-06
1.96797e-12
2.66831e-06
1.18732e-11
1.04565e-11
4.47636e-06
6.16402e-11
4.47635e-06
3.45091e-11
4.47635e-06
-1.61848e-11
4.47635e-06
1.96795e-12
4.47635e-06
-2.29702e-12
4.47635e-06
1.70593e-12
4.47635e-06
-1.32533e-12
4.47635e-06
1.00997e-12
4.47635e-06
-7.52979e-13
4.47635e-06
5.47499e-13
4.47635e-06
-3.83664e-13
4.47635e-06
2.55651e-13
4.47635e-06
-1.50282e-13
4.47635e-06
7.80158e-14
4.47635e-06
2.62038e-14
4.47635e-06
7.426e-14
4.47635e-06
2.63828e-13
4.47635e-06
4.25267e-12
4.47634e-06
2.44272e-11
2.09044e-11
6.32743e-06
8.90746e-11
6.32741e-06
5.34893e-11
6.32741e-06
-2.38754e-11
6.32741e-06
1.7601e-12
6.32741e-06
-2.61619e-12
6.32741e-06
1.88671e-12
6.32741e-06
-1.46293e-12
6.32741e-06
1.11152e-12
6.32741e-06
-8.25807e-13
6.32741e-06
5.9843e-13
6.32741e-06
-4.177e-13
6.32741e-06
2.7699e-13
6.32741e-06
-1.61037e-13
6.32741e-06
8.23744e-14
6.32741e-06
3.66213e-14
6.32741e-06
1.12636e-13
6.32741e-06
2.86603e-13
6.32741e-06
7.02284e-12
6.3274e-06
3.94271e-11
3.31792e-11
8.23732e-06
1.13559e-10
8.2373e-06
7.15602e-11
8.23731e-06
-3.09368e-11
8.23731e-06
1.18871e-12
8.23731e-06
-2.68156e-12
8.23731e-06
1.86307e-12
8.23731e-06
-1.44232e-12
8.23731e-06
1.09278e-12
8.23731e-06
-8.09177e-13
8.23731e-06
5.84512e-13
8.23731e-06
-4.06454e-13
8.23731e-06
2.68151e-13
8.23731e-06
-1.54329e-13
8.23731e-06
7.70506e-14
8.23731e-06
4.27407e-14
8.23731e-06
1.46656e-13
8.23731e-06
2.54459e-13
8.23731e-06
1.00739e-11
8.23729e-06
5.54484e-11
4.60845e-11
1.02205e-05
1.32545e-10
1.02205e-05
8.6686e-11
1.02205e-05
-3.65643e-11
1.02205e-05
3.6703e-13
1.02205e-05
-2.52526e-12
1.02205e-05
1.66906e-12
1.02205e-05
-1.29081e-12
1.02205e-05
9.75357e-13
1.02205e-05
-7.19841e-13
1.02205e-05
5.18349e-13
1.02205e-05
-3.59059e-13
1.02205e-05
2.35484e-13
1.02205e-05
-1.34136e-13
1.02205e-05
6.46074e-14
1.02205e-05
4.44796e-14
1.02205e-05
1.76167e-13
1.02205e-05
1.76955e-13
1.02205e-05
1.3196e-11
1.02205e-05
7.10578e-11
5.84186e-11
1.22897e-05
1.44226e-10
1.22897e-05
9.73608e-11
1.22897e-05
-4.01707e-11
1.22897e-05
-5.94531e-13
1.22897e-05
-2.18177e-12
1.22897e-05
1.33965e-12
1.22897e-05
-1.03588e-12
1.22897e-05
7.80571e-13
1.22897e-05
-5.73996e-13
1.22897e-05
4.11894e-13
1.22897e-05
-2.84007e-13
1.22897e-05
1.84768e-13
1.22897e-05
-1.03941e-13
1.22897e-05
4.71755e-14
1.22897e-05
4.21585e-14
1.22897e-05
2.00539e-13
1.22897e-05
6.3695e-14
1.22897e-05
1.61747e-11
1.22896e-05
8.49029e-11
6.90642e-11
1.44555e-05
1.47595e-10
1.44555e-05
1.02648e-10
1.44555e-05
-4.14085e-11
1.44555e-05
-1.59357e-12
1.44555e-05
-1.68817e-12
1.44555e-05
9.1021e-13
1.44555e-05
-7.0487e-13
1.44555e-05
5.29266e-13
1.44555e-05
-3.87188e-13
1.44555e-05
2.76436e-13
1.44555e-05
-1.89195e-13
1.44555e-05
1.2129e-13
1.44555e-05
-6.68226e-14
1.44555e-05
2.65401e-14
1.44555e-05
3.64144e-14
1.44555e-05
2.18832e-13
1.44555e-05
-7.47676e-14
1.44555e-05
1.87934e-11
1.44555e-05
9.57971e-11
7.70726e-11
1.67265e-05
1.42471e-10
1.67265e-05
1.02197e-10
1.67265e-05
-4.01837e-11
1.67265e-05
-2.54055e-12
1.67265e-05
-1.08438e-12
1.67265e-05
4.16139e-13
1.67265e-05
-3.24759e-13
1.67265e-05
2.41726e-13
1.67265e-05
-1.7433e-13
1.67265e-05
1.22666e-13
1.67265e-05
-8.20164e-14
1.67265e-05
4.99379e-14
1.67265e-05
-2.55526e-14
1.67265e-05
4.2221e-15
1.67265e-05
2.81147e-14
1.67265e-05
2.29977e-13
1.67265e-05
-2.2645e-13
1.67265e-05
2.08404e-11
1.67265e-05
1.02797e-10
8.17335e-11
1.91084e-05
1.29486e-10
1.91084e-05
9.62359e-11
1.91084e-05
-3.66584e-11
1.91084e-05
-3.36272e-12
1.91084e-05
-4.13236e-13
1.91084e-05
-1.07403e-13
1.91084e-05
7.78712e-14
1.91084e-05
-6.22777e-14
1.91084e-05
5.02017e-14
1.91084e-05
-3.91979e-14
1.91084e-05
3.05231e-14
1.91084e-05
-2.46952e-14
1.91084e-05
1.73215e-14
1.91084e-05
-1.84499e-14
1.91084e-05
1.82763e-14
1.91084e-05
2.32998e-13
1.91084e-05
-3.77946e-13
1.91084e-05
2.21216e-11
1.91084e-05
1.05268e-10
8.2629e-11
2.16045e-05
1.10033e-10
2.16045e-05
8.55268e-11
2.16045e-05
-3.12361e-11
2.16045e-05
-4.00672e-12
2.16045e-05
2.79664e-13
2.16045e-05
-6.25682e-13
2.16045e-05
4.76835e-13
2.16045e-05
-3.63384e-13
2.16045e-05
2.72413e-13
2.16045e-05
-1.99263e-13
2.16045e-05
1.41672e-13
2.16045e-05
-9.82108e-14
2.16045e-05
5.93948e-14
2.16045e-05
-4.02765e-14
2.16045e-05
7.99023e-15
2.16045e-05
2.27229e-13
2.16045e-05
-5.14977e-13
2.16045e-05
2.24778e-11
2.16045e-05
1.02937e-10
7.96681e-11
2.42151e-05
8.61521e-11
2.42151e-05
7.12925e-11
2.42151e-05
-2.45279e-11
2.42151e-05
-4.43901e-12
2.42151e-05
9.46293e-13
2.42151e-05
-1.10449e-12
2.42151e-05
8.46271e-13
2.42151e-05
-6.42482e-13
2.42151e-05
4.78507e-13
2.42151e-05
-3.47783e-13
2.42151e-05
2.4479e-13
2.42151e-05
-1.663e-13
2.42151e-05
9.83284e-14
2.42151e-05
-6.01278e-14
2.42151e-05
-1.65115e-15
2.42151e-05
2.12545e-13
2.42151e-05
-6.23445e-13
2.42151e-05
2.18073e-11
2.42151e-05
9.59268e-11
7.30982e-11
2.69378e-05
6.03597e-11
2.69378e-05
5.51008e-11
2.69378e-05
-1.72938e-11
2.69378e-05
-4.64411e-12
2.69378e-05
1.53689e-12
2.69378e-05
-1.5102e-12
2.69378e-05
1.16054e-12
2.69378e-05
-8.8054e-13
2.69378e-05
6.54687e-13
2.69378e-05
-4.74984e-13
2.69378e-05
3.33208e-13
2.69378e-05
-2.24636e-13
2.69378e-05
1.3177e-13
2.69378e-05
-7.68794e-14
2.69378e-05
-9.62732e-15
2.69378e-05
1.89572e-13
2.69378e-05
-6.90887e-13
2.69378e-05
2.00895e-11
2.69378e-05
8.47719e-11
6.34938e-11
2.97673e-05
3.54172e-11
2.97673e-05
3.87109e-11
2.97673e-05
-1.03578e-11
2.97673e-05
-4.62012e-12
2.97673e-05
2.00093e-12
2.97673e-05
-1.80976e-12
2.97673e-05
1.39416e-12
2.97673e-05
-1.05845e-12
2.97673e-05
7.86967e-13
2.97673e-05
-5.70882e-13
2.97673e-05
4.00072e-13
2.97673e-05
-2.68758e-13
2.97673e-05
1.57265e-13
2.97673e-05
-8.93384e-14
2.97673e-05
-1.50662e-14
2.97673e-05
1.59844e-13
2.97673e-05
-7.08075e-13
2.97673e-05
1.7408e-11
2.97673e-05
7.04033e-11
5.17193e-11
3.26957e-05
1.40314e-11
3.26957e-05
2.38792e-11
3.26957e-05
-4.49784e-12
3.26957e-05
-4.37198e-12
3.26957e-05
2.28839e-12
3.26957e-05
-1.97077e-12
3.26957e-05
1.52176e-12
3.26957e-05
-1.15689e-12
3.26957e-05
8.61018e-13
3.26957e-05
-6.25123e-13
3.26957e-05
4.38204e-13
3.26957e-05
-2.93953e-13
3.26957e-05
1.72152e-13
3.26957e-05
-9.61543e-14
3.26957e-05
-1.73247e-14
3.26957e-05
1.25899e-13
3.26957e-05
-6.70433e-13
3.26957e-05
1.39691e-11
3.26958e-05
5.41094e-11
3.88689e-11
3.57126e-05
-1.50729e-12
3.57126e-05
1.21195e-11
3.57126e-05
-3.14974e-13
3.57126e-05
-3.90304e-12
3.57126e-05
2.35106e-12
3.57126e-05
-1.96146e-12
3.57126e-05
1.51813e-12
3.57126e-05
-1.15633e-12
3.57126e-05
8.62066e-13
3.57126e-05
-6.26862e-13
3.57126e-05
4.39963e-13
3.57126e-05
-2.95122e-13
3.57126e-05
1.7345e-13
3.57126e-05
-9.57119e-14
3.57126e-05
-1.60711e-14
3.57126e-05
9.12543e-14
3.57126e-05
-5.78811e-13
3.57126e-05
1.011e-11
3.57126e-05
3.74633e-11
2.61854e-11
3.88051e-05
-9.74325e-12
3.88051e-05
4.41049e-12
3.88051e-05
1.90008e-12
3.88051e-05
-3.20604e-12
3.88051e-05
2.14399e-12
3.88051e-05
-1.75085e-12
3.88051e-05
1.35837e-12
3.88051e-05
-1.03702e-12
3.88051e-05
7.74879e-13
3.88051e-05
-5.64684e-13
3.88051e-05
3.97144e-13
3.88051e-05
-2.66658e-13
3.88051e-05
1.57726e-13
3.88051e-05
-8.60112e-14
3.88051e-05
-1.13637e-14
3.88051e-05
6.02503e-14
3.88051e-05
-4.39096e-13
3.88051e-05
6.29097e-12
3.88051e-05
2.22142e-11
1.496e-11
4.19586e-05
-1.05267e-11
4.19586e-05
8.19722e-13
4.19586e-05
2.26951e-12
4.19586e-05
-2.25526e-12
4.19586e-05
1.62648e-12
4.19586e-05
-1.30885e-12
4.19586e-05
1.0181e-12
4.19586e-05
-7.79189e-13
4.19586e-05
5.83816e-13
4.19586e-05
-4.26579e-13
4.19586e-05
3.00884e-13
4.19586e-05
-2.02324e-13
4.19586e-05
1.20964e-13
4.19586e-05
-6.45374e-14
4.19586e-05
-3.71602e-15
4.19586e-05
3.77288e-14
4.19586e-05
-2.60181e-13
4.19586e-05
3.06611e-12
4.19586e-05
1.01398e-11
6.41634e-12
4.51569e-05
-5.37583e-12
4.51569e-05
4.3998e-14
4.51569e-05
1.23617e-12
4.51569e-05
-1.00328e-12
4.51569e-05
7.61302e-13
4.51569e-05
-6.06488e-13
4.51569e-05
4.73128e-13
4.51569e-05
-3.62945e-13
4.51569e-05
2.72746e-13
4.51569e-05
-1.99864e-13
4.51569e-05
1.41473e-13
4.51569e-05
-9.52688e-14
4.51569e-05
5.78531e-14
4.51569e-05
-2.96584e-14
4.51569e-05
2.03555e-15
4.51569e-05
1.91628e-14
4.51569e-05
-8.16038e-14
4.51569e-05
8.80004e-13
4.51569e-05
2.56682e-12
1.41466e-12
4.83826e-05
4.83826e-05
4.83826e-05
4.83826e-05
4.83826e-05
4.83826e-05
4.83826e-05
4.83826e-05
4.83826e-05
4.83826e-05
4.83826e-05
4.83826e-05
4.83826e-05
4.83826e-05
4.83826e-05
4.83826e-05
4.83826e-05
4.83826e-05
4.83826e-05
)
;

boundaryField
{
    top
    {
        type            calculated;
        value           uniform 0;
    }
    bottom
    {
        type            calculated;
        value           uniform 0;
    }
    inlet
    {
        type            calculated;
        value           nonuniform List<scalar> 
20
(
-8.86518e-07
-2.66835e-06
-4.47639e-06
-6.32745e-06
-8.23735e-06
-1.02205e-05
-1.22897e-05
-1.44555e-05
-1.67265e-05
-1.91084e-05
-2.16045e-05
-2.42151e-05
-2.69378e-05
-2.97673e-05
-3.26957e-05
-3.57125e-05
-3.88051e-05
-4.19586e-05
-4.51569e-05
-4.83826e-05
)
;
    }
    outlet
    {
        type            calculated;
        value           nonuniform List<scalar> 
20
(
8.86497e-07
2.6683e-06
4.47633e-06
6.32738e-06
8.23728e-06
1.02205e-05
1.22896e-05
1.44555e-05
1.67265e-05
1.91084e-05
2.16045e-05
2.42151e-05
2.69378e-05
2.97674e-05
3.26958e-05
3.57126e-05
3.88051e-05
4.19587e-05
4.5157e-05
4.83826e-05
)
;
    }
    frontAndBack
    {
        type            empty;
        value           nonuniform 0();
    }
}


// ************************************************************************* //
