/*--------------------------------*- C++ -*----------------------------------*\
| =========                 |                                                 |
| \\      /  F ield         | OpenFOAM: The Open Source CFD Toolbox           |
|  \\    /   O peration     | Version:  4.1                                   |
|   \\  /    A nd           | Web:      www.OpenFOAM.org                      |
|    \\/     M anipulation  |                                                 |
\*---------------------------------------------------------------------------*/
FoamFile
{
    version     2.0;
    format      ascii;
    class       volVectorField;
    location    "0.2";
    object      U;
}
// * * * * * * * * * * * * * * * * * * * * * * * * * * * * * * * * * * * * * //

dimensions      [0 1 -1 0 0 0 0];

internalField   nonuniform List<vector> 
400
(
(0.0177303 5.46009e-09 0)
(0.01773 2.04954e-09 0)
(0.0177301 -1.29359e-09 0)
(0.0177301 4.6006e-10 0)
(0.0177301 -4.03014e-10 0)
(0.0177301 3.13557e-10 0)
(0.0177301 -2.44701e-10 0)
(0.0177301 1.87864e-10 0)
(0.0177301 -1.41219e-10 0)
(0.0177301 1.03547e-10 0)
(0.0177301 -7.32778e-11 0)
(0.0177301 4.93857e-11 0)
(0.0177301 -2.98042e-11 0)
(0.0177301 1.57195e-11 0)
(0.0177301 1.02431e-12 0)
(0.0177301 3.3504e-12 0)
(0.0177301 5.13391e-11 0)
(0.0177301 2.23188e-10 0)
(0.0177301 1.3396e-09 0)
(0.01773 1.26228e-09 0)
(0.0533669 2.12795e-08 0)
(0.0533663 9.34328e-09 0)
(0.0533663 -5.45642e-09 0)
(0.0533665 1.3687e-09 0)
(0.0533664 -1.26079e-09 0)
(0.0533664 9.7084e-10 0)
(0.0533664 -7.56762e-10 0)
(0.0533664 5.7933e-10 0)
(0.0533664 -4.34375e-10 0)
(0.0533664 3.17548e-10 0)
(0.0533664 -2.24021e-10 0)
(0.0533664 1.50202e-10 0)
(0.0533664 -9.03597e-11 0)
(0.0533664 4.62812e-11 0)
(0.0533664 4.62049e-12 0)
(0.0533664 8.06749e-12 0)
(0.0533664 9.67473e-11 0)
(0.0533664 9.5711e-10 0)
(0.0533663 6.45844e-09 0)
(0.0533661 5.89227e-09 0)
(0.0895277 4.73452e-08 0)
(0.0895269 2.50909e-08 0)
(0.089527 -1.22326e-08 0)
(0.0895272 1.92816e-09 0)
(0.089527 -2.04319e-09 0)
(0.0895271 1.53862e-09 0)
(0.0895271 -1.19664e-09 0)
(0.0895271 9.13455e-10 0)
(0.0895271 -6.82342e-10 0)
(0.0895271 4.9709e-10 0)
(0.0895271 -3.4912e-10 0)
(0.0895271 2.33257e-10 0)
(0.0895271 -1.37953e-10 0)
(0.0895271 7.20694e-11 0)
(0.0895271 1.99025e-11 0)
(0.0895271 5.47546e-11 0)
(0.0895271 2.4256e-10 0)
(0.0895271 2.98459e-09 0)
(0.089527 1.73522e-08 0)
(0.0895266 1.50405e-08 0)
(0.126549 7.55736e-08 0)
(0.126548 4.38132e-08 0)
(0.126548 -2.00371e-08 0)
(0.126548 1.97157e-09 0)
(0.126548 -2.52436e-09 0)
(0.126548 1.85229e-09 0)
(0.126548 -1.43762e-09 0)
(0.126548 1.09398e-09 0)
(0.126548 -8.14248e-10 0)
(0.126548 5.91079e-10 0)
(0.126548 -4.13408e-10 0)
(0.126548 2.74849e-10 0)
(0.126548 -1.60693e-10 0)
(0.126548 8.29777e-11 0)
(0.126548 3.22283e-11 0)
(0.126548 9.38872e-11 0)
(0.126548 2.88005e-10 0)
(0.126548 5.52708e-09 0)
(0.126548 3.14333e-08 0)
(0.126548 2.66866e-08 0)
(0.164747 1.02418e-07 0)
(0.164746 6.30287e-08 0)
(0.164746 -2.76699e-08 0)
(0.164746 1.55298e-09 0)
(0.164746 -2.71156e-09 0)
(0.164746 1.92432e-09 0)
(0.164746 -1.49071e-09 0)
(0.164746 1.131e-09 0)
(0.164746 -8.38842e-10 0)
(0.164746 6.0688e-10 0)
(0.164746 -4.22787e-10 0)
(0.164746 2.79671e-10 0)
(0.164746 -1.61745e-10 0)
(0.164746 8.19071e-11 0)
(0.164746 4.07938e-11 0)
(0.164746 1.30903e-10 0)
(0.164746 2.8512e-10 0)
(0.164746 8.5099e-09 0)
(0.164746 4.73665e-08 0)
(0.164746 3.96264e-08 0)
(0.20441 1.24693e-07 0)
(0.20441 8.00778e-08 0)
(0.204409 -3.41886e-08 0)
(0.20441 8.24382e-10 0)
(0.20441 -2.65517e-09 0)
(0.20441 1.8048e-09 0)
(0.20441 -1.39617e-09 0)
(0.20441 1.0563e-09 0)
(0.20441 -7.80807e-10 0)
(0.20441 5.63089e-10 0)
(0.20441 -3.90786e-10 0)
(0.20441 2.57084e-10 0)
(0.20441 -1.47175e-10 0)
(0.20441 7.2332e-11 0)
(0.20441 4.4648e-11 0)
(0.20441 1.62637e-10 0)
(0.20441 2.2744e-10 0)
(0.20441 1.16501e-08 0)
(0.20441 6.35349e-08 0)
(0.204409 5.254e-08 0)
(0.245793 1.40371e-07 0)
(0.245793 9.32819e-08 0)
(0.245793 -3.89206e-08 0)
(0.245793 -9.5404e-11 0)
(0.245793 -2.39558e-09 0)
(0.245793 1.53368e-09 0)
(0.245793 -1.18563e-09 0)
(0.245793 8.94572e-10 0)
(0.245793 -6.58989e-10 0)
(0.245793 4.73692e-10 0)
(0.245793 -3.27389e-10 0)
(0.245793 2.13928e-10 0)
(0.245793 -1.21118e-10 0)
(0.245793 5.68766e-11 0)
(0.245793 4.41899e-11 0)
(0.245793 1.89666e-10 0)
(0.245793 1.29488e-10 0)
(0.245793 1.47547e-08 0)
(0.245793 7.85807e-08 0)
(0.245793 6.42894e-08 0)
(0.289111 1.48043e-07 0)
(0.289111 1.01422e-07 0)
(0.28911 -4.13974e-08 0)
(0.289111 -1.09987e-09 0)
(0.289111 -1.96753e-09 0)
(0.289111 1.14549e-09 0)
(0.289111 -8.85936e-10 0)
(0.289111 6.66445e-10 0)
(0.289111 -4.88905e-10 0)
(0.289111 3.50027e-10 0)
(0.289111 -2.40577e-10 0)
(0.289111 1.55581e-10 0)
(0.289111 -8.67458e-11 0)
(0.289111 3.74332e-11 0)
(0.289111 3.9939e-11 0)
(0.289111 2.11157e-10 0)
(0.289111 7.18293e-13 0)
(0.289111 1.7607e-08 0)
(0.289111 9.12185e-08 0)
(0.28911 7.38262e-08 0)
(0.33453 1.47109e-07 0)
(0.33453 1.03856e-07 0)
(0.33453 -4.13954e-08 0)
(0.33453 -2.09317e-09 0)
(0.33453 -1.40863e-09 0)
(0.33453 6.74959e-10 0)
(0.33453 -5.23735e-10 0)
(0.33453 3.92065e-10 0)
(0.33453 -2.85452e-10 0)
(0.33453 2.02832e-10 0)
(0.33453 -1.37806e-10 0)
(0.33453 8.69975e-11 0)
(0.33453 -4.68983e-11 0)
(0.33453 1.56049e-11 0)
(0.33453 3.26642e-11 0)
(0.33453 2.26079e-10 0)
(0.33453 -1.47517e-10 0)
(0.33453 1.99911e-08 0)
(0.33453 1.00366e-07 0)
(0.33453 8.03047e-08 0)
(0.382168 1.37799e-07 0)
(0.382169 1.00525e-07 0)
(0.382168 -3.89488e-08 0)
(0.382169 -2.99332e-09 0)
(0.382169 -7.60152e-10 0)
(0.382169 1.57385e-10 0)
(0.382169 -1.2577e-10 0)
(0.382169 9.14086e-11 0)
(0.382169 -6.32197e-11 0)
(0.382169 4.25104e-11 0)
(0.382169 -2.62347e-11 0)
(0.382169 1.28868e-11 0)
(0.382169 -4.21151e-12 0)
(0.382169 -7.20379e-12 0)
(0.382169 2.33177e-11 0)
(0.382169 2.33325e-10 0)
(0.382169 -3.02599e-10 0)
(0.382169 2.16997e-08 0)
(0.382169 1.05216e-07 0)
(0.382169 8.31483e-08 0)
(0.43209 1.21145e-07 0)
(0.432091 9.19372e-08 0)
(0.43209 -3.43465e-08 0)
(0.432091 -3.73675e-09 0)
(0.43209 -6.64517e-11 0)
(0.43209 -3.72187e-10 0)
(0.43209 2.81541e-10 0)
(0.43209 -2.15956e-10 0)
(0.43209 1.63621e-10 0)
(0.43209 -1.20903e-10 0)
(0.43209 8.72779e-11 0)
(0.43209 -6.22721e-11 0)
(0.43209 3.88517e-11 0)
(0.43209 -2.97415e-11 0)
(0.43209 1.29721e-11 0)
(0.43209 2.32019e-10 0)
(0.43209 -4.50525e-10 0)
(0.43209 2.25511e-08 0)
(0.43209 1.05306e-07 0)
(0.43209 8.20965e-08 0)
(0.484302 9.8899e-08 0)
(0.484303 7.91104e-08 0)
(0.484302 -2.81074e-08 0)
(0.484303 -4.28012e-09 0)
(0.484302 6.25483e-10 0)
(0.484303 -8.79231e-10 0)
(0.484302 6.72167e-10 0)
(0.484303 -5.10814e-10 0)
(0.484302 3.8121e-10 0)
(0.484303 -2.77624e-10 0)
(0.484302 1.96065e-10 0)
(0.484303 -1.34146e-10 0)
(0.484303 7.99356e-11 0)
(0.484303 -5.08572e-11 0)
(0.484303 2.73712e-12 0)
(0.484303 2.21716e-10 0)
(0.484303 -5.76774e-10 0)
(0.484303 2.24091e-08 0)
(0.484303 1.00552e-07 0)
(0.484303 7.72274e-08 0)
(0.538756 7.33901e-08 0)
(0.538757 6.34722e-08 0)
(0.538756 -2.0935e-08 0)
(0.538756 -4.59964e-09 0)
(0.538756 1.26648e-09 0)
(0.538756 -1.32976e-09 0)
(0.538756 1.02034e-09 0)
(0.538756 -7.74099e-10 0)
(0.538756 5.7577e-10 0)
(0.538756 -4.17916e-10 0)
(0.538756 2.93495e-10 0)
(0.538756 -1.98437e-10 0)
(0.538756 1.1671e-10 0)
(0.538756 -6.94381e-11 0)
(0.538756 -6.31235e-12 0)
(0.538756 2.0262e-10 0)
(0.538756 -6.67673e-10 0)
(0.538756 2.12065e-08 0)
(0.538756 9.12845e-08 0)
(0.538757 6.89581e-08 0)
(0.595346 4.73219e-08 0)
(0.595347 4.6728e-08 0)
(0.595346 -1.36459e-08 0)
(0.595347 -4.68824e-09 0)
(0.595346 1.80621e-09 0)
(0.595347 -1.69048e-09 0)
(0.595347 1.30055e-09 0)
(0.595347 -9.86808e-10 0)
(0.595347 7.33478e-10 0)
(0.595347 -5.31959e-10 0)
(0.595347 3.72853e-10 0)
(0.595347 -2.50786e-10 0)
(0.595347 1.46797e-10 0)
(0.595347 -8.43512e-11 0)
(0.595347 -1.32218e-11 0)
(0.595347 1.75758e-10 0)
(0.595347 -7.12016e-10 0)
(0.595347 1.89699e-08 0)
(0.595347 7.82426e-08 0)
(0.595347 5.8021e-08 0)
(0.653914 2.35109e-08 0)
(0.653915 3.06941e-08 0)
(0.653914 -7.07175e-09 0)
(0.653915 -4.55067e-09 0)
(0.653915 2.19499e-09 0)
(0.653915 -1.92938e-09 0)
(0.653915 1.48792e-09 0)
(0.653915 -1.13018e-09 0)
(0.653915 8.40526e-10 0)
(0.653915 -6.09851e-10 0)
(0.653915 4.2732e-10 0)
(0.653915 -2.86746e-10 0)
(0.653915 1.67732e-10 0)
(0.653915 -9.43759e-11 0)
(0.653915 -1.7197e-11 0)
(0.653915 1.4321e-10 0)
(0.653915 -7.02754e-10 0)
(0.653915 1.58403e-08 0)
(0.653915 6.25495e-08 0)
(0.653915 4.54123e-08 0)
(0.714251 4.54756e-09 0)
(0.714252 1.70724e-08 0)
(0.714251 -1.93412e-09 0)
(0.714251 -4.19468e-09 0)
(0.714251 2.38428e-09 0)
(0.714251 -2.01509e-09 0)
(0.714251 1.55774e-09 0)
(0.714251 -1.18524e-09 0)
(0.714251 8.82729e-10 0)
(0.714251 -6.4128e-10 0)
(0.714251 4.49704e-10 0)
(0.714251 -3.0157e-10 0)
(0.714251 1.76802e-10 0)
(0.714251 -9.81059e-11 0)
(0.714251 -1.77525e-11 0)
(0.714251 1.07974e-10 0)
(0.714251 -6.37742e-10 0)
(0.714251 1.20882e-08 0)
(0.714251 4.56526e-08 0)
(0.714252 3.23187e-08 0)
(0.776101 -7.46848e-09 0)
(0.776102 7.24846e-09 0)
(0.776102 1.27055e-09 0)
(0.776102 -3.61202e-09 0)
(0.776102 2.32079e-09 0)
(0.776102 -1.91076e-09 0)
(0.776102 1.48073e-09 0)
(0.776102 -1.12914e-09 0)
(0.776102 8.42715e-10 0)
(0.776102 -6.13413e-10 0)
(0.776102 4.30914e-10 0)
(0.776102 -2.8913e-10 0)
(0.776102 1.70402e-10 0)
(0.776102 -9.34042e-11 0)
(0.776102 -1.43275e-11 0)
(0.776102 7.47354e-11 0)
(0.776102 -5.19202e-10 0)
(0.776102 8.1066e-09 0)
(0.776102 2.92216e-08 0)
(0.776102 2.00231e-08 0)
(0.839172 -1.18285e-08 0)
(0.839173 1.57206e-09 0)
(0.839173 2.48432e-09 0)
(0.839173 -2.76068e-09 0)
(0.839173 1.93899e-09 0)
(0.839173 -1.56963e-09 0)
(0.839173 1.21926e-09 0)
(0.839173 -9.32062e-10 0)
(0.839173 6.97421e-10 0)
(0.839173 -5.08923e-10 0)
(0.839173 3.58413e-10 0)
(0.839173 -2.40858e-10 0)
(0.839173 1.43032e-10 0)
(0.839173 -7.76608e-11 0)
(0.839173 -8.82949e-12 0)
(0.839173 4.45561e-11 0)
(0.839173 -3.53338e-10 0)
(0.839173 4.46248e-09 0)
(0.839173 1.51626e-08 0)
(0.839173 9.87392e-09 0)
(0.903139 -8.63928e-09 0)
(0.903139 8.8929e-11 0)
(0.903139 1.92865e-09 0)
(0.903139 -1.64196e-09 0)
(0.903139 1.23024e-09 0)
(0.903139 -9.81454e-10 0)
(0.903139 7.64801e-10 0)
(0.903139 -5.86141e-10 0)
(0.903139 4.39839e-10 0)
(0.903139 -3.21846e-10 0)
(0.903139 2.27406e-10 0)
(0.903139 -1.5298e-10 0)
(0.903139 9.22346e-11 0)
(0.903139 -4.788e-11 0)
(0.903139 1.48908e-12 0)
(0.903139 3.05482e-11 0)
(0.903139 -1.64799e-10 0)
(0.903139 1.69398e-09 0)
(0.903139 5.27307e-09 0)
(0.903139 3.1061e-09 0)
(0.967652 -3.40742e-09 0)
(0.967652 -4.63298e-10 0)
(0.967652 7.54132e-10 0)
(0.967652 -5.0913e-10 0)
(0.967652 3.95863e-10 0)
(0.967652 -3.15597e-10 0)
(0.967652 2.46107e-10 0)
(0.967652 -1.88983e-10 0)
(0.967652 1.42148e-10 0)
(0.967652 -1.04273e-10 0)
(0.967652 7.38514e-11 0)
(0.967652 -4.98559e-11 0)
(0.967652 3.0081e-11 0)
(0.967652 -1.62558e-11 0)
(0.967652 -6.87789e-13 0)
(0.967652 4.24591e-12 0)
(0.967652 -4.24332e-11 0)
(0.967652 3.28386e-10 0)
(0.967652 7.97965e-10 0)
(0.967652 3.28355e-10 0)
)
;

boundaryField
{
    top
    {
        type            fixedValue;
        value           uniform (1 0 0);
    }
    bottom
    {
        type            fixedValue;
        value           uniform (0 0 0);
    }
    inlet
    {
        type            zeroGradient;
    }
    outlet
    {
        type            zeroGradient;
    }
    frontAndBack
    {
        type            empty;
    }
}


// ************************************************************************* //
