/*--------------------------------*- C++ -*----------------------------------*\
| =========                 |                                                 |
| \\      /  F ield         | OpenFOAM: The Open Source CFD Toolbox           |
|  \\    /   O peration     | Version:  4.1                                   |
|   \\  /    A nd           | Web:      www.OpenFOAM.org                      |
|    \\/     M anipulation  |                                                 |
\*---------------------------------------------------------------------------*/
FoamFile
{
    version     2.0;
    format      ascii;
    class       surfaceScalarField;
    location    "1.8";
    object      phi;
}
// * * * * * * * * * * * * * * * * * * * * * * * * * * * * * * * * * * * * * //

dimensions      [0 3 -1 0 0 0 0];

internalField   nonuniform List<scalar> 
760
(
3.16637e-05
-2.31423e-12
3.16637e-05
-6.21188e-13
3.16638e-05
-9.34284e-13
3.16638e-05
6.937e-13
3.16638e-05
-9.3723e-13
3.16637e-05
1.12751e-12
3.16638e-05
-1.13417e-12
3.16637e-05
1.28739e-12
3.16638e-05
-1.18448e-12
3.16637e-05
1.29626e-12
3.16638e-05
-1.12375e-12
3.16637e-05
1.14826e-12
3.16638e-05
-9.91076e-13
3.16637e-05
8.35147e-13
3.16638e-05
-8.92488e-13
3.16637e-05
2.39759e-13
3.16637e-05
-8.69498e-13
3.16637e-05
-4.91237e-13
3.16638e-05
-1.81953e-12
-2.1827e-12
8.86584e-05
-6.31052e-12
8.86584e-05
-3.20756e-12
8.86584e-05
-2.17441e-12
8.86584e-05
7.92714e-13
8.86584e-05
-1.69954e-12
8.86584e-05
1.50334e-12
8.86584e-05
-2.1435e-12
8.86584e-05
1.47046e-12
8.86584e-05
-2.5421e-12
8.86584e-05
1.03136e-12
8.86584e-05
-2.98238e-12
8.86584e-05
1.36582e-13
8.86584e-05
-3.54834e-12
8.86584e-05
-1.20192e-12
8.86584e-05
-4.29173e-12
8.86584e-05
-3.00638e-12
8.86584e-05
-5.07483e-12
8.86584e-05
-4.28456e-12
8.86584e-05
-7.53472e-12
-6.73339e-12
0.00013932
-1.0453e-11
0.00013932
-6.67899e-12
0.00013932
-3.46156e-12
0.00013932
5.22487e-13
0.00013932
-2.1127e-12
0.00013932
1.44751e-12
0.00013932
-2.67948e-12
0.00013932
1.13279e-12
0.00013932
-3.39935e-12
0.00013932
1.94847e-13
0.00013932
-4.40674e-12
0.00013932
-1.4781e-12
0.00013932
-5.84611e-12
0.00013932
-3.89547e-12
0.00013932
-7.71064e-12
0.00013932
-7.01959e-12
0.00013932
-9.81065e-12
0.00013932
-8.93243e-12
0.00013932
-1.46952e-11
-1.19937e-11
0.000183649
-1.39517e-11
0.000183649
-9.90708e-12
0.000183649
-4.66154e-12
0.000183649
1.92261e-13
0.000183649
-2.32928e-12
0.000183649
1.35161e-12
0.000183649
-2.91518e-12
0.000183649
8.16419e-13
0.000183649
-3.84474e-12
0.000183649
-5.06361e-13
0.000183649
-5.29841e-12
0.000183649
-2.8026e-12
0.000183649
-7.50193e-12
0.000183649
-6.16399e-12
0.000183649
-1.04613e-11
0.000183649
-1.06306e-11
0.000183649
-1.41452e-11
0.000183649
-1.35283e-11
0.000183649
-2.20995e-11
-1.72978e-11
0.000221646
-1.6219e-11
0.000221646
-1.20832e-11
0.000221646
-5.54661e-12
0.000221646
-1.14177e-13
0.000221646
-2.38017e-12
0.000221646
1.23153e-12
0.000221646
-2.91921e-12
0.000221646
5.24943e-13
0.000221646
-3.96604e-12
0.000221646
-1.08082e-12
0.000221646
-5.75326e-12
0.000221646
-3.85437e-12
0.000221646
-8.59621e-12
0.000221646
-8.00869e-12
0.000221646
-1.25593e-11
0.000221646
-1.37558e-11
0.000221646
-1.79081e-11
0.000221646
-1.78692e-11
0.000221646
-2.88905e-11
-2.18251e-11
0.000253309
-1.69098e-11
0.000253309
-1.27201e-11
0.000253309
-5.92229e-12
0.000253309
-3.40707e-13
0.000253309
-2.28453e-12
0.000253309
1.07113e-12
0.000253309
-2.75337e-12
0.000253309
2.19977e-13
0.000253309
-3.85765e-12
0.000253309
-1.59599e-12
0.000253309
-5.89706e-12
0.000253309
-4.7321e-12
0.000253309
-9.27385e-12
0.000253309
-9.54071e-12
0.000253309
-1.41285e-11
0.000253309
-1.64487e-11
0.000253309
-2.10707e-11
0.000253309
-2.18851e-11
0.000253309
-3.452e-11
-2.50554e-11
0.00027864
-1.59183e-11
0.00027864
-1.16223e-11
0.00027864
-5.68601e-12
0.00027864
-4.38873e-13
0.00027864
-2.07082e-12
0.00027864
8.72581e-13
0.00027864
-2.47948e-12
0.00027864
-1.1093e-13
0.00027864
-3.60484e-12
0.00027864
-2.08498e-12
0.00027864
-5.83358e-12
0.00027864
-5.49028e-12
0.00027864
-9.64325e-12
0.00027864
-1.08166e-11
0.00027864
-1.52465e-11
0.00027864
-1.87074e-11
0.00027864
-2.3567e-11
0.00027864
-2.54488e-11
0.00027864
-3.85887e-11
-2.66648e-11
0.000297639
-1.33737e-11
0.000297639
-8.89574e-12
0.000297639
-4.8437e-12
0.000297639
-3.87642e-13
0.000297639
-1.7713e-12
0.000297639
6.43616e-13
0.000297639
-2.1491e-12
0.000297639
-4.68354e-13
0.000297639
-3.27376e-12
0.000297639
-2.56188e-12
0.000297639
-5.63807e-12
0.000297639
-6.15596e-12
0.000297639
-9.7765e-12
0.000297639
-1.18585e-11
0.000297639
-1.59549e-11
0.000297639
-2.04989e-11
0.000297639
-2.53209e-11
0.000297639
-2.84007e-11
0.000297639
-4.0869e-11
-2.65486e-11
0.000310304
-9.59693e-12
0.000310304
-4.89731e-12
0.000310304
-3.51326e-12
0.000310304
-1.99461e-13
0.000310304
-1.42477e-12
0.000310304
3.94451e-13
0.000310304
-1.80591e-12
0.000310304
-8.45289e-13
0.000310304
-2.91678e-12
0.000310304
-3.02936e-12
0.000310304
-5.36708e-12
0.000310304
-6.74117e-12
0.000310304
-9.72544e-12
0.000310304
-1.26733e-11
0.000310304
-1.62815e-11
0.000310304
-2.17861e-11
0.000310304
-2.62793e-11
0.000310304
-3.05793e-11
0.000310304
-4.12981e-11
-2.48062e-11
0.000316637
-5.05685e-12
0.000316637
-1.761e-13
0.000316637
-1.90139e-12
0.000316637
8.18649e-14
0.000316637
-1.07378e-12
0.000316637
1.35872e-13
0.000316637
-1.48448e-12
0.000316637
-1.2291e-12
0.000316637
-2.57218e-12
0.000316637
-3.48033e-12
0.000316637
-5.05957e-12
0.000316637
-7.24461e-12
0.000316637
-9.5242e-12
0.000316637
-1.32555e-11
0.000316637
-1.62446e-11
0.000316637
-2.25321e-11
0.000316637
-2.64191e-11
0.000316637
-3.18348e-11
0.000316637
-3.99597e-11
-2.17075e-11
0.000316637
-3.07027e-13
0.000316637
4.61334e-12
0.000316637
-2.63796e-13
0.000316637
3.91798e-13
0.000316637
-7.5958e-13
0.000316637
-1.21319e-13
0.000316637
-1.20922e-12
0.000316637
-1.60269e-12
0.000316637
-2.26447e-12
0.000316637
-3.89881e-12
0.000316637
-4.73872e-12
0.000316637
-7.65258e-12
0.000316637
-9.19244e-12
0.000316637
-1.35893e-11
0.000316637
-1.58572e-11
0.000316637
-2.27046e-11
0.000316637
-2.57514e-11
0.000316637
-3.20483e-11
0.000316637
-3.70604e-11
-1.76467e-11
0.000310304
4.07932e-12
0.000310304
8.80441e-12
0.000310304
1.14535e-12
0.000310304
6.60857e-13
0.000310304
-5.15129e-13
0.000310304
-3.66065e-13
0.000310304
-9.93192e-13
0.000310304
-1.94482e-12
0.000310304
-2.0044e-12
0.000310304
-4.25992e-12
0.000310304
-4.41281e-12
0.000310304
-7.93875e-12
0.000310304
-8.73686e-12
0.000310304
-1.3649e-11
0.000310304
-1.51283e-11
0.000310304
-2.22789e-11
0.000310304
-2.432e-11
0.000310304
-3.11494e-11
0.000310304
-3.29067e-11
-1.30923e-11
0.000297639
7.57647e-12
0.000297639
1.18138e-11
0.000297639
2.12381e-12
0.000297639
8.31273e-13
0.000297639
-3.58383e-13
0.000297639
-5.86433e-13
0.000297639
-8.37269e-13
0.000297639
-2.23024e-12
0.000297639
-1.78907e-12
0.000297639
-4.52983e-12
0.000297639
-4.076e-12
0.000297639
-8.06379e-12
0.000297639
-8.15215e-12
0.000297639
-1.33981e-11
0.000297639
-1.40642e-11
0.000297639
-2.12393e-11
0.000297639
-2.21967e-11
0.000297639
-2.91307e-11
0.000297639
-2.78788e-11
-8.53331e-12
0.00027864
9.77664e-12
0.00027864
1.32346e-11
0.00027864
2.56097e-12
0.00027864
8.70481e-13
0.00027864
-2.87632e-13
0.00027864
-7.68482e-13
0.00027864
-7.29706e-13
0.00027864
-2.42986e-12
0.00027864
-1.60217e-12
0.00027864
-4.66547e-12
0.00027864
-3.70851e-12
0.00027864
-7.97486e-12
0.00027864
-7.42092e-12
0.00027864
-1.27892e-11
0.00027864
-1.26674e-11
0.00027864
-1.95792e-11
0.00027864
-1.9474e-11
0.00027864
-2.60564e-11
0.00027864
-2.23951e-11
-4.42209e-12
0.000253309
1.04436e-11
0.000253309
1.29043e-11
0.000253309
2.46082e-12
0.000253309
7.77254e-13
0.000253309
-2.8056e-13
0.000253309
-8.96514e-13
0.000253309
-6.47216e-13
0.000253309
-2.51194e-12
0.000253309
-1.41553e-12
0.000253309
-4.61677e-12
0.000253309
-3.27874e-12
0.000253309
-7.60875e-12
0.000253309
-6.51617e-12
0.000253309
-1.17668e-11
0.000253309
-1.09391e-11
0.000253309
-1.73044e-11
0.000253309
-1.62607e-11
0.000253309
-2.2068e-11
0.000253309
-1.68775e-11
-1.12508e-12
0.000221646
9.57416e-12
0.000221646
1.09633e-11
0.000221646
1.93954e-12
0.000221646
5.82385e-13
0.000221646
-2.96752e-13
0.000221646
-9.50283e-13
0.000221646
-5.55328e-13
0.000221646
-2.43746e-12
0.000221646
-1.18713e-12
0.000221646
-4.31995e-12
0.000221646
-2.73716e-12
0.000221646
-6.88151e-12
0.000221646
-5.38932e-12
0.000221646
-1.02518e-11
0.000221646
-8.861e-12
0.000221646
-1.44083e-11
0.000221646
-1.26525e-11
0.000221646
-1.73576e-11
0.000221646
-1.16785e-11
1.14347e-12
0.000183649
7.40992e-12
0.000183649
7.85758e-12
0.000183649
1.20513e-12
0.000183649
3.40713e-13
0.000183649
-2.79396e-13
0.000183649
-9.07341e-13
0.000183649
-4.02549e-13
0.000183649
-2.16319e-12
0.000183649
-8.50399e-13
0.000183649
-3.70027e-12
0.000183649
-2.0005e-12
0.000183649
-5.6885e-12
0.000183649
-3.94902e-12
0.000183649
-8.13549e-12
0.000183649
-6.36852e-12
0.000183649
-1.08585e-11
0.000183649
-8.69877e-12
0.000183649
-1.21338e-11
0.000183649
-7.02287e-12
2.35514e-12
0.00013932
4.47239e-12
0.00013932
4.33438e-12
0.00013932
5.06449e-13
0.00013932
1.17066e-13
0.00013932
-1.87757e-13
0.00013932
-7.48693e-13
0.00013932
-1.7214e-13
0.00013932
-1.65912e-12
0.00013932
-3.96388e-13
0.00013932
-2.71702e-12
0.00013932
-1.07362e-12
0.00013932
-3.99259e-12
0.00013932
-2.2311e-12
0.00013932
-5.42281e-12
0.00013932
-3.56845e-12
0.00013932
-6.77688e-12
0.00013932
-4.63383e-12
0.00013932
-6.78264e-12
0.00013932
-3.10832e-12
2.61701e-12
8.86584e-05
1.50228e-12
8.86584e-05
1.37615e-12
8.86584e-05
9.83731e-14
8.86584e-05
-1.64502e-14
8.86585e-05
2.48974e-14
8.86584e-05
-4.53422e-13
8.86585e-05
1.84891e-13
8.86584e-05
-8.94288e-13
8.86585e-05
2.45198e-13
8.86584e-05
-1.31747e-12
8.86585e-05
1.35272e-13
8.86584e-05
-1.71818e-12
8.86585e-05
-1.31072e-13
8.86585e-05
-2.03445e-12
8.86585e-05
-3.7786e-13
8.86585e-05
-2.14851e-12
8.86585e-05
-4.44751e-13
8.86585e-05
-1.50417e-12
8.86585e-05
2.9261e-13
2.3285e-12
3.16637e-05
3.16637e-05
3.16638e-05
3.16638e-05
3.16638e-05
3.16637e-05
3.16638e-05
3.16637e-05
3.16638e-05
3.16638e-05
3.16638e-05
3.16638e-05
3.16638e-05
3.16638e-05
3.16638e-05
3.16638e-05
3.16638e-05
3.16638e-05
3.16638e-05
)
;

boundaryField
{
    top
    {
        type            calculated;
        value           uniform 0;
    }
    bottom
    {
        type            calculated;
        value           uniform 0;
    }
    inlet
    {
        type            calculated;
        value           nonuniform List<scalar> 
20
(
-3.16637e-05
-8.86584e-05
-0.00013932
-0.000183649
-0.000221646
-0.000253309
-0.00027864
-0.000297639
-0.000310304
-0.000316637
-0.000316637
-0.000310304
-0.000297639
-0.00027864
-0.000253309
-0.000221646
-0.000183649
-0.00013932
-8.86584e-05
-3.16637e-05
)
;
    }
    outlet
    {
        type            calculated;
        value           nonuniform List<scalar> 
20
(
3.16638e-05
8.86585e-05
0.00013932
0.000183649
0.000221646
0.000253309
0.00027864
0.000297639
0.000310304
0.000316637
0.000316637
0.000310304
0.000297639
0.00027864
0.000253309
0.000221646
0.000183649
0.00013932
8.86585e-05
3.16638e-05
)
;
    }
    frontAndBack
    {
        type            empty;
        value           nonuniform 0();
    }
}


// ************************************************************************* //
