/*--------------------------------*- C++ -*----------------------------------*\
| =========                 |                                                 |
| \\      /  F ield         | OpenFOAM: The Open Source CFD Toolbox           |
|  \\    /   O peration     | Version:  4.1                                   |
|   \\  /    A nd           | Web:      www.OpenFOAM.org                      |
|    \\/     M anipulation  |                                                 |
\*---------------------------------------------------------------------------*/
FoamFile
{
    version     2.0;
    format      ascii;
    class       volVectorField;
    location    "1.8";
    object      U;
}
// * * * * * * * * * * * * * * * * * * * * * * * * * * * * * * * * * * * * * //

dimensions      [0 1 -1 0 0 0 0];

internalField   nonuniform List<vector> 
400
(
(0.633275 -1.00805e-09 0)
(0.633275 -5.00093e-10 0)
(0.633275 -2.10909e-10 0)
(0.633275 -2.04047e-11 0)
(0.633275 -1.81061e-10 0)
(0.633275 -6.69697e-12 0)
(0.633275 -2.97842e-10 0)
(0.633275 -9.95836e-11 0)
(0.633275 -4.85748e-10 0)
(0.633275 -2.87922e-10 0)
(0.633275 -7.27489e-10 0)
(0.633275 -5.87276e-10 0)
(0.633275 -1.04311e-09 0)
(0.633275 -9.85363e-10 0)
(0.633275 -1.41716e-09 0)
(0.633275 -1.41475e-09 0)
(0.633275 -1.67784e-09 0)
(0.633275 -1.52913e-09 0)
(0.633275 -1.78696e-09 0)
(0.633275 -1.49102e-09 0)
(1.77317 -4.25564e-09 0)
(1.77317 -1.42091e-09 0)
(1.77317 -1.70912e-09 0)
(1.77317 1.072e-09 0)
(1.77317 -1.64685e-09 0)
(1.77317 1.74672e-09 0)
(1.77317 -2.02327e-09 0)
(1.77317 1.88346e-09 0)
(1.77317 -2.23708e-09 0)
(1.77317 1.72141e-09 0)
(1.77317 -2.31308e-09 0)
(1.77317 1.24049e-09 0)
(1.77317 -2.32131e-09 0)
(1.77317 4.6369e-10 0)
(1.77317 -2.38447e-09 0)
(1.77317 -6.74216e-10 0)
(1.77317 -2.4452e-09 0)
(1.77317 -1.7069e-09 0)
(1.77317 -3.82243e-09 0)
(1.77317 -3.77419e-09 0)
(2.78641 -8.30664e-09 0)
(2.78641 -5.02373e-09 0)
(2.78641 -2.67343e-09 0)
(2.78641 4.48469e-10 0)
(2.78641 -1.79915e-09 0)
(2.78641 1.1217e-09 0)
(2.78641 -2.36671e-09 0)
(2.78641 8.05299e-10 0)
(2.78641 -3.07336e-09 0)
(2.78641 -6.91745e-11 0)
(2.78641 -4.04464e-09 0)
(2.78641 -1.59039e-09 0)
(2.78641 -5.38126e-09 0)
(2.78641 -3.73402e-09 0)
(2.78641 -7.04032e-09 0)
(2.78641 -6.37068e-09 0)
(2.78641 -8.6554e-09 0)
(2.78641 -7.79653e-09 0)
(2.78641 -1.1898e-08 0)
(2.78641 -9.83792e-09 0)
(3.67299 -1.24368e-08 0)
(3.67299 -8.37477e-09 0)
(3.67299 -4.12106e-09 0)
(3.67299 4.22823e-10 0)
(3.67299 -2.28469e-09 0)
(3.67299 1.49705e-09 0)
(3.67299 -2.86405e-09 0)
(3.67299 1.09776e-09 0)
(3.67299 -3.65817e-09 0)
(3.67299 -5.34505e-13 0)
(3.67299 -4.83599e-09 0)
(3.67299 -1.94039e-09 0)
(3.67299 -6.57391e-09 0)
(3.67299 -4.76288e-09 0)
(3.67299 -8.87324e-09 0)
(3.67299 -8.47237e-09 0)
(3.67299 -1.16325e-08 0)
(3.67299 -1.0806e-08 0)
(3.67299 -1.80182e-08 0)
(3.67299 -1.43647e-08 0)
(4.43292 -1.54313e-08 0)
(4.43292 -1.13121e-08 0)
(4.43292 -5.18642e-09 0)
(4.43292 3.20965e-11 0)
(4.43292 -2.35705e-09 0)
(4.43292 1.3188e-09 0)
(4.43292 -2.90316e-09 0)
(4.43292 7.19267e-10 0)
(4.43292 -3.86778e-09 0)
(4.43292 -7.15092e-10 0)
(4.43292 -5.45109e-09 0)
(4.43292 -3.20728e-09 0)
(4.43292 -7.92342e-09 0)
(4.43292 -6.90922e-09 0)
(4.43292 -1.13269e-08 0)
(4.43292 -1.19611e-08 0)
(4.43292 -1.58011e-08 0)
(4.43292 -1.54252e-08 0)
(4.43292 -2.54224e-08 0)
(4.43292 -1.96202e-08 0)
(5.06619 -1.69686e-08 0)
(5.06619 -1.28111e-08 0)
(5.06619 -5.86076e-09 0)
(5.06619 -2.46703e-10 0)
(5.06619 -2.32953e-09 0)
(5.06619 1.18495e-09 0)
(5.06619 -2.80482e-09 0)
(5.06619 4.35007e-10 0)
(5.06619 -3.84819e-09 0)
(5.06619 -1.23503e-09 0)
(5.06619 -5.71275e-09 0)
(5.06619 -4.13344e-09 0)
(5.06619 -8.75955e-09 0)
(5.06619 -8.54757e-09 0)
(5.06619 -1.31053e-08 0)
(5.06619 -1.48236e-08 0)
(5.06619 -1.9236e-08 0)
(5.06619 -1.95788e-08 0)
(5.06619 -3.17121e-08 0)
(5.06619 -2.35824e-08 0)
(5.57281 -1.68135e-08 0)
(5.57281 -1.2596e-08 0)
(5.57281 -5.94474e-09 0)
(5.57281 -4.17236e-10 0)
(5.57281 -2.16605e-09 0)
(5.57281 1.00826e-09 0)
(5.57281 -2.56794e-09 0)
(5.57281 1.27487e-10 0)
(5.57281 -3.64111e-09 0)
(5.57281 -1.71595e-09 0)
(5.57281 -5.71577e-09 0)
(5.57281 -4.9167e-09 0)
(5.57281 -9.23488e-09 0)
(5.57281 -9.905e-09 0)
(5.57281 -1.43943e-08 0)
(5.57281 -1.72537e-08 0)
(5.57281 -2.2032e-08 0)
(5.57281 -2.33464e-08 0)
(5.57281 -3.65916e-08 0)
(5.57281 -2.60259e-08 0)
(5.95277 -1.49928e-08 0)
(5.95277 -1.0627e-08 0)
(5.95277 -5.39332e-09 0)
(5.95277 -4.38405e-10 0)
(5.95277 -1.9051e-09 0)
(5.95277 7.97574e-10 0)
(5.95277 -2.25961e-09 0)
(5.95277 -2.10874e-10 0)
(5.95277 -3.34033e-09 0)
(5.95277 -2.18933e-09 0)
(5.95277 -5.57484e-09 0)
(5.95277 -5.61565e-09 0)
(5.95277 -9.47345e-09 0)
(5.95277 -1.10515e-08 0)
(5.95277 -1.52978e-08 0)
(5.95277 -1.92769e-08 0)
(5.95277 -2.41674e-08 0)
(5.95277 -2.66324e-08 0)
(5.95277 -3.97976e-08 0)
(5.95277 -2.67745e-08 0)
(6.20608 -1.17365e-08 0)
(6.20608 -7.15144e-09 0)
(6.20608 -4.26562e-09 0)
(6.20608 -3.07802e-10 0)
(6.20608 -1.5739e-09 0)
(6.20608 5.61005e-10 0)
(6.20608 -1.91568e-09 0)
(6.20608 -5.73397e-10 0)
(6.20608 -2.98633e-09 0)
(6.20608 -2.6526e-09 0)
(6.20608 -5.32838e-09 0)
(6.20608 -6.22744e-09 0)
(6.20608 -9.49822e-09 0)
(6.20608 -1.1964e-08 0)
(6.20608 -1.57985e-08 0)
(6.20608 -2.08067e-08 0)
(6.20608 -2.55177e-08 0)
(6.20608 -2.92193e-08 0)
(6.20608 -4.11438e-08 0)
(6.20608 -2.57993e-08 0)
(6.33273 -7.45334e-09 0)
(6.33273 -2.63965e-09 0)
(6.33273 -2.73345e-09 0)
(6.33273 -5.54012e-11 0)
(6.33273 -1.21586e-09 0)
(6.33273 3.08813e-10 0)
(6.33273 -1.57804e-09 0)
(6.33273 -9.51706e-10 0)
(6.33273 -2.62892e-09 0)
(6.33273 -3.10719e-09 0)
(6.33273 -5.03078e-09 0)
(6.33273 -6.76429e-09 0)
(6.33273 -9.36191e-09 0)
(6.33273 -1.2654e-08 0)
(6.33273 -1.5933e-08 0)
(6.33273 -2.18199e-08 0)
(6.33273 -2.60601e-08 0)
(6.33273 -3.09628e-08 0)
(6.33273 -4.06572e-08 0)
(6.33273 -2.33024e-08 0)
(6.33273 -2.67012e-09 0)
(6.33273 2.2835e-09 0)
(6.33273 -1.04036e-09 0)
(6.33273 2.60732e-10 0)
(6.33273 -8.74856e-10 0)
(6.33273 5.14621e-11 0)
(6.33273 -1.27726e-09 0)
(6.33273 -1.33134e-09 0)
(6.33273 -2.30054e-09 0)
(6.33273 -3.5426e-09 0)
(6.33273 -4.71452e-09 0)
(6.33273 -7.2205e-09 0)
(6.33273 -9.09346e-09 0)
(6.33273 -1.31134e-08 0)
(6.33273 -1.57195e-08 0)
(6.33273 -2.22846e-08 0)
(6.33273 -2.5792e-08 0)
(6.33273 -3.17268e-08 0)
(6.33273 -3.84898e-08 0)
(6.33273 -1.9628e-08 0)
(6.20608 2.03346e-09 0)
(6.20608 6.93316e-09 0)
(6.20608 5.44573e-10 0)
(6.20608 5.68865e-10 0)
(6.20608 -5.90123e-10 0)
(6.20608 -2.00429e-10 0)
(6.20608 -1.03246e-09 0)
(6.20608 -1.69321e-09 0)
(6.20608 -2.01941e-09 0)
(6.20608 -3.93871e-09 0)
(6.20608 -4.396e-09 0)
(6.20608 -7.57668e-09 0)
(6.20608 -8.70693e-09 0)
(6.20608 -1.33222e-08 0)
(6.20608 -1.51702e-08 0)
(6.20608 -2.21728e-08 0)
(6.20608 -2.47431e-08 0)
(6.20608 -3.14123e-08 0)
(6.20608 -3.4903e-08 0)
(6.20608 -1.52187e-08 0)
(5.95277 6.0906e-09 0)
(5.95277 1.06601e-08 0)
(5.95277 1.78028e-09 0)
(5.95277 8.01252e-10 0)
(5.95277 -3.88816e-10 0)
(5.95277 -4.35384e-10 0)
(5.95277 -8.50901e-10 0)
(5.95277 -2.01368e-09 0)
(5.95277 -1.78921e-09 0)
(5.95277 -4.26565e-09 0)
(5.95277 -4.07582e-09 0)
(5.95277 -7.79919e-09 0)
(5.95277 -8.20186e-09 0)
(5.95277 -1.3248e-08 0)
(5.95277 -1.4291e-08 0)
(5.95277 -2.14618e-08 0)
(5.95277 -2.29703e-08 0)
(5.95277 -2.99743e-08 0)
(5.95277 -3.02434e-08 0)
(5.95277 -1.05645e-08 0)
(5.57281 9.02072e-09 0)
(5.57281 1.2949e-08 0)
(5.57281 2.50196e-09 0)
(5.57281 9.11022e-10 0)
(5.57281 -2.7904e-10 0)
(5.57281 -6.3822e-10 0)
(5.57281 -7.25481e-10 0)
(5.57281 -2.26106e-09 0)
(5.57281 -1.59653e-09 0)
(5.57281 -4.47751e-09 0)
(5.57281 -3.73422e-09 0)
(5.57281 -7.83063e-09 0)
(5.57281 -7.55582e-09 0)
(5.57281 -1.28331e-08 0)
(5.57281 -1.30707e-08 0)
(5.57281 -2.0121e-08 0)
(5.57281 -2.05399e-08 0)
(5.57281 -2.74219e-08 0)
(5.57281 -2.49047e-08 0)
(5.57281 -6.14068e-09 0)
(5.06619 1.04864e-08 0)
(5.06619 1.34981e-08 0)
(5.06619 2.65156e-09 0)
(5.06619 8.77115e-10 0)
(5.06619 -2.51546e-10 0)
(5.06619 -8.02678e-10 0)
(5.06619 -6.44284e-10 0)
(5.06619 -2.42055e-09 0)
(5.06619 -1.43127e-09 0)
(5.06619 -4.55313e-09 0)
(5.06619 -3.36827e-09 0)
(5.06619 -7.65144e-09 0)
(5.06619 -6.78371e-09 0)
(5.06619 -1.20799e-08 0)
(5.06619 -1.15638e-08 0)
(5.06619 -1.82153e-08 0)
(5.06619 -1.7611e-08 0)
(5.06619 -2.39148e-08 0)
(5.06619 -1.93597e-08 0)
(5.06619 -2.39157e-09 0)
(4.43292 1.03593e-08 0)
(4.43292 1.22849e-08 0)
(4.43292 2.29392e-09 0)
(4.43292 7.20501e-10 0)
(4.43292 -2.70509e-10 0)
(4.43292 -8.98266e-10 0)
(4.43292 -5.71601e-10 0)
(4.43292 -2.43407e-09 0)
(4.43292 -1.24363e-09 0)
(4.43292 -4.39889e-09 0)
(4.43292 -2.90916e-09 0)
(4.43292 -7.13335e-09 0)
(4.43292 -5.80079e-09 0)
(4.43292 -1.08463e-08 0)
(4.43292 -9.69456e-09 0)
(4.43292 -1.56556e-08 0)
(4.43292 -1.42166e-08 0)
(4.43292 -1.95463e-08 0)
(4.43292 -1.39595e-08 0)
(4.43292 4.07238e-10 0)
(3.67299 8.72075e-09 0)
(3.67299 9.60087e-09 0)
(3.67299 1.61169e-09 0)
(3.67299 4.90019e-10 0)
(3.67299 -2.44026e-10 0)
(3.67299 -9.07897e-10 0)
(3.67299 -3.79624e-10 0)
(3.67299 -2.25925e-09 0)
(3.67299 -8.46398e-10 0)
(3.67299 -3.91765e-09 0)
(3.67299 -2.10279e-09 0)
(3.67299 -6.10578e-09 0)
(3.67299 -4.28994e-09 0)
(3.67299 -8.89842e-09 0)
(3.67299 -7.12593e-09 0)
(3.67299 -1.2243e-08 0)
(3.67299 -1.01316e-08 0)
(3.67299 -1.43504e-08 0)
(3.67299 -8.85143e-09 0)
(3.67299 2.15358e-09 0)
(2.78641 6.02958e-09 0)
(2.78641 6.01776e-09 0)
(2.78641 7.46795e-10 0)
(2.78641 1.96651e-10 0)
(2.78641 -4.04614e-10 0)
(2.78641 -8.70849e-10 0)
(2.78641 -6.01574e-10 0)
(2.78641 -2.03526e-09 0)
(2.78641 -1.13026e-09 0)
(2.78641 -3.50581e-09 0)
(2.78641 -2.29287e-09 0)
(2.78641 -5.40796e-09 0)
(2.78641 -4.14586e-09 0)
(2.78641 -7.68207e-09 0)
(2.78641 -6.31069e-09 0)
(2.78641 -9.96443e-09 0)
(2.78641 -8.06909e-09 0)
(2.78641 -1.05387e-08 0)
(2.78641 -5.88234e-09 0)
(2.78641 2.09584e-09 0)
(1.77317 2.84772e-09 0)
(1.77317 2.70403e-09 0)
(1.77317 2.66823e-10 0)
(1.77317 2.9936e-11 0)
(1.77317 4.46419e-11 0)
(1.77317 -6.63979e-10 0)
(1.77317 2.87163e-10 0)
(1.77317 -1.35728e-09 0)
(1.77317 3.66685e-10 0)
(1.77317 -2.04604e-09 0)
(1.77317 1.47762e-10 0)
(1.77317 -2.7527e-09 0)
(1.77317 -3.76989e-10 0)
(1.77317 -3.42071e-09 0)
(1.77317 -1.00007e-09 0)
(1.77317 -3.97424e-09 0)
(1.77317 -1.52149e-09 0)
(1.77317 -3.53038e-09 0)
(1.77317 -7.22829e-10 0)
(1.77317 2.64301e-09 0)
(0.633275 7.7403e-10 0)
(0.633275 5.67951e-10 0)
(0.633275 -5.4788e-11 0)
(0.633275 -6.14016e-12 0)
(0.633275 -1.89983e-10 0)
(0.633275 -1.79448e-10 0)
(0.633275 -2.93737e-10 0)
(0.633275 -4.25384e-10 0)
(0.633275 -4.78818e-10 0)
(0.633275 -7.66285e-10 0)
(0.633275 -7.86204e-10 0)
(0.633275 -1.21126e-09 0)
(0.633275 -1.20967e-09 0)
(0.633275 -1.71022e-09 0)
(0.633275 -1.62033e-09 0)
(0.633275 -2.0618e-09 0)
(0.633275 -1.75856e-09 0)
(0.633275 -1.83621e-09 0)
(0.633275 -9.2234e-10 0)
(0.633275 5.7961e-10 0)
)
;

boundaryField
{
    top
    {
        type            fixedValue;
        value           uniform (0 0 0);
    }
    bottom
    {
        type            fixedValue;
        value           uniform (0 0 0);
    }
    inlet
    {
        type            zeroGradient;
    }
    outlet
    {
        type            zeroGradient;
    }
    frontAndBack
    {
        type            empty;
    }
}


// ************************************************************************* //
