/*--------------------------------*- C++ -*----------------------------------*\
| =========                 |                                                 |
| \\      /  F ield         | OpenFOAM: The Open Source CFD Toolbox           |
|  \\    /   O peration     | Version:  4.1                                   |
|   \\  /    A nd           | Web:      www.OpenFOAM.org                      |
|    \\/     M anipulation  |                                                 |
\*---------------------------------------------------------------------------*/
FoamFile
{
    version     2.0;
    format      ascii;
    class       surfaceScalarField;
    location    "3.3";
    object      phi;
}
// * * * * * * * * * * * * * * * * * * * * * * * * * * * * * * * * * * * * * //

dimensions      [0 3 -1 0 0 0 0];

internalField   nonuniform List<scalar> 
760
(
-1.91641e-05
2.43975e-13
-1.91641e-05
1.50507e-12
-1.91641e-05
2.19119e-12
-1.91641e-05
2.81466e-12
-1.91641e-05
3.81606e-12
-1.91641e-05
3.96093e-12
-1.91641e-05
5.01107e-12
-1.91641e-05
4.55546e-12
-1.91641e-05
5.67624e-12
-1.91641e-05
4.69381e-12
-1.91641e-05
5.77474e-12
-1.91641e-05
4.40277e-12
-1.91641e-05
5.34577e-12
-1.91641e-05
3.76758e-12
-1.91641e-05
4.4689e-12
-1.91641e-05
2.82241e-12
-1.91641e-05
3.34145e-12
-1.91641e-05
1.76927e-12
-1.91641e-05
1.72378e-12
8.06762e-13
-5.11594e-05
1.22825e-12
-5.11594e-05
4.80002e-12
-5.11594e-05
5.40835e-12
-5.11594e-05
8.4761e-12
-5.11594e-05
9.3158e-12
-5.11594e-05
1.11027e-11
-5.11594e-05
1.2285e-11
-5.11594e-05
1.236e-11
-5.11594e-05
1.395e-11
-5.11594e-05
1.2365e-11
-5.11594e-05
1.427e-11
-5.11594e-05
1.12348e-11
-5.11594e-05
1.33103e-11
-5.11594e-05
9.23595e-12
-5.11594e-05
1.12303e-11
-5.11594e-05
6.52776e-12
-5.11594e-05
8.49496e-12
-5.11594e-05
3.66502e-12
-5.11594e-05
4.30076e-12
1.79006e-12
-7.68219e-05
2.70632e-12
-7.68219e-05
8.79324e-12
-7.68219e-05
9.39602e-12
-7.68219e-05
1.49144e-11
-7.68219e-05
1.59481e-11
-7.68219e-05
1.90233e-11
-7.68219e-05
2.0882e-11
-7.68219e-05
2.09293e-11
-7.68219e-05
2.36044e-11
-7.68219e-05
2.07147e-11
-7.68219e-05
2.40776e-11
-7.68219e-05
1.86109e-11
-7.68219e-05
2.23999e-11
-7.68219e-05
1.50892e-11
-7.68219e-05
1.88339e-11
-7.68219e-05
1.04577e-11
-7.68219e-05
1.41254e-11
-7.68219e-05
5.67289e-12
-7.68219e-05
6.95688e-12
2.88254e-12
-9.61516e-05
4.31808e-12
-9.61516e-05
1.28181e-11
-9.61516e-05
1.33546e-11
-9.61516e-05
2.14178e-11
-9.61516e-05
2.22585e-11
-9.61516e-05
2.70902e-11
-9.61516e-05
2.89194e-11
-9.61516e-05
2.9728e-11
-9.61516e-05
3.25228e-11
-9.61516e-05
2.93595e-11
-9.61516e-05
3.30518e-11
-9.61516e-05
2.63118e-11
-9.61516e-05
3.06487e-11
-9.61516e-05
2.12523e-11
-9.61516e-05
2.56825e-11
-9.61516e-05
1.46436e-11
-9.61516e-05
1.91532e-11
-9.61516e-05
7.81006e-12
-9.61516e-05
9.38971e-12
3.91774e-12
-0.000109148
5.91565e-12
-0.000109148
1.66022e-11
-0.000109148
1.71544e-11
-0.000109148
2.75436e-11
-0.000109148
2.81257e-11
-0.000109148
3.47671e-11
-0.000109148
3.62796e-11
-0.000109148
3.81686e-11
-0.000109148
4.06039e-11
-0.000109148
3.77178e-11
-0.000109148
4.11098e-11
-0.000109148
3.38199e-11
-0.000109148
3.79898e-11
-0.000109148
2.73198e-11
-0.000109148
3.17228e-11
-0.000109148
1.88261e-11
-0.000109148
2.35259e-11
-0.000109148
1.00131e-11
-0.000109148
1.15112e-11
4.89027e-12
-0.000115812
7.3711e-12
-0.000115812
1.98938e-11
-0.000115812
2.05042e-11
-0.000115812
3.29415e-11
-0.000115812
3.31185e-11
-0.000115812
4.16112e-11
-0.000115812
4.24573e-11
-0.000115812
4.57524e-11
-0.000115812
4.73187e-11
-0.000115812
4.52841e-11
-0.000115812
4.77493e-11
-0.000115812
4.06664e-11
-0.000115812
4.3992e-11
-0.000115812
3.28962e-11
-0.000115812
3.66281e-11
-0.000115812
2.27116e-11
-0.000115812
2.7037e-11
-0.000115812
1.21048e-11
-0.000115812
1.32428e-11
5.71476e-12
-0.000116144
8.61056e-12
-0.000116144
2.25199e-11
-0.000116144
2.32467e-11
-0.000116144
3.73562e-11
-0.000116144
3.70222e-11
-0.000116144
4.72901e-11
-0.000116144
4.72096e-11
-0.000116144
5.21002e-11
-0.000116144
5.24214e-11
-0.000116144
5.16693e-11
-0.000116144
5.27432e-11
-0.000116144
4.64912e-11
-0.000116144
4.84639e-11
-0.000116144
3.76786e-11
-0.000116144
4.02541e-11
-0.000116144
2.60792e-11
-0.000116144
2.95954e-11
-0.000116144
1.39519e-11
-0.000116144
1.45513e-11
6.34069e-12
-0.000110142
9.59608e-12
-0.000110142
2.4387e-11
-0.000110142
2.52966e-11
-0.000110142
4.06661e-11
-0.000110142
3.97384e-11
-0.000110142
5.16355e-11
-0.000110142
5.04377e-11
-0.000110142
5.7013e-11
-0.000110142
5.58213e-11
-0.000110142
5.66619e-11
-0.000110142
5.60166e-11
-0.000110142
5.10907e-11
-0.000110142
5.13519e-11
-0.000110142
4.14896e-11
-0.000110142
4.2569e-11
-0.000110142
2.87973e-11
-0.000110142
3.11921e-11
-0.000110142
1.54608e-11
-0.000110142
1.54487e-11
6.73431e-12
-9.78078e-05
1.03089e-11
-9.78078e-05
2.54461e-11
-9.78078e-05
2.66016e-11
-9.78078e-05
4.28022e-11
-9.78078e-05
4.12302e-11
-9.78078e-05
5.45365e-11
-9.78078e-05
5.21177e-11
-9.78078e-05
6.03528e-11
-9.78078e-05
5.75088e-11
-9.78078e-05
6.01097e-11
-9.78078e-05
5.75745e-11
-9.78078e-05
5.43122e-11
-9.78078e-05
5.26732e-11
-9.78078e-05
4.41914e-11
-9.78078e-05
4.35963e-11
-9.78078e-05
3.07591e-11
-9.78078e-05
3.18575e-11
-9.78078e-05
1.65468e-11
-9.78078e-05
1.59603e-11
6.87609e-12
-7.91406e-05
1.07423e-11
-7.91406e-05
2.56881e-11
-7.91406e-05
2.71251e-11
-7.91406e-05
4.37396e-11
-7.91406e-05
4.14963e-11
-7.91406e-05
5.5932e-11
-7.91406e-05
5.22691e-11
-7.91406e-05
6.20348e-11
-7.91406e-05
5.75216e-11
-7.91406e-05
6.19118e-11
-7.91406e-05
5.74685e-11
-7.91406e-05
5.60494e-11
-7.91406e-05
5.24875e-11
-7.91406e-05
4.5683e-11
-7.91406e-05
4.33932e-11
-7.91406e-05
3.18814e-11
-7.91406e-05
3.16484e-11
-7.91406e-05
1.71368e-11
-7.91406e-05
1.61158e-11
6.7646e-12
-5.41406e-05
1.08964e-11
-5.41406e-05
2.51373e-11
-5.41406e-05
2.68419e-11
-5.41406e-05
4.34788e-11
-5.41406e-05
4.05589e-11
-5.41406e-05
5.57898e-11
-5.41406e-05
5.09378e-11
-5.41406e-05
6.20059e-11
-5.41406e-05
5.59243e-11
-5.41406e-05
6.19979e-11
-5.41406e-05
5.57752e-11
-5.41406e-05
5.62228e-11
-5.41406e-05
5.08751e-11
-5.41406e-05
4.58861e-11
-5.41406e-05
4.2032e-11
-5.41406e-05
3.20952e-11
-5.41406e-05
3.06317e-11
-5.41406e-05
1.71696e-11
-5.41406e-05
1.59355e-11
6.41463e-12
-2.28078e-05
1.07742e-11
-2.28078e-05
2.38487e-11
-2.28078e-05
2.57432e-11
-2.28078e-05
4.20381e-11
-2.28078e-05
3.84633e-11
-2.28078e-05
5.41012e-11
-2.28078e-05
4.81925e-11
-2.28078e-05
6.02391e-11
-2.28078e-05
5.28037e-11
-2.28078e-05
6.03249e-11
-2.28078e-05
5.25899e-11
-2.28078e-05
5.4779e-11
-2.28078e-05
4.79303e-11
-2.28078e-05
4.47454e-11
-2.28078e-05
3.95928e-11
-2.28078e-05
3.13472e-11
-2.28078e-05
2.88772e-11
-2.28078e-05
1.66036e-11
-2.28078e-05
1.54227e-11
5.85457e-12
1.48578e-05
1.0377e-11
1.48578e-05
2.19022e-11
1.48578e-05
2.38456e-11
1.48578e-05
3.94483e-11
1.48578e-05
3.52819e-11
1.48578e-05
5.08796e-11
1.48578e-05
4.4129e-11
1.48578e-05
5.67342e-11
1.48578e-05
4.82715e-11
1.48578e-05
5.68795e-11
1.48578e-05
4.80288e-11
1.48578e-05
5.16948e-11
1.48578e-05
4.37608e-11
1.48578e-05
4.22344e-11
1.48578e-05
3.61632e-11
1.48578e-05
2.96067e-11
1.48578e-05
2.6452e-11
1.48578e-05
1.54273e-11
1.48578e-05
1.45623e-11
5.12224e-12
5.88563e-05
9.70225e-12
5.88563e-05
1.93986e-11
5.88563e-05
2.12069e-11
5.88563e-05
3.57576e-11
5.88563e-05
3.11286e-11
5.88563e-05
4.61714e-11
5.88563e-05
3.88874e-11
5.88563e-05
5.15321e-11
5.88563e-05
4.24827e-11
5.88563e-05
5.16946e-11
5.88563e-05
4.22452e-11
5.88563e-05
4.69939e-11
5.88563e-05
3.85025e-11
5.88563e-05
3.83707e-11
5.88563e-05
3.18493e-11
5.88563e-05
2.68791e-11
5.88563e-05
2.34244e-11
5.88563e-05
1.36724e-11
5.88563e-05
1.33268e-11
4.26111e-12
0.000109188
8.7378e-12
0.000109188
1.64451e-11
0.000109188
1.79302e-11
0.000109188
3.10306e-11
0.000109188
2.61569e-11
0.000109188
4.00598e-11
0.000109188
3.26499e-11
0.000109188
4.47228e-11
0.000109188
3.56318e-11
0.000109188
4.48612e-11
0.000109188
3.54259e-11
0.000109188
4.07622e-11
0.000109188
3.23161e-11
0.000109188
3.32319e-11
0.000109188
2.67714e-11
0.000109188
2.32226e-11
0.000109188
1.98553e-11
0.000109188
1.14261e-11
0.000109188
1.16851e-11
3.3169e-12
0.000165852
7.46847e-12
0.000165852
1.31784e-11
0.000165852
1.42086e-11
0.000165852
2.54052e-11
0.000165852
2.06345e-11
0.000165852
3.27348e-11
0.000165852
2.57371e-11
0.000165852
3.65218e-11
0.000165852
2.80598e-11
0.000165852
3.66026e-11
0.000165852
2.78972e-11
0.000165852
3.32126e-11
0.000165852
2.54804e-11
0.000165852
2.70062e-11
0.000165852
2.11466e-11
0.000165852
1.87866e-11
0.000165852
1.58557e-11
0.000165852
8.85052e-12
0.000165852
9.63533e-12
2.34504e-12
0.000228848
5.92222e-12
0.000228848
9.75402e-12
0.000228848
1.03449e-11
0.000228848
1.91289e-11
0.000228848
1.49495e-11
0.000228848
2.45589e-11
0.000228848
1.86e-11
0.000228848
2.73598e-11
0.000228848
2.02299e-11
0.000228848
2.73797e-11
0.000228848
2.0089e-11
0.000228848
2.47955e-11
0.000228848
1.83529e-11
0.000228848
2.00953e-11
0.000228848
1.52418e-11
0.000228848
1.38961e-11
0.000228848
1.15503e-11
0.000228848
6.21675e-12
0.000228848
7.21954e-12
1.41914e-12
0.000298178
3.98549e-12
0.000298178
6.30479e-12
0.000298178
6.45873e-12
0.000298178
1.22817e-11
0.000298178
9.33593e-12
0.000298178
1.56115e-11
0.000298178
1.1566e-11
0.000298178
1.73095e-11
0.000298178
1.25291e-11
0.000298178
1.7252e-11
0.000298178
1.2408e-11
0.000298178
1.55551e-11
0.000298178
1.13157e-11
0.000298178
1.253e-11
0.000298178
9.38103e-12
0.000298178
8.57375e-12
0.000298178
7.13608e-12
0.000298178
3.62352e-12
0.000298178
4.49267e-12
6.24583e-13
0.000373841
1.90819e-12
0.000373841
2.94208e-12
0.000373841
2.9045e-12
0.000373841
5.26586e-12
0.000373841
4.15988e-12
0.000373841
6.49865e-12
0.000373841
5.01327e-12
0.000373841
7.11972e-12
0.000373841
5.30436e-12
0.000373841
7.03592e-12
0.000373841
5.14036e-12
0.000373841
6.29575e-12
0.000373841
4.57833e-12
0.000373841
5.02376e-12
0.000373841
3.69166e-12
0.000373841
3.38618e-12
0.000373841
2.68089e-12
0.000373841
1.35003e-12
0.000373841
1.59877e-12
5.59741e-14
0.000455836
0.000455836
0.000455836
0.000455836
0.000455836
0.000455836
0.000455836
0.000455836
0.000455836
0.000455836
0.000455836
0.000455836
0.000455836
0.000455836
0.000455836
0.000455836
0.000455836
0.000455836
0.000455836
)
;

boundaryField
{
    top
    {
        type            calculated;
        value           uniform 0;
    }
    bottom
    {
        type            calculated;
        value           uniform 0;
    }
    inlet
    {
        type            calculated;
        value           nonuniform List<scalar> 
20
(
1.91641e-05
5.11594e-05
7.68219e-05
9.61516e-05
0.000109148
0.000115812
0.000116144
0.000110142
9.78078e-05
7.91406e-05
5.41406e-05
2.28078e-05
-1.48578e-05
-5.88563e-05
-0.000109188
-0.000165852
-0.000228848
-0.000298178
-0.000373841
-0.000455836
)
;
    }
    outlet
    {
        type            calculated;
        value           nonuniform List<scalar> 
20
(
-1.91641e-05
-5.11594e-05
-7.68219e-05
-9.61516e-05
-0.000109148
-0.000115812
-0.000116144
-0.000110142
-9.78078e-05
-7.91406e-05
-5.41406e-05
-2.28078e-05
1.48578e-05
5.88563e-05
0.000109188
0.000165852
0.000228848
0.000298178
0.000373841
0.000455836
)
;
    }
    frontAndBack
    {
        type            empty;
        value           nonuniform 0();
    }
}


// ************************************************************************* //
