/*--------------------------------*- C++ -*----------------------------------*\
| =========                 |                                                 |
| \\      /  F ield         | OpenFOAM: The Open Source CFD Toolbox           |
|  \\    /   O peration     | Version:  4.1                                   |
|   \\  /    A nd           | Web:      www.OpenFOAM.org                      |
|    \\/     M anipulation  |                                                 |
\*---------------------------------------------------------------------------*/
FoamFile
{
    version     2.0;
    format      ascii;
    class       volVectorField;
    location    "3.3";
    object      U;
}
// * * * * * * * * * * * * * * * * * * * * * * * * * * * * * * * * * * * * * //

dimensions      [0 1 -1 0 0 0 0];

internalField   nonuniform List<vector> 
400
(
(-0.383281 1.98719e-10 0)
(-0.383281 7.95468e-10 0)
(-0.383281 1.88985e-09 0)
(-0.383281 8.08764e-10 0)
(-0.383281 3.25667e-09 0)
(-0.383281 1.04876e-09 0)
(-0.383281 4.13644e-09 0)
(-0.383281 1.14061e-09 0)
(-0.383281 4.59996e-09 0)
(-0.383281 1.128e-09 0)
(-0.383281 4.59038e-09 0)
(-0.383281 1.05032e-09 0)
(-0.383281 4.13374e-09 0)
(-0.383281 9.56641e-10 0)
(-0.383281 3.30666e-09 0)
(-0.383281 8.28904e-10 0)
(-0.383281 2.22204e-09 0)
(-0.383281 8.58938e-10 0)
(-0.383281 7.00065e-10 0)
(-0.383281 5.10662e-10 0)
(-1.02319 8.26361e-10 0)
(-1.02319 3.43902e-09 0)
(-1.02319 3.51598e-09 0)
(-1.02319 6.79581e-09 0)
(-1.02319 5.72279e-09 0)
(-1.02319 9.10867e-09 0)
(-1.02319 7.57669e-09 0)
(-1.02319 1.02681e-08 0)
(-1.02319 8.62599e-09 0)
(-1.02319 1.03889e-08 0)
(-1.02319 8.87035e-09 0)
(-1.02319 9.51685e-09 0)
(-1.02319 8.36381e-09 0)
(-1.02319 7.85503e-09 0)
(-1.02319 7.19591e-09 0)
(-1.02319 5.56815e-09 0)
(-1.02319 5.66689e-09 0)
(-1.02319 2.97541e-09 0)
(-1.02319 3.26957e-09 0)
(-1.02319 1.12306e-09 0)
(-1.53644 2.10872e-09 0)
(-1.53644 6.94752e-09 0)
(-1.53644 8.34013e-09 0)
(-1.53644 1.14741e-08 0)
(-1.53644 1.42942e-08 0)
(-1.53644 1.47497e-08 0)
(-1.53644 1.86217e-08 0)
(-1.53644 1.62857e-08 0)
(-1.53644 2.10022e-08 0)
(-1.53644 1.61898e-08 0)
(-1.53644 2.134e-08 0)
(-1.53644 1.47221e-08 0)
(-1.53644 1.97335e-08 0)
(-1.53644 1.20911e-08 0)
(-1.53644 1.64392e-08 0)
(-1.53644 8.48056e-09 0)
(-1.53644 1.21012e-08 0)
(-1.53644 4.93668e-09 0)
(-1.53644 5.65478e-09 0)
(-1.53644 2.59683e-09 0)
(-1.92303 3.4747e-09 0)
(-1.92303 1.08075e-08 0)
(-1.92303 1.10751e-08 0)
(-1.92303 1.83041e-08 0)
(-1.92303 1.86026e-08 0)
(-1.92303 2.31963e-08 0)
(-1.92303 2.42979e-08 0)
(-1.92303 2.5458e-08 0)
(-1.92303 2.74215e-08 0)
(-1.92303 2.51105e-08 0)
(-1.92303 2.79549e-08 0)
(-1.92303 2.26237e-08 0)
(-1.92303 2.60096e-08 0)
(-1.92303 1.8274e-08 0)
(-1.92303 2.1884e-08 0)
(-1.92303 1.24719e-08 0)
(-1.92303 1.64362e-08 0)
(-1.92303 6.56599e-09 0)
(-1.92303 8.15792e-09 0)
(-1.92303 3.27155e-09 0)
(-2.18297 5.07734e-09 0)
(-2.18297 1.46545e-08 0)
(-2.18297 1.51369e-08 0)
(-2.18297 2.43879e-08 0)
(-2.18297 2.50269e-08 0)
(-2.18297 3.07753e-08 0)
(-2.18297 3.24062e-08 0)
(-2.18297 3.37508e-08 0)
(-2.18297 3.63635e-08 0)
(-2.18297 3.3276e-08 0)
(-2.18297 3.68939e-08 0)
(-2.18297 2.98673e-08 0)
(-2.18297 3.41605e-08 0)
(-2.18297 2.41115e-08 0)
(-2.18297 2.85824e-08 0)
(-2.18297 1.65813e-08 0)
(-2.18297 2.12654e-08 0)
(-2.18297 8.80233e-09 0)
(-2.18297 1.04122e-08 0)
(-2.18297 4.3662e-09 0)
(-2.31625 6.59671e-09 0)
(-2.31625 1.82007e-08 0)
(-2.31625 1.86762e-08 0)
(-2.31625 3.01481e-08 0)
(-2.31625 3.04025e-08 0)
(-2.31625 3.80372e-08 0)
(-2.31625 3.91132e-08 0)
(-2.31625 4.17711e-08 0)
(-2.31625 4.36958e-08 0)
(-2.31625 4.12864e-08 0)
(-2.31625 4.41808e-08 0)
(-2.31625 3.70257e-08 0)
(-2.31625 4.07821e-08 0)
(-2.31625 2.99082e-08 0)
(-2.31625 3.40223e-08 0)
(-2.31625 2.06123e-08 0)
(-2.31625 2.51949e-08 0)
(-2.31625 1.09441e-08 0)
(-2.31625 1.2348e-08 0)
(-2.31625 5.26331e-09 0)
(-2.32287 7.93838e-09 0)
(-2.32287 2.11454e-08 0)
(-2.32287 2.17052e-08 0)
(-2.32287 3.49964e-08 0)
(-2.32287 3.48202e-08 0)
(-2.32287 4.42244e-08 0)
(-2.32287 4.4539e-08 0)
(-2.32287 4.86558e-08 0)
(-2.32287 4.95632e-08 0)
(-2.32287 4.81927e-08 0)
(-2.32287 4.99571e-08 0)
(-2.32287 4.32966e-08 0)
(-2.32287 4.59817e-08 0)
(-2.32287 3.50359e-08 0)
(-2.32287 3.82555e-08 0)
(-2.32287 2.41941e-08 0)
(-2.32287 2.82041e-08 0)
(-2.32287 1.28911e-08 0)
(-2.32287 1.38512e-08 0)
(-2.32287 5.9816e-09 0)
(-2.20284 9.05345e-09 0)
(-2.20284 2.34004e-08 0)
(-2.20284 2.41017e-08 0)
(-2.20284 3.88765e-08 0)
(-2.20284 3.81291e-08 0)
(-2.20284 4.92635e-08 0)
(-2.20284 4.85295e-08 0)
(-2.20284 5.43184e-08 0)
(-2.20284 5.3816e-08 0)
(-2.20284 5.39115e-08 0)
(-2.20284 5.40937e-08 0)
(-2.20284 4.85429e-08 0)
(-2.20284 4.9666e-08 0)
(-2.20284 3.93626e-08 0)
(-2.20284 4.12317e-08 0)
(-2.20284 2.72593e-08 0)
(-2.20284 3.02887e-08 0)
(-2.20284 1.45816e-08 0)
(-2.20284 1.49627e-08 0)
(-2.20284 6.49682e-09 0)
(-1.95616 9.90171e-09 0)
(-1.95616 2.48613e-08 0)
(-1.95616 2.57779e-08 0)
(-1.95616 4.15912e-08 0)
(-1.95616 4.02279e-08 0)
(-1.95616 5.28782e-08 0)
(-1.95616 5.09768e-08 0)
(-1.95616 5.84363e-08 0)
(-1.95616 5.63525e-08 0)
(-1.95616 5.81242e-08 0)
(-1.95616 5.65023e-08 0)
(-1.95616 5.24475e-08 0)
(-1.95616 5.17643e-08 0)
(-1.95616 4.2615e-08 0)
(-1.95616 4.28976e-08 0)
(-1.95616 2.95974e-08 0)
(-1.95616 3.14164e-08 0)
(-1.95616 1.58796e-08 0)
(-1.95616 1.56657e-08 0)
(-1.95616 6.76627e-09 0)
(-1.58281 1.04728e-08 0)
(-1.58281 2.55089e-08 0)
(-1.58281 2.6692e-08 0)
(-1.58281 4.31221e-08 0)
(-1.58281 4.11036e-08 0)
(-1.58281 5.50212e-08 0)
(-1.58281 5.18886e-08 0)
(-1.58281 6.09424e-08 0)
(-1.58281 5.71986e-08 0)
(-1.58281 6.07453e-08 0)
(-1.58281 5.72243e-08 0)
(-1.58281 5.49242e-08 0)
(-1.58281 5.23286e-08 0)
(-1.58281 4.47105e-08 0)
(-1.58281 4.3307e-08 0)
(-1.58281 3.11395e-08 0)
(-1.58281 3.16428e-08 0)
(-1.58281 1.67194e-08 0)
(-1.58281 1.59988e-08 0)
(-1.58281 6.78358e-09 0)
(-1.08281 1.07647e-08 0)
(-1.08281 2.53521e-08 0)
(-1.08281 2.68153e-08 0)
(-1.08281 4.34584e-08 0)
(-1.08281 4.077e-08 0)
(-1.08281 5.56469e-08 0)
(-1.08281 5.13011e-08 0)
(-1.08281 6.17689e-08 0)
(-1.08281 5.64088e-08 0)
(-1.08281 6.16903e-08 0)
(-1.08281 5.63268e-08 0)
(-1.08281 5.58811e-08 0)
(-1.08281 5.14313e-08 0)
(-1.08281 4.556e-08 0)
(-1.08281 4.25261e-08 0)
(-1.08281 3.181e-08 0)
(-1.08281 3.10307e-08 0)
(-1.08281 1.70338e-08 0)
(-1.08281 1.59869e-08 0)
(-1.08281 6.55487e-09 0)
(-0.456156 1.078e-08 0)
(-0.456156 2.44313e-08 0)
(-0.456156 2.61311e-08 0)
(-0.456156 4.26103e-08 0)
(-0.456156 3.92615e-08 0)
(-0.456156 5.47363e-08 0)
(-0.456156 4.92719e-08 0)
(-0.456156 6.08768e-08 0)
(-0.456156 5.40591e-08 0)
(-0.456156 6.09032e-08 0)
(-0.456156 5.3896e-08 0)
(-0.456156 5.52523e-08 0)
(-0.456156 4.91596e-08 0)
(-0.456156 4.5097e-08 0)
(-0.456156 4.06308e-08 0)
(-0.456156 3.15478e-08 0)
(-0.456156 2.96481e-08 0)
(-0.456156 1.67708e-08 0)
(-0.456156 1.56419e-08 0)
(-0.456156 6.10131e-09 0)
(0.297156 1.0522e-08 0)
(0.297156 2.28157e-08 0)
(0.297156 2.46437e-08 0)
(0.297156 4.06039e-08 0)
(0.297156 3.66374e-08 0)
(0.297156 5.22923e-08 0)
(0.297156 4.58838e-08 0)
(0.297156 5.82528e-08 0)
(0.297156 5.02492e-08 0)
(0.297156 5.83554e-08 0)
(0.297156 5.0038e-08 0)
(0.297156 5.29983e-08 0)
(0.297156 4.56151e-08 0)
(0.297156 4.32791e-08 0)
(0.297156 3.77048e-08 0)
(0.297156 3.03088e-08 0)
(0.297156 2.75634e-08 0)
(0.297156 1.59018e-08 0)
(0.297156 1.49575e-08 0)
(0.297156 5.45523e-09 0)
(1.17713 9.98463e-09 0)
(1.17713 2.05805e-08 0)
(1.17713 2.23715e-08 0)
(1.17713 3.74564e-08 0)
(1.17713 3.29579e-08 0)
(1.17713 4.8319e-08 0)
(1.17713 4.12124e-08 0)
(1.17713 5.38907e-08 0)
(1.17713 4.50647e-08 0)
(1.17713 5.40322e-08 0)
(1.17713 4.48393e-08 0)
(1.17713 4.90988e-08 0)
(1.17713 4.08758e-08 0)
(1.17713 4.00863e-08 0)
(1.17713 3.38131e-08 0)
(1.17713 2.80713e-08 0)
(1.17713 2.48187e-08 0)
(1.17713 1.44311e-08 0)
(1.17713 1.3904e-08 0)
(1.17713 4.65416e-09 0)
(2.18375 9.18298e-09 0)
(2.18375 1.78808e-08 0)
(2.18375 1.94551e-08 0)
(2.18375 3.33024e-08 0)
(2.18375 2.84645e-08 0)
(2.18375 4.29714e-08 0)
(2.18375 3.55573e-08 0)
(2.18375 4.79476e-08 0)
(2.18375 3.88355e-08 0)
(2.18375 4.80793e-08 0)
(2.18375 3.86227e-08 0)
(2.18375 4.36781e-08 0)
(2.18375 3.52199e-08 0)
(2.18375 3.56174e-08 0)
(2.18375 2.91883e-08 0)
(2.18375 2.4899e-08 0)
(2.18375 2.15666e-08 0)
(2.18375 1.24337e-08 0)
(2.18375 1.24796e-08 0)
(2.18375 3.75313e-09 0)
(3.31703 8.07733e-09 0)
(3.31703 1.47586e-08 0)
(3.31703 1.59633e-08 0)
(3.31703 2.8137e-08 0)
(3.31703 2.32188e-08 0)
(3.31703 3.62746e-08 0)
(3.31703 2.8977e-08 0)
(3.31703 4.04709e-08 0)
(3.31703 3.1615e-08 0)
(3.31703 4.0566e-08 0)
(3.31703 3.14423e-08 0)
(3.31703 3.68211e-08 0)
(3.31703 2.87096e-08 0)
(3.31703 2.99638e-08 0)
(3.31703 2.38125e-08 0)
(3.31703 2.08752e-08 0)
(3.31703 1.77662e-08 0)
(3.31703 1.00287e-08 0)
(3.31703 1.06265e-08 0)
(3.31703 2.79039e-09 0)
(4.57697 6.47772e-09 0)
(4.57697 1.1446e-08 0)
(4.57697 1.19985e-08 0)
(4.57697 2.20196e-08 0)
(4.57697 1.75214e-08 0)
(4.57697 2.82225e-08 0)
(4.57697 2.19316e-08 0)
(4.57697 3.139e-08 0)
(4.57697 2.39861e-08 0)
(4.57697 3.13657e-08 0)
(4.57697 2.39534e-08 0)
(4.57697 2.83648e-08 0)
(4.57697 2.2027e-08 0)
(4.57697 2.29588e-08 0)
(4.57697 1.82563e-08 0)
(4.57697 1.58401e-08 0)
(4.57697 1.37882e-08 0)
(4.57697 7.23544e-09 0)
(4.57697 8.38962e-09 0)
(4.57697 1.84065e-09 0)
(5.96356 5.46187e-09 0)
(5.96356 8.02902e-09 0)
(5.96356 9.0383e-09 0)
(5.96356 1.63951e-08 0)
(5.96356 1.26435e-08 0)
(5.96356 2.13224e-08 0)
(5.96356 1.54511e-08 0)
(5.96356 2.39603e-08 0)
(5.96356 1.65562e-08 0)
(5.96356 2.41757e-08 0)
(5.96356 1.62647e-08 0)
(5.96356 2.20818e-08 0)
(5.96356 1.47798e-08 0)
(5.96356 1.80622e-08 0)
(5.96356 1.20373e-08 0)
(5.96356 1.26734e-08 0)
(5.96356 9.03152e-09 0)
(5.96356 5.69409e-09 0)
(5.96356 5.97824e-09 0)
(5.96356 1.07826e-09 0)
(7.47681 2.55339e-09 0)
(7.47681 5.01574e-09 0)
(7.47681 4.53077e-09 0)
(7.47681 8.87151e-09 0)
(7.47681 7.27298e-09 0)
(7.47681 1.08345e-08 0)
(7.47681 9.23415e-09 0)
(7.47681 1.16891e-08 0)
(7.47681 1.01222e-08 0)
(7.47681 1.13692e-08 0)
(7.47681 1.01543e-08 0)
(7.47681 9.9962e-09 0)
(7.47681 9.37835e-09 0)
(7.47681 7.82251e-09 0)
(7.47681 7.85034e-09 0)
(7.47681 5.06325e-09 0)
(7.47681 5.95561e-09 0)
(7.47681 2.08164e-09 0)
(7.47681 3.25864e-09 0)
(7.47681 4.48796e-10 0)
(9.11672 1.17704e-09 0)
(9.11672 1.04949e-09 0)
(9.11672 1.67502e-09 0)
(9.11672 2.78385e-09 0)
(9.11672 1.99281e-09 0)
(9.11672 3.86099e-09 0)
(9.11672 2.14431e-09 0)
(9.11672 4.50263e-09 0)
(9.11672 1.9827e-09 0)
(9.11672 4.70782e-09 0)
(9.11672 1.69228e-09 0)
(9.11672 4.46097e-09 0)
(9.11672 1.32579e-09 0)
(9.11672 3.79309e-09 0)
(9.11672 9.3439e-10 0)
(9.11672 2.84097e-09 0)
(9.11672 5.91745e-10 0)
(9.11672 1.36792e-09 0)
(9.11672 7.56662e-10 0)
(9.11672 5.50596e-11 0)
)
;

boundaryField
{
    top
    {
        type            fixedValue;
        value           uniform (10 0 0);
    }
    bottom
    {
        type            fixedValue;
        value           uniform (0 0 0);
    }
    inlet
    {
        type            zeroGradient;
    }
    outlet
    {
        type            zeroGradient;
    }
    frontAndBack
    {
        type            empty;
    }
}


// ************************************************************************* //
