/*--------------------------------*- C++ -*----------------------------------*\
| =========                 |                                                 |
| \\      /  F ield         | OpenFOAM: The Open Source CFD Toolbox           |
|  \\    /   O peration     | Version:  4.1                                   |
|   \\  /    A nd           | Web:      www.OpenFOAM.org                      |
|    \\/     M anipulation  |                                                 |
\*---------------------------------------------------------------------------*/
FoamFile
{
    version     2.0;
    format      ascii;
    class       surfaceScalarField;
    location    "3.6";
    object      phi;
}
// * * * * * * * * * * * * * * * * * * * * * * * * * * * * * * * * * * * * * //

dimensions      [0 3 -1 0 0 0 0];

internalField   nonuniform List<scalar> 
760
(
-1.91641e-05
-5.93589e-14
-1.91641e-05
8.65384e-13
-1.91641e-05
1.32339e-12
-1.91641e-05
1.67088e-12
-1.91641e-05
2.35458e-12
-1.91641e-05
2.37225e-12
-1.91641e-05
3.12979e-12
-1.91641e-05
2.78065e-12
-1.91641e-05
3.55857e-12
-1.91641e-05
2.90641e-12
-1.91641e-05
3.63468e-12
-1.91641e-05
2.76185e-12
-1.91641e-05
3.37762e-12
-1.91641e-05
2.39366e-12
-1.91641e-05
2.82737e-12
-1.91641e-05
1.86046e-12
-1.91641e-05
2.08565e-12
-1.91641e-05
1.2008e-12
-1.91641e-05
1.12065e-12
6.43876e-13
-5.11594e-05
2.44622e-13
-5.11594e-05
2.86806e-12
-5.11594e-05
3.2712e-12
-5.11594e-05
4.99226e-12
-5.11594e-05
5.72869e-12
-5.11594e-05
6.64383e-12
-5.11594e-05
7.62063e-12
-5.11594e-05
7.50333e-12
-5.11594e-05
8.69679e-12
-5.11594e-05
7.60375e-12
-5.11594e-05
8.92376e-12
-5.11594e-05
7.00122e-12
-5.11594e-05
8.35001e-12
-5.11594e-05
5.83152e-12
-5.11594e-05
7.05957e-12
-5.11594e-05
4.29257e-12
-5.11594e-05
5.25972e-12
-5.11594e-05
2.50321e-12
-5.11594e-05
2.87215e-12
1.31262e-12
-7.68219e-05
8.48348e-13
-7.68219e-05
5.35022e-12
-7.68219e-05
5.74398e-12
-7.68219e-05
8.84035e-12
-7.68219e-05
9.82791e-12
-7.68219e-05
1.14935e-11
-7.68219e-05
1.29674e-11
-7.68219e-05
1.27997e-11
-7.68219e-05
1.47416e-11
-7.68219e-05
1.28212e-11
-7.68219e-05
1.50809e-11
-7.68219e-05
1.16691e-11
-7.68219e-05
1.40745e-11
-7.68219e-05
9.58168e-12
-7.68219e-05
1.1868e-11
-7.68219e-05
6.91524e-12
-7.68219e-05
8.77645e-12
-7.68219e-05
3.89821e-12
-7.68219e-05
4.75058e-12
2.00052e-12
-9.61516e-05
1.57665e-12
-9.61516e-05
7.9386e-12
-9.61516e-05
8.23779e-12
-9.61516e-05
1.28457e-11
-9.61516e-05
1.37727e-11
-9.61516e-05
1.65702e-11
-9.61516e-05
1.80261e-11
-9.61516e-05
1.83685e-11
-9.61516e-05
2.04038e-11
-9.61516e-05
1.83288e-11
-9.61516e-05
2.08033e-11
-9.61516e-05
1.66147e-11
-9.61516e-05
1.93613e-11
-9.61516e-05
1.35636e-11
-9.61516e-05
1.62908e-11
-9.61516e-05
9.69562e-12
-9.61516e-05
1.1988e-11
-9.61516e-05
5.36953e-12
-9.61516e-05
6.52338e-12
2.58789e-12
-0.000109148
2.32774e-12
-0.000109148
1.04372e-11
-0.000109148
1.06553e-11
-0.000109148
1.67166e-11
-0.000109148
1.74681e-11
-0.000109148
2.15022e-11
-0.000109148
2.27019e-11
-0.000109148
2.37988e-11
-0.000109148
2.55935e-11
-0.000109148
2.37184e-11
-0.000109148
2.60112e-11
-0.000109148
2.14718e-11
-0.000109148
2.41421e-11
-0.000109148
1.74895e-11
-0.000109148
2.02688e-11
-0.000109148
1.24466e-11
-0.000109148
1.48492e-11
-0.000109148
6.84747e-12
-0.000109148
8.11453e-12
3.08955e-12
-0.000115812
3.02605e-12
-0.000115812
1.26727e-11
-0.000115812
1.27949e-11
-0.000115812
2.02141e-11
-0.000115812
2.06266e-11
-0.000115812
2.59725e-11
-0.000115812
2.66532e-11
-0.000115813
2.87308e-11
-0.000115812
2.99478e-11
-0.000115813
2.86227e-11
-0.000115812
3.03563e-11
-0.000115813
2.58985e-11
-0.000115812
2.81128e-11
-0.000115813
2.10699e-11
-0.000115812
2.3564e-11
-0.000115813
1.49518e-11
-0.000115812
1.72054e-11
-0.000115813
8.19595e-12
-0.000115813
9.44793e-12
3.4517e-12
-0.000116144
3.63038e-12
-0.000116144
1.45192e-11
-0.000116144
1.45471e-11
-0.000116144
2.31578e-11
-0.000116144
2.31037e-11
-0.000116144
2.97398e-11
-0.000116144
2.97097e-11
-0.000116144
3.28915e-11
-0.000116144
3.32859e-11
-0.000116144
3.2764e-11
-0.000116144
3.36642e-11
-0.000116144
2.96393e-11
-0.000116144
3.11192e-11
-0.000116144
2.40915e-11
-0.000116144
2.60519e-11
-0.000116144
1.70565e-11
-0.000116144
1.89712e-11
-0.000116144
9.32243e-12
-0.000116144
1.04768e-11
3.65176e-12
-0.000110142
4.12756e-12
-0.000110142
1.59054e-11
-0.000110142
1.58578e-11
-0.000110142
2.54536e-11
-0.000110142
2.48384e-11
-0.000110142
3.26759e-11
-0.000110142
3.18023e-11
-0.000110142
3.6134e-11
-0.000110142
3.55359e-11
-0.000110142
3.59916e-11
-0.000110142
3.58669e-11
-0.000110142
3.25529e-11
-0.000110142
3.31021e-11
-0.000110142
2.64373e-11
-0.000110142
2.76844e-11
-0.000110142
1.86772e-11
-0.000110142
2.01146e-11
-0.000110142
1.01725e-11
-0.000110142
1.11868e-11
3.68032e-12
-9.78078e-05
4.5172e-12
-9.78078e-05
1.67875e-11
-9.78078e-05
1.66962e-11
-9.78078e-05
2.70363e-11
-9.78078e-05
2.58102e-11
-9.78078e-05
3.4691e-11
-9.78078e-05
3.2911e-11
-9.78078e-05
3.83562e-11
-9.78078e-05
3.66796e-11
-9.78078e-05
3.82001e-11
-9.78078e-05
3.69489e-11
-9.78078e-05
3.45409e-11
-9.78078e-05
3.40493e-11
-9.78078e-05
2.80256e-11
-9.78078e-05
2.84511e-11
-9.78078e-05
1.97557e-11
-9.78078e-05
2.06297e-11
-9.78078e-05
1.07071e-11
-9.78078e-05
1.15768e-11
3.54192e-12
-7.91406e-05
4.80542e-12
-7.91406e-05
1.71456e-11
-7.91406e-05
1.70432e-11
-7.91406e-05
2.78644e-11
-7.91406e-05
2.60215e-11
-7.91406e-05
3.5729e-11
-7.91406e-05
3.30465e-11
-7.91406e-05
3.94947e-11
-7.91406e-05
3.67336e-11
-7.91406e-05
3.93244e-11
-7.91406e-05
3.69308e-11
-7.91406e-05
3.55433e-11
-7.91406e-05
3.39821e-11
-7.91406e-05
2.88075e-11
-7.91406e-05
2.83702e-11
-7.91406e-05
2.02586e-11
-7.91406e-05
2.05334e-11
-7.91406e-05
1.0902e-11
-7.91406e-05
1.16557e-11
3.25558e-12
-5.41406e-05
4.99961e-12
-5.41406e-05
1.69787e-11
-5.41406e-05
1.68868e-11
-5.41406e-05
2.791e-11
-5.41406e-05
2.54881e-11
-5.41406e-05
3.57541e-11
-5.41406e-05
3.22365e-11
-5.41406e-05
3.95098e-11
-5.41406e-05
3.57356e-11
-5.41406e-05
3.93249e-11
-5.41406e-05
3.58555e-11
-5.41406e-05
3.55243e-11
-5.41406e-05
3.2943e-11
-5.41406e-05
2.87554e-11
-5.41406e-05
2.74785e-11
-5.41406e-05
2.0168e-11
-5.41406e-05
1.98579e-11
-5.41406e-05
1.07446e-11
-5.41406e-05
1.14361e-11
2.85183e-12
-2.28078e-05
5.1046e-12
-2.28078e-05
1.63024e-11
-2.28078e-05
1.62242e-11
-2.28078e-05
2.71556e-11
-2.28078e-05
2.42363e-11
-2.28078e-05
3.47477e-11
-2.28078e-05
3.05241e-11
-2.28078e-05
3.83827e-11
-2.28078e-05
3.3741e-11
-2.28078e-05
3.81839e-11
-2.28078e-05
3.37839e-11
-2.28078e-05
3.44693e-11
-2.28078e-05
3.09919e-11
-2.28078e-05
2.78608e-11
-2.28078e-05
2.58281e-11
-2.28078e-05
1.94809e-11
-2.28078e-05
1.86475e-11
-2.28078e-05
1.02354e-11
-2.28078e-05
1.09298e-11
2.3684e-12
1.48578e-05
5.11853e-12
1.48578e-05
1.51468e-11
1.48578e-05
1.50668e-11
1.48578e-05
2.5596e-11
1.48578e-05
2.2306e-11
1.48578e-05
3.271e-11
1.48578e-05
2.79686e-11
1.48578e-05
3.61157e-11
1.48578e-05
3.08238e-11
1.48578e-05
3.59062e-11
1.48578e-05
3.07959e-11
1.48578e-05
3.2386e-11
1.48578e-05
2.82059e-11
1.48578e-05
2.61341e-11
1.48578e-05
2.34854e-11
1.48578e-05
1.82084e-11
1.48578e-05
1.69557e-11
1.48578e-05
9.38987e-12
1.48578e-05
1.01462e-11
1.84484e-12
5.88562e-05
5.02892e-12
5.88562e-05
1.35582e-11
5.88562e-05
1.34497e-11
5.88562e-05
2.32481e-11
5.88563e-05
1.97595e-11
5.88562e-05
2.96698e-11
5.88563e-05
2.46577e-11
5.88562e-05
3.27432e-11
5.88563e-05
2.70882e-11
5.88562e-05
3.25292e-11
5.88563e-05
2.70011e-11
5.88562e-05
2.93114e-11
5.88563e-05
2.46881e-11
5.88562e-05
2.36105e-11
5.88563e-05
2.05379e-11
5.88563e-05
1.63803e-11
5.88563e-05
1.48472e-11
5.88563e-05
8.24317e-12
5.88563e-05
9.09428e-12
1.31825e-12
0.000109187
4.8063e-12
0.000109187
1.1593e-11
0.000109187
1.1434e-11
0.000109187
2.01545e-11
0.000109187
1.66825e-11
0.000109187
2.56879e-11
0.000109188
2.07057e-11
0.000109187
2.83347e-11
0.000109188
2.26658e-11
0.000109187
2.8126e-11
0.000109188
2.25341e-11
0.000109187
2.53163e-11
0.000109188
2.05646e-11
0.000109187
2.03526e-11
0.000109188
1.70895e-11
0.000109188
1.4048e-11
0.000109188
1.23907e-11
0.000109188
6.85161e-12
0.000109188
7.784e-12
8.19451e-13
0.000165852
4.39808e-12
0.000165852
9.33957e-12
0.000165852
9.13274e-12
0.000165852
1.64288e-11
0.000165852
1.32341e-11
0.000165852
2.09105e-11
0.000165852
1.63197e-11
0.000165852
2.30516e-11
0.000165852
1.77889e-11
0.000165852
2.28597e-11
0.000165852
1.76291e-11
0.000165852
2.05509e-11
0.000165852
1.60493e-11
0.000165852
1.64866e-11
0.000165852
1.33175e-11
0.000165852
1.13094e-11
0.000165852
9.69916e-12
0.000165852
5.3064e-12
0.000165852
6.24876e-12
3.80777e-13
0.000228848
3.76712e-12
0.000228848
6.9153e-12
0.000228848
6.72847e-12
0.000228848
1.2277e-11
0.000228848
9.65925e-12
0.000228848
1.56071e-11
0.000228848
1.17999e-11
0.000228848
1.71989e-11
0.000228848
1.27786e-11
0.000228848
1.70421e-11
0.000228848
1.2598e-11
0.000228848
1.53061e-11
0.000228848
1.14171e-11
0.000228848
1.22584e-11
0.000228848
9.43971e-12
0.000228848
8.35466e-12
0.000228848
6.90082e-12
0.000228848
3.75434e-12
0.000228848
4.54471e-12
3.66275e-14
0.000298178
2.73454e-12
0.000298178
4.42589e-12
0.000298178
4.26873e-12
0.000298178
7.80396e-12
0.000298178
6.08165e-12
0.000298178
9.87038e-12
0.000298178
7.34625e-12
0.000298178
1.08487e-11
0.000298178
7.88995e-12
0.000298178
1.07218e-11
0.000298178
7.72419e-12
0.000298178
9.60372e-12
0.000298178
6.95245e-12
0.000298178
7.66484e-12
0.000298178
5.70814e-12
0.000298178
5.17346e-12
0.000298178
4.16968e-12
0.000298178
2.21504e-12
0.000298178
2.74906e-12
-1.63199e-13
0.000373841
1.42546e-12
0.000373841
2.01285e-12
0.000373841
1.98229e-12
0.000373841
3.3285e-12
0.000373841
2.75979e-12
0.000373841
4.12668e-12
0.000373841
3.23111e-12
0.000373841
4.49293e-12
0.000373841
3.382e-12
0.000373841
4.40828e-12
0.000373841
3.23149e-12
0.000373841
3.92316e-12
0.000373841
2.83032e-12
0.000373841
3.11051e-12
0.000373841
2.24367e-12
0.000373841
2.06742e-12
0.000373841
1.56683e-12
0.000373841
8.36318e-13
0.000373841
9.53205e-13
-1.96327e-13
0.000455836
0.000455836
0.000455836
0.000455836
0.000455836
0.000455836
0.000455836
0.000455836
0.000455836
0.000455836
0.000455836
0.000455836
0.000455836
0.000455836
0.000455836
0.000455836
0.000455836
0.000455836
0.000455836
)
;

boundaryField
{
    top
    {
        type            calculated;
        value           uniform 0;
    }
    bottom
    {
        type            calculated;
        value           uniform 0;
    }
    inlet
    {
        type            calculated;
        value           nonuniform List<scalar> 
20
(
1.91641e-05
5.11594e-05
7.68219e-05
9.61516e-05
0.000109148
0.000115812
0.000116144
0.000110142
9.78078e-05
7.91406e-05
5.41406e-05
2.28078e-05
-1.48578e-05
-5.88562e-05
-0.000109187
-0.000165852
-0.000228848
-0.000298178
-0.000373841
-0.000455836
)
;
    }
    outlet
    {
        type            calculated;
        value           nonuniform List<scalar> 
20
(
-1.91641e-05
-5.11594e-05
-7.68219e-05
-9.61516e-05
-0.000109148
-0.000115813
-0.000116144
-0.000110142
-9.78078e-05
-7.91406e-05
-5.41406e-05
-2.28078e-05
1.48578e-05
5.88563e-05
0.000109188
0.000165852
0.000228848
0.000298178
0.000373841
0.000455836
)
;
    }
    frontAndBack
    {
        type            empty;
        value           nonuniform 0();
    }
}


// ************************************************************************* //
