/*--------------------------------*- C++ -*----------------------------------*\
| =========                 |                                                 |
| \\      /  F ield         | OpenFOAM: The Open Source CFD Toolbox           |
|  \\    /   O peration     | Version:  4.1                                   |
|   \\  /    A nd           | Web:      www.OpenFOAM.org                      |
|    \\/     M anipulation  |                                                 |
\*---------------------------------------------------------------------------*/
FoamFile
{
    version     2.0;
    format      ascii;
    class       volVectorField;
    location    "3.6";
    object      U;
}
// * * * * * * * * * * * * * * * * * * * * * * * * * * * * * * * * * * * * * //

dimensions      [0 1 -1 0 0 0 0];

internalField   nonuniform List<vector> 
400
(
(-0.383281 -3.97681e-11 0)
(-0.383281 3.81375e-10 0)
(-0.383281 1.08203e-09 0)
(-0.383281 4.54514e-10 0)
(-0.383281 1.88038e-09 0)
(-0.383281 6.17303e-10 0)
(-0.383281 2.41547e-09 0)
(-0.383281 7.07421e-10 0)
(-0.383281 2.68828e-09 0)
(-0.383281 7.38025e-10 0)
(-0.383281 2.68956e-09 0)
(-0.383281 7.16387e-10 0)
(-0.383281 2.43172e-09 0)
(-0.383281 6.77597e-10 0)
(-0.383281 1.94758e-09 0)
(-0.383281 6.21147e-10 0)
(-0.383281 1.33037e-09 0)
(-0.383281 5.62842e-10 0)
(-0.383281 4.67653e-10 0)
(-0.383281 4.33733e-10 0)
(-1.02319 2.29911e-10 0)
(-1.02319 2.11835e-09 0)
(-1.02319 2.22969e-09 0)
(-1.02319 4.05292e-09 0)
(-1.02319 3.79111e-09 0)
(-1.02319 5.47255e-09 0)
(-1.02319 5.00039e-09 0)
(-1.02319 6.23889e-09 0)
(-1.02319 5.68784e-09 0)
(-1.02319 6.36153e-09 0)
(-1.02319 5.83923e-09 0)
(-1.02319 5.88375e-09 0)
(-1.02319 5.49249e-09 0)
(-1.02319 4.89967e-09 0)
(-1.02319 4.70474e-09 0)
(-1.02319 3.59706e-09 0)
(-1.02319 3.60371e-09 0)
(-1.02319 2.02856e-09 0)
(-1.02319 2.1214e-09 0)
(-1.02319 8.2577e-10 0)
(-1.53644 5.82586e-10 0)
(-1.53644 4.11529e-09 0)
(-1.53644 5.03808e-09 0)
(-1.53644 6.76533e-09 0)
(-1.53644 8.68338e-09 0)
(-1.53644 8.87292e-09 0)
(-1.53644 1.1417e-08 0)
(-1.53644 9.94473e-09 0)
(-1.53644 1.29306e-08 0)
(-1.53644 1.00428e-08 0)
(-1.53644 1.31736e-08 0)
(-1.53644 9.26212e-09 0)
(-1.53644 1.2221e-08 0)
(-1.53644 7.67241e-09 0)
(-1.53644 1.02071e-08 0)
(-1.53644 5.65172e-09 0)
(-1.53644 7.44439e-09 0)
(-1.53644 3.35962e-09 0)
(-1.53644 3.81674e-09 0)
(-1.53644 1.88905e-09 0)
(-1.92303 1.21449e-09 0)
(-1.92303 6.67e-09 0)
(-1.92303 6.83261e-09 0)
(-1.92303 1.09222e-08 0)
(-1.92303 1.15389e-08 0)
(-1.92303 1.41111e-08 0)
(-1.92303 1.51718e-08 0)
(-1.92303 1.56436e-08 0)
(-1.92303 1.72221e-08 0)
(-1.92303 1.5644e-08 0)
(-1.92303 1.76037e-08 0)
(-1.92303 1.42443e-08 0)
(-1.92303 1.64268e-08 0)
(-1.92303 1.15932e-08 0)
(-1.92303 1.38635e-08 0)
(-1.92303 8.25081e-09 0)
(-1.92303 1.02566e-08 0)
(-1.92303 4.53318e-09 0)
(-1.92303 5.61768e-09 0)
(-1.92303 2.19871e-09 0)
(-2.18297 1.93013e-09 0)
(-2.18297 9.15799e-09 0)
(-2.18297 9.37316e-09 0)
(-2.18297 1.47125e-08 0)
(-2.18297 1.55135e-08 0)
(-2.18297 1.89345e-08 0)
(-2.18297 2.02351e-08 0)
(-2.18297 2.09446e-08 0)
(-2.18297 2.28623e-08 0)
(-2.18297 2.08871e-08 0)
(-2.18297 2.32767e-08 0)
(-2.18297 1.89306e-08 0)
(-2.18297 2.1639e-08 0)
(-2.18297 1.54254e-08 0)
(-2.18297 1.81929e-08 0)
(-2.18297 1.09866e-08 0)
(-2.18297 1.33621e-08 0)
(-2.18297 6.05056e-09 0)
(-2.18297 7.29644e-09 0)
(-2.18297 2.81408e-09 0)
(-2.31625 2.64895e-09 0)
(-2.31625 1.1527e-08 0)
(-2.31625 1.16289e-08 0)
(-2.31625 1.83951e-08 0)
(-2.31625 1.8907e-08 0)
(-2.31625 2.3638e-08 0)
(-2.31625 2.45124e-08 0)
(-2.31625 2.61448e-08 0)
(-2.31625 2.75997e-08 0)
(-2.31625 2.60422e-08 0)
(-2.31625 2.80237e-08 0)
(-2.31625 2.35572e-08 0)
(-2.31625 2.59929e-08 0)
(-2.31625 1.91693e-08 0)
(-2.31625 2.1818e-08 0)
(-2.31625 1.36133e-08 0)
(-2.31625 1.59694e-08 0)
(-2.31625 7.46102e-09 0)
(-2.31625 8.76982e-09 0)
(-2.31625 3.23879e-09 0)
(-2.32287 3.29287e-09 0)
(-2.32287 1.35561e-08 0)
(-2.32287 1.35593e-08 0)
(-2.32287 2.15822e-08 0)
(-2.32287 2.17e-08 0)
(-2.32287 2.77145e-08 0)
(-2.32287 2.79877e-08 0)
(-2.32287 3.0648e-08 0)
(-2.32287 3.14171e-08 0)
(-2.32287 3.05221e-08 0)
(-2.32287 3.18234e-08 0)
(-2.32287 2.76039e-08 0)
(-2.32288 2.94586e-08 0)
(-2.32287 2.24359e-08 0)
(-2.32288 2.46919e-08 0)
(-2.32287 1.58909e-08 0)
(-2.32288 1.80184e-08 0)
(-2.32287 8.68455e-09 0)
(-2.32288 9.94636e-09 0)
(-2.32288 3.51395e-09 0)
(-2.20284 3.84298e-09 0)
(-2.20284 1.51825e-08 0)
(-2.20284 1.50903e-08 0)
(-2.20284 2.42162e-08 0)
(-2.20284 2.38055e-08 0)
(-2.20284 3.10862e-08 0)
(-2.20284 3.05647e-08 0)
(-2.20284 3.437e-08 0)
(-2.20284 3.42164e-08 0)
(-2.20284 3.42276e-08 0)
(-2.20284 3.45864e-08 0)
(-2.20284 3.09514e-08 0)
(-2.20284 3.19628e-08 0)
(-2.20284 2.5136e-08 0)
(-2.20284 2.6763e-08 0)
(-2.20284 1.77646e-08 0)
(-2.20284 1.94836e-08 0)
(-2.20284 9.67807e-09 0)
(-2.20284 1.08274e-08 0)
(-2.20284 3.62679e-09 0)
(-1.95616 4.28207e-09 0)
(-1.95616 1.63197e-08 0)
(-1.95616 1.61613e-08 0)
(-1.95616 2.61528e-08 0)
(-1.95616 2.5153e-08 0)
(-1.95616 3.356e-08 0)
(-1.95616 3.21604e-08 0)
(-1.95616 3.70989e-08 0)
(-1.95616 3.59097e-08 0)
(-1.95616 3.69412e-08 0)
(-1.95616 3.62269e-08 0)
(-1.95616 3.33971e-08 0)
(-1.95616 3.34278e-08 0)
(-1.95616 2.70975e-08 0)
(-1.95616 2.79643e-08 0)
(-1.95616 1.91092e-08 0)
(-1.95616 2.03154e-08 0)
(-1.95616 1.03667e-08 0)
(-1.95616 1.13815e-08 0)
(-1.95616 3.5704e-09 0)
(-1.58281 4.61546e-09 0)
(-1.58281 1.69434e-08 0)
(-1.58281 1.67521e-08 0)
(-1.58281 2.73603e-08 0)
(-1.58281 2.57413e-08 0)
(-1.58281 3.50866e-08 0)
(-1.58281 3.27801e-08 0)
(-1.58281 3.87775e-08 0)
(-1.58281 3.65072e-08 0)
(-1.58281 3.86042e-08 0)
(-1.58281 3.67588e-08 0)
(-1.58281 3.48877e-08 0)
(-1.58281 3.38688e-08 0)
(-1.58281 2.82773e-08 0)
(-1.58281 2.83092e-08 0)
(-1.58281 1.98946e-08 0)
(-1.58281 2.05271e-08 0)
(-1.58281 1.0727e-08 0)
(-1.58281 1.16186e-08 0)
(-1.58281 3.35801e-09 0)
(-1.08281 4.85067e-09 0)
(-1.08281 1.70431e-08 0)
(-1.08281 1.68488e-08 0)
(-1.08281 2.78042e-08 0)
(-1.08281 2.55815e-08 0)
(-1.08281 3.56206e-08 0)
(-1.08281 3.24451e-08 0)
(-1.08281 3.93546e-08 0)
(-1.08281 3.60379e-08 0)
(-1.08281 3.91652e-08 0)
(-1.08281 3.6215e-08 0)
(-1.08281 3.53762e-08 0)
(-1.08281 3.33188e-08 0)
(-1.08281 2.86377e-08 0)
(-1.08281 2.78257e-08 0)
(-1.08281 2.00961e-08 0)
(-1.08281 2.0143e-08 0)
(-1.08281 1.07414e-08 0)
(-1.08281 1.15491e-08 0)
(-1.08281 3.01428e-09 0)
(-0.456156 4.99449e-09 0)
(-0.456156 1.66257e-08 0)
(-0.456156 1.64441e-08 0)
(-0.456156 2.74575e-08 0)
(-0.456156 2.46951e-08 0)
(-0.456156 3.5135e-08 0)
(-0.456156 3.11909e-08 0)
(-0.456156 3.88017e-08 0)
(-0.456156 3.45485e-08 0)
(-0.456156 3.85958e-08 0)
(-0.456156 3.46477e-08 0)
(-0.456156 3.48382e-08 0)
(-0.456156 3.18287e-08 0)
(-0.456156 2.81617e-08 0)
(-0.456156 2.6558e-08 0)
(-0.456156 1.97038e-08 0)
(-0.456156 1.92012e-08 0)
(-0.456156 1.04044e-08 0)
(-0.456156 1.11848e-08 0)
(-0.456156 2.57308e-09 0)
(0.297156 5.04961e-09 0)
(0.297156 1.57139e-08 0)
(0.297156 1.55423e-08 0)
(0.297156 2.63096e-08 0)
(0.297156 2.31155e-08 0)
(0.297156 3.36206e-08 0)
(0.297156 2.90691e-08 0)
(0.297156 3.71105e-08 0)
(0.297156 3.2104e-08 0)
(0.297156 3.68902e-08 0)
(0.297156 3.21276e-08 0)
(0.297156 3.32705e-08 0)
(0.297156 2.94673e-08 0)
(0.297156 2.68505e-08 0)
(0.297156 2.45654e-08 0)
(0.297156 1.8722e-08 0)
(0.297156 1.77508e-08 0)
(0.297156 9.72395e-09 0)
(0.297156 1.05363e-08 0)
(0.297156 2.07248e-09 0)
(1.17712 5.00987e-09 0)
(1.17712 1.43359e-08 0)
(1.17712 1.41553e-08 0)
(1.17712 2.43521e-08 0)
(1.17712 2.0874e-08 0)
(1.17712 3.1074e-08 0)
(1.17712 2.61273e-08 0)
(1.17712 3.42809e-08 0)
(1.17713 2.87642e-08 0)
(1.17712 3.4052e-08 0)
(1.17713 2.87197e-08 0)
(1.17712 3.06808e-08 0)
(1.17713 2.62977e-08 0)
(1.17713 2.47157e-08 0)
(1.17713 2.19035e-08 0)
(1.17713 1.7164e-08 0)
(1.17713 1.5835e-08 0)
(1.17713 8.72117e-09 0)
(1.17713 9.60645e-09 0)
(1.17713 1.54737e-09 0)
(2.18375 4.86102e-09 0)
(2.18375 1.25743e-08 0)
(2.18375 1.23666e-08 0)
(2.18375 2.1662e-08 0)
(2.18375 1.81079e-08 0)
(2.18375 2.75996e-08 0)
(2.18375 2.255e-08 0)
(2.18375 3.04285e-08 0)
(2.18375 2.47415e-08 0)
(2.18375 3.01976e-08 0)
(2.18375 2.46406e-08 0)
(2.18375 2.71765e-08 0)
(2.18375 2.25147e-08 0)
(2.18375 2.18485e-08 0)
(2.18375 1.87374e-08 0)
(2.18375 1.50993e-08 0)
(2.18375 1.35751e-08 0)
(2.18375 7.45868e-09 0)
(2.18375 8.42889e-09 0)
(2.18375 1.04089e-09 0)
(3.31703 4.56482e-09 0)
(3.31703 1.04541e-08 0)
(3.31703 1.02174e-08 0)
(3.31703 1.82503e-08 0)
(3.31703 1.48528e-08 0)
(3.31703 2.32243e-08 0)
(3.31703 1.83825e-08 0)
(3.31703 2.55927e-08 0)
(3.31703 2.00877e-08 0)
(3.31703 2.53768e-08 0)
(3.31703 1.99487e-08 0)
(3.31703 2.28129e-08 0)
(3.31703 1.8193e-08 0)
(3.31703 1.83034e-08 0)
(3.31703 1.51033e-08 0)
(3.31703 1.25785e-08 0)
(3.31703 1.09848e-08 0)
(3.31703 5.99848e-09 0)
(3.31703 6.99302e-09 0)
(3.31703 5.72081e-10 0)
(4.57697 3.90569e-09 0)
(4.57697 8.09146e-09 0)
(4.57697 7.75956e-09 0)
(4.57697 1.42061e-08 0)
(4.57697 1.12744e-08 0)
(4.57697 1.80145e-08 0)
(4.57697 1.39071e-08 0)
(4.57697 1.98071e-08 0)
(4.57697 1.51768e-08 0)
(4.57697 1.9594e-08 0)
(4.57697 1.50682e-08 0)
(4.57697 1.75666e-08 0)
(4.57697 1.37933e-08 0)
(4.57697 1.40404e-08 0)
(4.57697 1.14061e-08 0)
(4.57697 9.56097e-09 0)
(4.57697 8.3436e-09 0)
(4.57697 4.35833e-09 0)
(4.57697 5.39003e-09 0)
(4.57697 2.08642e-10 0)
(5.96356 3.69745e-09 0)
(5.96356 5.68453e-09 0)
(5.96356 5.90603e-09 0)
(5.96356 1.04233e-08 0)
(5.96356 8.23188e-09 0)
(5.96356 1.34035e-08 0)
(5.96356 9.84401e-09 0)
(5.96356 1.4903e-08 0)
(5.96356 1.04786e-08 0)
(5.96356 1.48792e-08 0)
(5.96356 1.01799e-08 0)
(5.96356 1.3472e-08 0)
(5.96356 9.16366e-09 0)
(5.96356 1.08993e-08 0)
(5.96356 7.41269e-09 0)
(5.96356 7.52371e-09 0)
(5.96356 5.3344e-09 0)
(5.96356 3.43484e-09 0)
(5.96356 3.62356e-09 0)
(5.96356 -7.4217e-11 0)
(7.47681 1.75168e-09 0)
(7.47681 3.3859e-09 0)
(7.47681 3.05397e-09 0)
(7.47681 5.64686e-09 0)
(7.47681 4.72476e-09 0)
(7.47681 6.98348e-09 0)
(7.47681 5.86964e-09 0)
(7.47681 7.54975e-09 0)
(7.47681 6.36512e-09 0)
(7.47681 7.32217e-09 0)
(7.47681 6.29174e-09 0)
(7.47681 6.44025e-09 0)
(7.47681 5.74337e-09 0)
(7.47681 5.03685e-09 0)
(7.47681 4.75215e-09 0)
(7.47681 3.30208e-09 0)
(7.47681 3.49075e-09 0)
(7.47681 1.37184e-09 0)
(7.47681 2.05337e-09 0)
(7.47681 -3.43639e-11 0)
(9.11672 9.556e-10 0)
(9.11672 7.71642e-10 0)
(9.11672 1.10565e-09 0)
(9.11672 1.7101e-09 0)
(9.11672 1.35037e-09 0)
(9.11672 2.33656e-09 0)
(9.11672 1.42872e-09 0)
(9.11672 2.71724e-09 0)
(9.11672 1.30794e-09 0)
(9.11672 2.79004e-09 0)
(9.11672 1.10365e-09 0)
(9.11672 2.60901e-09 0)
(9.11672 8.42481e-10 0)
(9.11672 2.19569e-09 0)
(9.11672 5.76725e-10 0)
(9.11672 1.59588e-09 0)
(9.11672 3.34789e-10 0)
(9.11672 8.07429e-10 0)
(9.11672 3.60429e-10 0)
(9.11672 -1.27807e-10 0)
)
;

boundaryField
{
    top
    {
        type            fixedValue;
        value           uniform (10 0 0);
    }
    bottom
    {
        type            fixedValue;
        value           uniform (0 0 0);
    }
    inlet
    {
        type            zeroGradient;
    }
    outlet
    {
        type            zeroGradient;
    }
    frontAndBack
    {
        type            empty;
    }
}


// ************************************************************************* //
