/*--------------------------------*- C++ -*----------------------------------*\
| =========                 |                                                 |
| \\      /  F ield         | OpenFOAM: The Open Source CFD Toolbox           |
|  \\    /   O peration     | Version:  4.1                                   |
|   \\  /    A nd           | Web:      www.OpenFOAM.org                      |
|    \\/     M anipulation  |                                                 |
\*---------------------------------------------------------------------------*/
FoamFile
{
    version     2.0;
    format      ascii;
    class       surfaceScalarField;
    location    "1.9";
    object      phi;
}
// * * * * * * * * * * * * * * * * * * * * * * * * * * * * * * * * * * * * * //

dimensions      [0 3 -1 0 0 0 0];

internalField   nonuniform List<scalar> 
760
(
3.16638e-05
8.22108e-13
3.16638e-05
-5.72682e-12
3.16638e-05
6.05254e-13
3.16638e-05
-8.45857e-13
3.16638e-05
1.56215e-12
3.16638e-05
-1.88852e-12
3.16638e-05
2.46441e-13
3.16638e-05
-1.3178e-12
3.16638e-05
-5.03364e-13
3.16638e-05
-1.39821e-12
3.16638e-05
-1.74299e-12
3.16638e-05
-1.57686e-12
3.16638e-05
-2.86158e-12
3.16638e-05
-2.21651e-12
3.16638e-05
-3.50379e-12
3.16638e-05
-3.26269e-12
3.16638e-05
-2.68675e-12
3.16638e-05
-3.14111e-12
3.16638e-05
-2.66989e-12
-2.22221e-12
8.86587e-05
6.08266e-13
8.86587e-05
-1.1685e-11
8.86587e-05
4.65895e-13
8.86587e-05
-2.74209e-13
8.86587e-05
2.30137e-12
8.86587e-05
-8.33836e-13
8.86587e-05
-2.97588e-13
8.86587e-05
1.64784e-12
8.86587e-05
-9.8946e-13
8.86587e-05
3.016e-12
8.86587e-05
-1.7898e-12
8.86587e-05
4.16875e-12
8.86587e-05
-1.42151e-12
8.86587e-05
4.12112e-12
8.86587e-05
2.42662e-13
8.86587e-05
2.3852e-12
8.86587e-05
2.53079e-12
8.86587e-05
1.36404e-12
8.86587e-05
-2.28183e-12
-5.14635e-12
0.000139321
8.55834e-15
0.000139321
-1.70793e-11
0.000139321
-4.56107e-13
0.000139321
9.16512e-13
0.000139321
2.1912e-12
0.000139321
1.64254e-12
0.000139321
-1.77471e-12
0.000139321
6.27951e-12
0.000139321
-2.29494e-12
0.000139321
9.37602e-12
0.000139321
-2.25026e-12
0.000139321
1.19271e-11
0.000139321
2.62655e-13
0.000139321
1.23301e-11
0.000139321
4.94524e-12
0.000139321
9.50553e-12
0.000139321
8.51419e-12
0.000139321
6.85473e-12
0.000139321
-2.77785e-12
-9.54715e-12
0.00018365
-7.72425e-13
0.00018365
-2.13505e-11
0.00018365
-1.55937e-12
0.00018365
1.9885e-12
0.00018365
1.81324e-12
0.00018365
4.16083e-12
0.00018365
-3.37668e-12
0.00018365
1.06659e-11
0.00018365
-3.77689e-12
0.00018365
1.52763e-11
0.00018365
-2.95658e-12
0.00018365
1.8944e-11
0.00018365
1.50101e-12
0.00018365
1.95649e-11
0.00018365
8.89609e-12
0.00018365
1.55362e-11
0.00018365
1.34045e-11
0.00018365
1.15165e-11
0.00018365
-4.11367e-12
-1.41343e-11
0.000221647
-1.15065e-12
0.000221647
-2.4114e-11
0.000221647
-2.60667e-12
0.000221647
2.85745e-12
0.000221647
1.30311e-12
0.000221647
6.48554e-12
0.000221647
-4.99377e-12
0.000221647
1.45055e-11
0.000221647
-5.36929e-12
0.000221647
2.03381e-11
0.000221647
-3.94559e-12
0.000221647
2.47772e-11
0.000221647
2.11365e-12
0.000221647
2.53293e-11
0.000221647
1.177e-11
0.000221647
1.9974e-11
0.000221647
1.68802e-11
0.000221647
1.48831e-11
0.000221647
-6.00173e-12
-1.84913e-11
0.00025331
-9.21145e-13
0.00025331
-2.50198e-11
0.00025331
-3.31019e-12
0.00025331
3.50186e-12
0.00025331
7.98718e-13
0.00025331
8.48598e-12
0.00025331
-6.37903e-12
0.00025331
1.7664e-11
0.00025331
-6.75659e-12
0.00025331
2.44642e-11
0.00025331
-4.82808e-12
0.00025331
2.94393e-11
0.00025331
2.54675e-12
0.00025331
2.98138e-11
0.00025331
1.40524e-11
0.00025331
2.32216e-11
0.00025331
1.94833e-11
0.00025331
1.73418e-11
0.00025331
-7.66025e-12
-2.19227e-11
0.000278641
1.73346e-14
0.000278641
-2.40405e-11
0.000278641
-3.48344e-12
0.000278641
3.92882e-12
0.000278641
4.02738e-13
0.000278641
1.00599e-11
0.000278641
-7.3843e-12
0.000278641
2.00514e-11
0.000278641
-7.75644e-12
0.000278641
2.75852e-11
0.000278641
-5.39515e-12
0.000278641
3.29315e-11
0.000278641
3.02498e-12
0.000278641
3.31251e-11
0.000278641
1.59766e-11
0.000278641
2.55076e-11
0.000278641
2.15057e-11
0.000278641
1.90676e-11
0.000278641
-8.67412e-12
-2.40448e-11
0.00029764
1.62106e-12
0.00029764
-2.13845e-11
0.00029764
-3.06645e-12
0.00029764
4.16558e-12
0.00029764
1.64992e-13
0.00029764
1.1152e-11
0.00029764
-7.95021e-12
0.00029764
2.16296e-11
0.00029764
-8.29496e-12
0.00029764
2.96733e-11
0.00029764
-5.57004e-12
0.00029764
3.52648e-11
0.00029764
3.62295e-12
0.00029764
3.53304e-11
0.00029764
1.7614e-11
0.00029764
2.69647e-11
0.00029764
2.30813e-11
0.00029764
2.01444e-11
0.00029764
-8.881e-12
-2.47053e-11
0.000310305
3.73334e-12
0.000310305
-1.74404e-11
0.000310305
-2.1299e-12
0.000310305
4.24569e-12
0.000310305
8.46967e-14
0.000310305
1.17546e-11
0.000310305
-8.09454e-12
0.000310305
2.24109e-11
0.000310305
-8.39075e-12
0.000310305
3.0742e-11
0.000310305
-5.38323e-12
0.000310305
3.64662e-11
0.000310305
4.30005e-12
0.000310305
3.64719e-11
0.000310305
1.89179e-11
0.000310305
2.76551e-11
0.000310305
2.42211e-11
0.000310305
2.06038e-11
0.000310305
-8.30537e-12
-2.39479e-11
0.000316638
6.10871e-12
0.000316638
-1.27185e-11
0.000316638
-8.49363e-13
0.000316638
4.19827e-12
0.000316638
1.23429e-13
0.000316638
1.19009e-11
0.000316638
-7.8863e-12
0.000316638
2.24505e-11
0.000316638
-8.1209e-12
0.000316638
3.08475e-11
0.000316638
-4.92671e-12
0.000316638
3.65904e-11
0.000316638
4.95828e-12
0.000316638
3.65945e-11
0.000316638
1.97911e-11
0.000316638
2.76169e-11
0.000316638
2.48744e-11
0.000316638
2.04756e-11
0.000316638
-7.08754e-12
-2.19667e-11
0.000316638
8.44982e-12
0.000316638
-7.782e-12
0.000316638
5.37786e-13
0.000316638
4.04322e-12
0.000316638
2.21715e-13
0.000316638
1.16527e-11
0.000316638
-7.41919e-12
0.000316638
2.1835e-11
0.000316638
-7.58841e-12
0.000316638
3.00812e-11
0.000316638
-4.31347e-12
0.000316638
3.57226e-11
0.000316638
5.49029e-12
0.000316638
3.57638e-11
0.000316638
2.01403e-11
0.000316638
2.68993e-11
0.000316638
2.49789e-11
0.000316638
1.98217e-11
0.000316638
-5.41967e-12
-1.90509e-11
0.000310305
1.04443e-11
0.000310305
-3.18008e-12
0.000310305
1.78437e-12
0.000310305
3.79218e-12
0.000310305
3.1529e-13
0.000310305
1.10857e-11
0.000310305
-6.79023e-12
0.000310305
2.06667e-11
0.000310305
-6.89844e-12
0.000310305
2.85565e-11
0.000310305
-3.65115e-12
0.000310305
3.39709e-11
0.000310305
5.80592e-12
0.000310305
3.40672e-11
0.000310305
1.99015e-11
0.000310305
2.55703e-11
0.000310305
2.44838e-11
0.000310305
1.87384e-11
0.000310305
-3.50987e-12
-1.55405e-11
0.00029764
1.18029e-11
0.00029764
6.14902e-13
0.00029764
2.68287e-12
0.00029764
3.45326e-12
0.00029764
3.49158e-13
0.00029764
1.02749e-11
0.00029764
-6.0846e-12
0.00029764
1.90482e-11
0.00029764
-6.14309e-12
0.00029764
2.63908e-11
0.00029764
-3.02881e-12
0.00029764
3.14498e-11
0.00029764
5.84027e-12
0.00029764
3.15992e-11
0.00029764
1.90421e-11
0.00029764
2.37043e-11
0.00029764
2.33506e-11
0.00029764
1.73319e-11
0.00029764
-1.57037e-12
-1.17933e-11
0.000278641
1.23007e-11
0.000278641
3.26666e-12
0.000278641
3.1037e-12
0.000278641
3.03587e-12
0.000278641
2.88093e-13
0.000278641
9.28114e-12
0.000278641
-5.36657e-12
0.000278641
1.70647e-11
0.000278641
-5.39426e-12
0.000278641
2.36839e-11
0.000278641
-2.51578e-12
0.000278641
2.82545e-11
0.000278641
5.54443e-12
0.000278641
2.84325e-11
0.000278641
1.75395e-11
0.000278641
2.13449e-11
0.000278641
2.15278e-11
0.000278641
1.56656e-11
0.000278641
1.70445e-13
-8.17167e-12
0.00025331
1.18077e-11
0.00025331
4.61548e-12
0.00025331
3.01694e-12
0.00025331
2.55298e-12
0.00025331
1.22642e-13
0.00025331
8.13928e-12
0.00025331
-4.67535e-12
0.00025331
1.47705e-11
0.00025331
-4.70225e-12
0.00025331
2.0498e-11
0.00025331
-2.16737e-12
0.00025331
2.44353e-11
0.00025331
4.86803e-12
0.00025331
2.45849e-11
0.00025331
1.535e-11
0.00025331
1.84606e-11
0.00025331
1.89171e-11
0.00025331
1.36967e-11
0.00025331
1.43895e-12
-5.04621e-12
0.000221647
1.03272e-11
0.000221647
4.71611e-12
0.000221647
2.4922e-12
0.000221647
2.02114e-12
0.000221647
-1.27604e-13
0.000221647
6.85204e-12
0.000221647
-4.02143e-12
0.000221647
1.21797e-11
0.000221647
-4.09215e-12
0.000221647
1.6845e-11
0.000221647
-2.02489e-12
0.000221647
1.99828e-11
0.000221647
3.75201e-12
0.000221647
2.00015e-11
0.000221647
1.23912e-11
0.000221647
1.49207e-11
0.000221647
1.5355e-11
0.000221647
1.12327e-11
0.000221647
1.90282e-12
-2.79686e-12
0.00018365
8.01249e-12
0.00018365
3.83796e-12
0.00018365
1.68144e-12
0.00018365
1.44457e-12
0.00018365
-4.35383e-13
0.00018365
5.38621e-12
0.00018365
-3.43386e-12
0.00018365
9.25539e-12
0.00018365
-3.63934e-12
0.00018365
1.26561e-11
0.00018365
-2.22636e-12
0.00018365
1.47622e-11
0.00018365
1.98193e-12
0.00018365
1.44402e-11
0.00018365
8.36753e-12
0.00018365
1.03324e-11
0.00018365
1.04482e-11
0.00018365
7.78666e-12
0.00018365
1.06752e-12
-1.84595e-12
0.000139321
5.13886e-12
0.000139321
2.46753e-12
0.000139321
8.10747e-13
0.000139321
8.80644e-13
0.000139321
-6.73658e-13
0.000139321
3.73245e-12
0.000139321
-2.70982e-12
0.000139321
6.04745e-12
0.000139321
-3.04763e-12
0.000139321
8.06515e-12
0.000139321
-2.35468e-12
0.000139321
9.04471e-12
0.000139321
9.54499e-14
0.000139321
8.33574e-12
0.000139321
3.90287e-12
0.000139321
5.23977e-12
0.000139321
4.75628e-12
0.000139321
3.64733e-12
0.000139321
-8.1604e-13
-2.13391e-12
8.86587e-05
2.22689e-12
8.86587e-05
1.26635e-12
8.86587e-05
6.61498e-14
8.86587e-05
2.88395e-13
8.86587e-05
-7.84693e-13
8.86587e-05
1.83342e-12
8.86587e-05
-1.92169e-12
8.86587e-05
2.50117e-12
8.86587e-05
-2.46893e-12
8.86587e-05
2.98534e-12
8.86587e-05
-2.67685e-12
8.86587e-05
2.66541e-12
8.86587e-05
-2.29072e-12
8.86587e-05
1.3823e-12
8.86587e-05
-1.47488e-12
8.86587e-05
-9.04335e-13
8.86587e-05
-2.17706e-12
8.86587e-05
-1.80029e-12
8.86587e-05
-4.21466e-12
-3.8072e-12
3.16638e-05
3.16638e-05
3.16638e-05
3.16638e-05
3.16638e-05
3.16638e-05
3.16638e-05
3.16638e-05
3.16638e-05
3.16638e-05
3.16638e-05
3.16638e-05
3.16638e-05
3.16638e-05
3.16638e-05
3.16638e-05
3.16638e-05
3.16638e-05
3.16638e-05
)
;

boundaryField
{
    top
    {
        type            calculated;
        value           uniform 0;
    }
    bottom
    {
        type            calculated;
        value           uniform 0;
    }
    inlet
    {
        type            calculated;
        value           nonuniform List<scalar> 
20
(
-3.16638e-05
-8.86587e-05
-0.000139321
-0.00018365
-0.000221647
-0.00025331
-0.000278641
-0.00029764
-0.000310305
-0.000316638
-0.000316638
-0.000310305
-0.00029764
-0.000278641
-0.00025331
-0.000221647
-0.00018365
-0.000139321
-8.86587e-05
-3.16638e-05
)
;
    }
    outlet
    {
        type            calculated;
        value           nonuniform List<scalar> 
20
(
3.16638e-05
8.86587e-05
0.000139321
0.00018365
0.000221647
0.00025331
0.000278641
0.00029764
0.000310305
0.000316638
0.000316638
0.000310305
0.00029764
0.000278641
0.00025331
0.000221647
0.00018365
0.000139321
8.86587e-05
3.16638e-05
)
;
    }
    frontAndBack
    {
        type            empty;
        value           nonuniform 0();
    }
}


// ************************************************************************* //
