/*--------------------------------*- C++ -*----------------------------------*\
| =========                 |                                                 |
| \\      /  F ield         | OpenFOAM: The Open Source CFD Toolbox           |
|  \\    /   O peration     | Version:  4.1                                   |
|   \\  /    A nd           | Web:      www.OpenFOAM.org                      |
|    \\/     M anipulation  |                                                 |
\*---------------------------------------------------------------------------*/
FoamFile
{
    version     2.0;
    format      ascii;
    class       volVectorField;
    location    "1.9";
    object      U;
}
// * * * * * * * * * * * * * * * * * * * * * * * * * * * * * * * * * * * * * //

dimensions      [0 1 -1 0 0 0 0];

internalField   nonuniform List<vector> 
400
(
(0.633277 -3.41475e-10 0)
(0.633277 -1.06923e-09 0)
(0.633277 4.14853e-10 0)
(0.633277 -1.17982e-10 0)
(0.633277 4.71557e-10 0)
(0.633277 -1.57555e-10 0)
(0.633277 4.75755e-10 0)
(0.633277 2.18837e-10 0)
(0.633277 5.88187e-10 0)
(0.633277 5.90006e-10 0)
(0.633277 7.98038e-10 0)
(0.633277 1.10353e-09 0)
(0.633277 1.18637e-09 0)
(0.633277 1.63058e-09 0)
(0.633277 1.72663e-09 0)
(0.633277 1.96131e-09 0)
(0.633277 2.21278e-09 0)
(0.633277 2.0111e-09 0)
(0.633277 1.48932e-09 0)
(0.633277 3.24217e-10 0)
(1.77317 1.85161e-09 0)
(1.77317 -1.00591e-08 0)
(1.77317 4.4244e-10 0)
(1.77317 -7.04435e-10 0)
(1.77317 2.11013e-09 0)
(1.77317 -1.81051e-09 0)
(1.77317 -5.01065e-10 0)
(1.77317 -2.86277e-10 0)
(1.77317 -1.69589e-09 0)
(1.77317 6.58521e-11 0)
(1.77317 -3.42513e-09 0)
(1.77317 3.90244e-11 0)
(1.77317 -4.51668e-09 0)
(1.77317 -1.11531e-09 0)
(1.77317 -4.579e-09 0)
(1.77317 -3.40041e-09 0)
(1.77317 -3.00515e-09 0)
(1.77317 -3.97904e-09 0)
(1.77317 -4.66634e-09 0)
(1.77317 -4.81776e-09 0)
(2.78642 -2.41038e-10 0)
(2.78642 -1.32407e-08 0)
(2.78642 1.86983e-10 0)
(2.78642 4.99617e-10 0)
(2.78642 2.15203e-09 0)
(2.78642 8.68748e-10 0)
(2.78642 -6.50037e-10 0)
(2.78642 4.53724e-09 0)
(2.78642 -8.70619e-10 0)
(2.78642 7.10974e-09 0)
(2.78642 -6.21909e-10 0)
(2.78642 9.49186e-09 0)
(2.78642 1.54663e-09 0)
(2.78642 1.04003e-08 0)
(2.78642 5.41276e-09 0)
(2.78642 8.85285e-09 0)
(2.78642 8.52841e-09 0)
(2.78642 7.06346e-09 0)
(2.78642 4.02425e-12 0)
(2.78642 -5.7289e-09 0)
(3.673 -2.32429e-10 0)
(3.673 -1.94344e-08 0)
(3.673 -1.08743e-09 0)
(3.673 1.4309e-09 0)
(3.673 1.94973e-09 0)
(3.673 2.88773e-09 0)
(3.673 -2.77406e-09 0)
(3.673 8.42344e-09 0)
(3.673 -3.34951e-09 0)
(3.673 1.21834e-08 0)
(3.673 -3.07625e-09 0)
(3.673 1.51168e-08 0)
(3.673 2.44778e-10 0)
(3.673 1.53664e-08 0)
(3.673 6.13711e-09 0)
(3.673 1.16611e-08 0)
(3.673 1.00966e-08 0)
(3.673 8.28999e-09 0)
(3.673 -4.21895e-09 0)
(3.673 -1.24948e-08 0)
(4.43293 -1.19253e-09 0)
(4.43293 -2.28387e-08 0)
(4.43293 -2.10819e-09 0)
(4.43293 2.39031e-09 0)
(4.43293 1.52361e-09 0)
(4.43293 5.3182e-09 0)
(4.43293 -4.19711e-09 0)
(4.43293 1.2549e-08 0)
(4.43293 -4.60019e-09 0)
(4.43293 1.77436e-08 0)
(4.43293 -3.49443e-09 0)
(4.43293 2.17504e-08 0)
(4.43293 1.73447e-09 0)
(4.43293 2.22878e-08 0)
(4.43293 1.02171e-08 0)
(4.43293 1.75593e-08 0)
(4.43293 1.49622e-08 0)
(4.43293 1.30446e-08 0)
(4.43293 -5.33843e-09 0)
(4.43293 -1.66502e-08 0)
(5.06621 -1.33821e-09 0)
(5.06621 -2.4818e-08 0)
(5.06621 -2.99913e-09 0)
(5.06621 3.13234e-09 0)
(5.06621 1.03898e-09 0)
(5.06621 7.44881e-09 0)
(5.06621 -5.68065e-09 0)
(5.06621 1.60237e-08 0)
(5.06621 -6.07644e-09 0)
(5.06621 2.23088e-08 0)
(5.06621 -4.42822e-09 0)
(5.06621 2.69742e-08 0)
(5.06621 2.24219e-09 0)
(5.06621 2.73903e-08 0)
(5.06621 1.27601e-08 0)
(5.06621 2.13788e-08 0)
(5.06621 1.79517e-08 0)
(5.06621 1.59332e-08 0)
(5.06621 -7.21904e-09 0)
(5.06621 -2.06817e-08 0)
(5.57283 -7.95969e-10 0)
(5.57283 -2.48495e-08 0)
(5.57283 -3.44368e-09 0)
(5.57283 3.65826e-09 0)
(5.57283 6.09372e-10 0)
(5.57283 9.21321e-09 0)
(5.57283 -6.85706e-09 0)
(5.57283 1.87798e-08 0)
(5.57283 -7.24959e-09 0)
(5.57283 2.59187e-08 0)
(5.57283 -5.136e-09 0)
(5.57283 3.10458e-08 0)
(5.57283 2.70778e-09 0)
(5.57283 3.1296e-08 0)
(5.57283 1.48638e-08 0)
(5.57283 2.41668e-08 0)
(5.57283 2.02631e-08 0)
(5.57283 1.80505e-08 0)
(5.57283 -8.5708e-09 0)
(5.57283 -2.34998e-08 0)
(5.95279 4.85559e-10 0)
(5.95279 -2.3043e-08 0)
(5.95279 -3.31859e-09 0)
(5.95279 3.98895e-09 0)
(5.95279 3.07765e-10 0)
(5.95279 1.05333e-08 0)
(5.95279 -7.63453e-09 0)
(5.95279 2.07552e-08 0)
(5.95279 -8.01058e-09 0)
(5.95279 2.85177e-08 0)
(5.95279 -5.50229e-09 0)
(5.95279 3.39603e-08 0)
(5.95279 3.24492e-09 0)
(5.95279 3.40661e-08 0)
(5.95279 1.66373e-08 0)
(5.95279 2.60587e-08 0)
(5.95279 2.20604e-08 0)
(5.95279 1.94666e-08 0)
(5.95279 -9.16835e-09 0)
(5.95279 -2.48909e-08 0)
(6.2061 2.40548e-09 0)
(6.2061 -1.96968e-08 0)
(6.2061 -2.62886e-09 0)
(6.2061 4.15486e-09 0)
(6.2061 1.57359e-10 0)
(6.2061 1.13784e-08 0)
(6.2061 -7.99211e-09 0)
(6.2061 2.19365e-08 0)
(6.2061 -8.33133e-09 0)
(6.2061 3.01001e-08 0)
(6.2061 -5.50351e-09 0)
(6.2061 3.5735e-08 0)
(6.2061 3.87132e-09 0)
(6.2061 3.57516e-08 0)
(6.2061 1.80939e-08 0)
(6.2061 2.71471e-08 0)
(6.2061 2.34153e-08 0)
(6.2061 2.02357e-08 0)
(6.2061 -8.95439e-09 0)
(6.2061 -2.48063e-08 0)
(6.33276 4.75222e-09 0)
(6.33276 -1.52704e-08 0)
(6.33276 -1.499e-09 0)
(6.33276 4.18571e-09 0)
(6.33276 1.38859e-10 0)
(6.33276 1.17604e-08 0)
(6.33276 -7.97038e-09 0)
(6.33276 2.23566e-08 0)
(6.33276 -8.25601e-09 0)
(6.33276 3.06988e-08 0)
(6.33276 -5.19574e-09 0)
(6.33276 3.64109e-08 0)
(6.33276 4.5242e-09 0)
(6.33276 3.63978e-08 0)
(6.33276 1.91693e-08 0)
(6.33276 2.74855e-08 0)
(6.33276 2.43136e-08 0)
(6.33276 2.03941e-08 0)
(6.33276 -8.01483e-09 0)
(6.33276 -2.33715e-08 0)
(6.33276 7.23883e-09 0)
(6.33276 -1.03172e-08 0)
(6.33276 -1.397e-10 0)
(6.33276 4.10282e-09 0)
(6.33276 2.04111e-10 0)
(6.33276 1.17234e-08 0)
(6.33276 -7.6473e-09 0)
(6.33276 2.20832e-08 0)
(6.33276 -7.87087e-09 0)
(6.33276 3.03842e-08 0)
(6.33276 -4.67742e-09 0)
(6.33276 3.60543e-08 0)
(6.33276 5.10463e-09 0)
(6.33276 3.60566e-08 0)
(6.33276 1.97708e-08 0)
(6.33276 2.71152e-08 0)
(6.33276 2.46977e-08 0)
(6.33276 1.99888e-08 0)
(6.33276 -6.52337e-09 0)
(6.33276 -2.08403e-08 0)
(6.2061 9.54364e-09 0)
(6.2061 -5.41455e-09 0)
(6.2061 1.20109e-09 0)
(6.2061 3.91856e-09 0)
(6.2061 2.92412e-10 0)
(6.2061 1.13329e-08 0)
(6.2061 -7.11512e-09 0)
(6.2061 2.12078e-08 0)
(6.2061 -7.27628e-09 0)
(6.2061 2.9256e-08 0)
(6.2061 -4.05494e-09 0)
(6.2061 3.47597e-08 0)
(6.2061 5.51763e-09 0)
(6.2061 3.48032e-08 0)
(6.2061 1.98228e-08 0)
(6.2061 2.60952e-08 0)
(6.2061 2.45112e-08 0)
(6.2061 1.91027e-08 0)
(6.2061 -4.68433e-09 0)
(6.2061 -1.75374e-08 0)
(5.95279 1.13467e-08 0)
(5.95279 -1.09621e-09 0)
(5.95279 2.29022e-09 0)
(5.95279 3.63987e-09 0)
(5.95279 3.45823e-10 0)
(5.95279 1.06617e-08 0)
(5.95279 -6.46168e-09 0)
(5.95279 1.98308e-08 0)
(5.95279 -6.56671e-09 0)
(5.95279 2.74281e-08 0)
(5.95279 -3.42202e-09 0)
(5.95279 3.26382e-08 0)
(5.95279 5.69059e-09 0)
(5.95279 3.27301e-08 0)
(5.95279 1.92815e-08 0)
(5.95279 2.45001e-08 0)
(5.95279 2.37123e-08 0)
(5.95279 1.78425e-08 0)
(5.95279 -2.71036e-09 0)
(5.95279 -1.38214e-08 0)
(5.57283 1.23735e-08 0)
(5.57283 2.20809e-09 0)
(5.57283 2.95195e-09 0)
(5.57283 3.27312e-09 0)
(5.57283 3.20132e-10 0)
(5.57283 9.77499e-09 0)
(5.57283 -5.76065e-09 0)
(5.57283 1.8043e-08 0)
(5.57283 -5.82365e-09 0)
(5.57283 2.50046e-08 0)
(5.57283 -2.85885e-09 0)
(5.57283 2.97892e-08 0)
(5.57283 5.56328e-09 0)
(5.57283 2.99147e-08 0)
(5.57283 1.81138e-08 0)
(5.57283 2.23821e-08 0)
(5.57283 2.22489e-08 0)
(5.57283 1.62901e-08 0)
(5.57283 -8.27205e-10 0)
(5.57283 -1.00628e-08 0)
(5.06621 1.24291e-08 0)
(5.06621 4.23429e-09 0)
(5.06621 3.10398e-09 0)
(5.06621 2.82777e-09 0)
(5.06621 1.93861e-10 0)
(5.06621 8.7179e-09 0)
(5.06621 -5.06347e-09 0)
(5.06621 1.59118e-08 0)
(5.06621 -5.10843e-09 0)
(5.06621 2.2064e-08 0)
(5.06621 -2.42886e-09 0)
(5.06621 2.62832e-08 0)
(5.06621 5.08395e-09 0)
(5.06621 2.6401e-08 0)
(5.06621 1.62837e-08 0)
(5.06621 1.97478e-08 0)
(5.06621 2.00449e-08 0)
(5.06621 1.44599e-08 0)
(5.06621 7.13564e-10 0)
(5.06621 -6.62898e-09 0)
(4.43293 1.14349e-08 0)
(4.43293 4.92223e-09 0)
(4.43293 2.77048e-09 0)
(4.43293 2.32383e-09 0)
(4.43293 -1.92796e-11 0)
(4.43293 7.51169e-09 0)
(4.43293 -4.37561e-09 0)
(4.43293 1.34783e-08 0)
(4.43293 -4.42752e-09 0)
(4.43293 1.86592e-08 0)
(4.43293 -2.13404e-09 0)
(4.43293 2.21723e-08 0)
(4.43293 4.25989e-09 0)
(4.43293 2.22234e-08 0)
(4.43293 1.38023e-08 0)
(4.43293 1.65886e-08 0)
(4.43293 1.70422e-08 0)
(4.43293 1.22947e-08 0)
(4.43293 1.65526e-09 0)
(4.43293 -3.88243e-09 0)
(3.673 9.50591e-09 0)
(3.673 4.41769e-09 0)
(3.673 2.04797e-09 0)
(3.673 1.70049e-09 0)
(3.673 -3.96613e-10 0)
(3.673 6.09883e-09 0)
(3.673 -3.98504e-09 0)
(3.673 1.06266e-08 0)
(3.673 -4.2724e-09 0)
(3.673 1.45284e-08 0)
(3.673 -2.72741e-09 0)
(3.673 1.69248e-08 0)
(3.673 2.05737e-09 0)
(3.673 1.64659e-08 0)
(3.673 9.39786e-09 0)
(3.673 1.15725e-08 0)
(3.673 1.18984e-08 0)
(3.673 8.54127e-09 0)
(3.673 8.4416e-10 0)
(3.673 -2.57553e-09 0)
(2.78642 6.55115e-09 0)
(2.78642 3.12448e-09 0)
(2.78642 1.24886e-09 0)
(2.78642 1.36422e-09 0)
(2.78642 -3.05172e-10 0)
(2.78642 4.69357e-09 0)
(2.78642 -2.3909e-09 0)
(2.78642 7.97213e-09 0)
(2.78642 -2.19559e-09 0)
(2.78642 1.10459e-08 0)
(2.78642 -5.35823e-10 0)
(2.78642 1.32239e-08 0)
(2.78642 3.46506e-09 0)
(2.78642 1.35693e-08 0)
(2.78642 9.15496e-09 0)
(2.78642 1.08393e-08 0)
(2.78642 1.07574e-08 0)
(2.78642 8.48703e-09 0)
(2.78642 2.58067e-09 0)
(2.78642 -5.50611e-10 0)
(1.77317 3.78714e-09 0)
(1.77317 1.79758e-09 0)
(1.77317 3.59172e-10 0)
(1.77317 3.70826e-10 0)
(1.77317 -1.10904e-09 0)
(1.77317 2.81801e-09 0)
(1.77317 -3.26512e-09 0)
(1.77317 4.18175e-09 0)
(1.77317 -4.26143e-09 0)
(1.77317 5.09421e-09 0)
(1.77317 -4.68045e-09 0)
(1.77317 4.72878e-09 0)
(1.77317 -3.8914e-09 0)
(1.77317 2.70768e-09 0)
(1.77317 -2.01062e-09 0)
(1.77317 -1.07896e-09 0)
(1.77317 -1.89521e-09 0)
(1.77317 -1.84992e-09 0)
(1.77317 -4.82593e-09 0)
(1.77317 -3.94287e-09 0)
(0.633277 9.93384e-10 0)
(0.633277 4.45065e-10 0)
(0.633277 3.25625e-11 0)
(0.633277 3.48171e-10 0)
(0.633277 -2.56806e-11 0)
(0.633277 8.59688e-10 0)
(0.633277 -2.65597e-11 0)
(0.633277 1.33323e-09 0)
(0.633277 2.58912e-10 0)
(0.633277 1.91479e-09 0)
(0.633277 8.23395e-10 0)
(0.633277 2.46931e-09 0)
(0.633277 1.69151e-09 0)
(0.633277 2.88118e-09 0)
(0.633277 2.64737e-09 0)
(0.633277 2.90773e-09 0)
(0.633277 2.51152e-09 0)
(0.633277 2.22301e-09 0)
(0.633277 8.71663e-10 0)
(0.633277 -2.64013e-10 0)
)
;

boundaryField
{
    top
    {
        type            fixedValue;
        value           uniform (0 0 0);
    }
    bottom
    {
        type            fixedValue;
        value           uniform (0 0 0);
    }
    inlet
    {
        type            zeroGradient;
    }
    outlet
    {
        type            zeroGradient;
    }
    frontAndBack
    {
        type            empty;
    }
}


// ************************************************************************* //
