/*--------------------------------*- C++ -*----------------------------------*\
| =========                 |                                                 |
| \\      /  F ield         | OpenFOAM: The Open Source CFD Toolbox           |
|  \\    /   O peration     | Version:  4.1                                   |
|   \\  /    A nd           | Web:      www.OpenFOAM.org                      |
|    \\/     M anipulation  |                                                 |
\*---------------------------------------------------------------------------*/
FoamFile
{
    version     2.0;
    format      ascii;
    class       surfaceScalarField;
    location    "1.4";
    object      phi;
}
// * * * * * * * * * * * * * * * * * * * * * * * * * * * * * * * * * * * * * //

dimensions      [0 3 -1 0 0 0 0];

internalField   nonuniform List<scalar> 
760
(
3.16628e-05
-5.20305e-12
3.16628e-05
-6.38722e-12
3.16628e-05
1.26571e-12
3.16628e-05
-3.01556e-12
3.16628e-05
4.56536e-12
3.16628e-05
-2.50446e-12
3.16628e-05
6.33528e-12
3.16628e-05
-1.75586e-12
3.16628e-05
8.85417e-12
3.16628e-05
1.14984e-13
3.16628e-05
1.18037e-11
3.16628e-05
3.8426e-12
3.16628e-05
1.49199e-11
3.16628e-05
9.2283e-12
3.16628e-05
1.78912e-11
3.16628e-05
1.44697e-11
3.16628e-05
1.94714e-11
3.16628e-05
1.66267e-11
3.16628e-05
1.35936e-11
8.4196e-12
8.86555e-05
-1.61622e-11
8.86555e-05
-1.92292e-11
8.86555e-05
6.66095e-13
8.86555e-05
-5.31892e-12
8.86555e-05
8.52509e-12
8.86555e-05
-2.92822e-12
8.86555e-05
1.24342e-11
8.86555e-05
-3.02425e-13
8.86555e-05
1.80869e-11
8.86555e-05
4.78731e-12
8.86555e-05
2.51026e-11
8.86555e-05
1.36157e-11
8.86555e-05
3.29549e-11
8.86555e-05
2.55543e-11
8.86555e-05
4.06344e-11
8.86555e-05
3.6458e-11
8.86555e-05
4.40174e-11
8.86555e-05
3.95262e-11
8.86555e-05
2.63892e-11
1.13772e-11
0.000139316
-2.75992e-11
0.000139316
-3.40209e-11
0.000139316
-1.34991e-12
0.000139316
-6.8306e-12
0.000139316
1.1674e-11
0.000139316
-1.69233e-12
0.000139316
1.78908e-11
0.000139316
3.47281e-12
0.000139316
2.69819e-11
0.000139316
1.26234e-11
0.000139316
3.87225e-11
0.000139316
2.74256e-11
0.000139316
5.24388e-11
0.000139316
4.65734e-11
0.000139316
6.59889e-11
0.000139316
6.30846e-11
0.000139316
7.12978e-11
0.000139316
6.58837e-11
0.000139316
3.85377e-11
1.28842e-11
0.000183643
-3.67672e-11
0.000183643
-4.67546e-11
0.000183643
-3.82898e-12
0.000183643
-7.34757e-12
0.000183643
1.39085e-11
0.000183643
9.23702e-13
0.000183643
2.24238e-11
0.000183643
9.1533e-12
0.000183643
3.50717e-11
0.000183643
2.29029e-11
0.000183643
5.19378e-11
0.000183643
4.41121e-11
0.000183643
7.22853e-11
0.000183643
7.06851e-11
0.000183643
9.26303e-11
0.000183643
9.26313e-11
0.000183643
1.00166e-10
0.000183643
9.43423e-11
0.000183643
5.1942e-11
1.60631e-11
0.000221638
-4.1497e-11
0.000221638
-5.46e-11
0.000221638
-5.75279e-12
0.000221638
-7.15409e-12
0.000221638
1.53975e-11
0.000221638
4.0337e-12
0.000221638
2.58826e-11
0.000221638
1.51865e-11
0.000221638
4.17015e-11
0.000221638
3.32376e-11
0.000221638
6.32475e-11
0.000221638
6.02618e-11
0.000221638
8.97723e-11
0.000221638
9.33729e-11
0.000221638
1.16499e-10
0.000221638
1.19786e-10
0.000221638
1.26011e-10
0.000221638
1.19796e-10
0.000221638
6.46618e-11
2.07393e-11
0.0002533
-4.0823e-11
0.0002533
-5.57882e-11
0.0002533
-6.29646e-12
0.0002533
-6.13463e-12
0.0002533
1.62789e-11
0.0002533
7.36978e-12
0.0002533
2.83038e-11
0.0002533
2.11531e-11
0.0002533
4.68203e-11
0.0002533
4.30251e-11
0.0002533
7.24542e-11
0.0002533
7.50723e-11
0.0002533
1.04483e-10
0.0002533
1.13664e-10
0.0002533
1.36962e-10
0.0002533
1.43545e-10
0.0002533
1.48258e-10
0.0002533
1.41331e-10
0.0002533
7.72851e-11
2.81027e-11
0.00027863
-3.46161e-11
0.00027863
-4.97967e-11
0.00027863
-4.98937e-12
0.00027863
-4.30085e-12
0.00027863
1.67021e-11
0.00027863
1.0651e-11
0.00027863
2.97559e-11
0.00027863
2.66195e-11
0.00027863
5.04001e-11
0.00027863
5.16511e-11
0.00027863
7.93588e-11
0.00027863
8.77311e-11
0.00027863
1.15955e-10
0.00027863
1.3057e-10
0.00027863
1.53261e-10
0.00027863
1.62849e-10
0.00027863
1.66094e-10
0.00027863
1.57968e-10
0.00027863
8.95579e-11
3.81689e-11
0.000297627
-2.35992e-11
0.000297627
-3.73024e-11
0.000297627
-1.79598e-12
0.000297627
-1.74848e-12
0.000297627
1.67767e-11
0.000297627
1.36782e-11
0.000297627
3.03256e-11
0.000297627
3.13048e-11
0.000297627
5.24821e-11
0.000297627
5.87438e-11
0.000297627
8.3913e-11
0.000297627
9.77801e-11
0.000297627
1.23994e-10
0.000297627
1.43578e-10
0.000297627
1.65029e-10
0.000297627
1.77216e-10
0.000297627
1.79128e-10
0.000297627
1.69366e-10
0.000297627
1.01066e-10
5.04278e-11
0.000310292
-9.10452e-12
0.000310292
-1.99376e-11
0.000310292
2.88444e-12
0.000310292
1.29417e-12
0.000310292
1.65646e-11
0.000310292
1.62814e-11
0.000310292
3.01007e-11
0.000310292
3.4997e-11
0.000310292
5.31309e-11
0.000310292
6.40395e-11
0.000310292
8.61248e-11
0.000310292
1.04916e-10
0.000310292
1.28513e-10
0.000310292
1.5238e-10
0.000310292
1.72054e-10
0.000310292
1.86405e-10
0.000310292
1.87108e-10
0.000310292
1.75506e-10
0.000310292
1.11173e-10
6.38666e-11
0.000316624
7.09785e-12
0.000316624
-4.26917e-14
0.000316624
8.31174e-12
0.000316624
4.48691e-12
0.000316624
1.60803e-11
0.000316624
1.83071e-11
0.000316624
2.91599e-11
0.000316624
3.75278e-11
0.000316624
5.24121e-11
0.000316624
6.73389e-11
0.000316624
8.60167e-11
0.000316624
1.08921e-10
0.000316624
1.29457e-10
0.000316624
1.5677e-10
0.000316624
1.74184e-10
0.000316624
1.90289e-10
0.000316624
1.89818e-10
0.000316624
1.76542e-10
0.000316624
1.19028e-10
7.70626e-11
0.000316624
2.30381e-11
0.000316624
1.97008e-11
0.000316624
1.35617e-11
0.000316624
7.42329e-12
0.000316624
1.53063e-11
0.000316624
1.9627e-11
0.000316624
2.75764e-11
0.000316624
3.87776e-11
0.000316624
5.04003e-11
0.000316624
6.85131e-11
0.000316624
8.36416e-11
0.000316624
1.09672e-10
0.000316624
1.26836e-10
0.000316624
1.56658e-10
0.000316624
1.71369e-10
0.000316624
1.88863e-10
0.000316624
1.87137e-10
0.000316624
1.72771e-10
0.000316624
1.23705e-10
8.84013e-11
0.000310292
3.67665e-11
0.000310292
3.66406e-11
0.000310292
1.77176e-11
0.000310292
9.71775e-12
0.000310292
1.42145e-11
0.000310292
2.01496e-11
0.000310292
2.542e-11
0.000310292
3.86757e-11
0.000310292
4.71821e-11
0.000310292
6.75067e-11
0.000310292
7.90899e-11
0.000310292
1.07139e-10
0.000310292
1.20737e-10
0.000310292
1.52061e-10
0.000310292
1.63684e-10
0.000310292
1.82228e-10
0.000310292
1.79072e-10
0.000310292
1.64571e-10
0.000310292
1.2432e-10
9.62788e-11
0.000297627
4.65706e-11
0.000297627
4.852e-11
0.000297627
2.00585e-11
0.000297627
1.10757e-11
0.000297627
1.27885e-11
0.000297627
1.98296e-11
0.000297627
2.2759e-11
0.000297627
3.72298e-11
0.000297627
4.28588e-11
0.000297627
6.43382e-11
0.000297627
7.24956e-11
0.000297627
1.01385e-10
0.000297627
1.1133e-10
0.000297627
1.43101e-10
0.000297627
1.51342e-10
0.000297627
1.70577e-10
0.000297627
1.65788e-10
0.000297627
1.52336e-10
0.000297627
1.20111e-10
9.92826e-11
0.00027863
5.12106e-11
0.00027863
5.38298e-11
0.00027863
2.02035e-11
0.00027863
1.13478e-11
0.00027863
1.10395e-11
0.00027863
1.86679e-11
0.00027863
1.96577e-11
0.00027863
3.44629e-11
0.00027863
3.75375e-11
0.00027863
5.90819e-11
0.00027863
6.40206e-11
0.00027863
9.25359e-11
0.00027863
9.88468e-11
0.00027863
1.2996e-10
0.00027863
1.3466e-10
0.00027863
1.5414e-10
0.00027863
1.47582e-10
0.00027863
1.36386e-10
0.00027863
1.10563e-10
9.63896e-11
0.0002533
5.00811e-11
0.0002533
5.20422e-11
0.0002533
1.81963e-11
0.0002533
1.05564e-11
0.0002533
9.01957e-12
0.0002533
1.67206e-11
0.0002533
1.61929e-11
0.0002533
3.04746e-11
0.0002533
3.13608e-11
0.0002533
5.18916e-11
0.0002533
5.3904e-11
0.0002533
8.08225e-11
0.0002533
8.36526e-11
0.0002533
1.12952e-10
0.0002533
1.14147e-10
0.0002533
1.3327e-10
0.0002533
1.24994e-10
0.0002533
1.17029e-10
0.0002533
9.55738e-11
8.71593e-11
0.000221638
4.34249e-11
0.000221638
4.38351e-11
0.000221638
1.44966e-11
0.000221638
8.88709e-12
0.000221638
6.84393e-12
0.000221638
1.41021e-11
0.000221638
1.25027e-11
0.000221638
2.54465e-11
0.000221638
2.45869e-11
0.000221638
4.30537e-11
0.000221638
4.25867e-11
0.000221638
6.66776e-11
0.000221638
6.64221e-11
0.000221638
9.26727e-11
0.000221638
9.07383e-11
0.000221638
1.08658e-10
0.000221638
9.90545e-11
0.000221638
9.47505e-11
0.000221638
7.58461e-11
7.20069e-11
0.000183643
3.23903e-11
0.000183643
3.10622e-11
0.000183643
9.88362e-12
0.000183643
6.59825e-12
0.000183643
4.58323e-12
0.000183643
1.08744e-11
0.000183643
8.58994e-12
0.000183643
1.94364e-11
0.000183643
1.72324e-11
0.000183643
3.26322e-11
0.000183643
3.01294e-11
0.000183643
5.01735e-11
0.000183643
4.72905e-11
0.000183643
6.92064e-11
0.000183643
6.46819e-11
0.000183643
8.03896e-11
0.000183643
7.01763e-11
0.000183643
6.95352e-11
0.000183643
5.22864e-11
5.20302e-11
0.000139316
1.90877e-11
0.000139316
1.67847e-11
0.000139316
5.36645e-12
0.000139316
4.14303e-12
0.000139316
2.68832e-12
0.000139316
7.41729e-12
0.000139316
5.2289e-12
0.000139316
1.31813e-11
0.000139316
1.06933e-11
0.000139316
2.19626e-11
0.000139316
1.88438e-11
0.000139316
3.35123e-11
0.000139316
2.97238e-11
0.000139316
4.58318e-11
0.000139316
4.06416e-11
0.000139316
5.26263e-11
0.000139316
4.35575e-11
0.000139316
4.50136e-11
0.000139316
2.9971e-11
3.09387e-11
8.86555e-05
6.52819e-12
8.86555e-05
4.93502e-12
8.86555e-05
1.93697e-12
8.86555e-05
1.78094e-12
8.86555e-05
1.11599e-12
8.86555e-05
3.73343e-12
8.86555e-05
2.19963e-12
8.86555e-05
6.59901e-12
8.86555e-05
4.60489e-12
8.86555e-05
1.08528e-11
8.86555e-05
8.1942e-12
8.86555e-05
1.63392e-11
8.86555e-05
1.30181e-11
8.86555e-05
2.20091e-11
8.86555e-05
1.77899e-11
8.86555e-05
2.48002e-11
8.86555e-05
1.86238e-11
8.86555e-05
2.08306e-11
8.86555e-05
1.06007e-11
1.12135e-11
3.16628e-05
3.16628e-05
3.16628e-05
3.16628e-05
3.16628e-05
3.16628e-05
3.16628e-05
3.16628e-05
3.16628e-05
3.16628e-05
3.16628e-05
3.16628e-05
3.16628e-05
3.16628e-05
3.16628e-05
3.16628e-05
3.16628e-05
3.16628e-05
3.16628e-05
)
;

boundaryField
{
    top
    {
        type            calculated;
        value           uniform 0;
    }
    bottom
    {
        type            calculated;
        value           uniform 0;
    }
    inlet
    {
        type            calculated;
        value           nonuniform List<scalar> 
20
(
-3.16628e-05
-8.86555e-05
-0.000139316
-0.000183643
-0.000221638
-0.0002533
-0.00027863
-0.000297627
-0.000310292
-0.000316624
-0.000316624
-0.000310292
-0.000297627
-0.00027863
-0.0002533
-0.000221638
-0.000183643
-0.000139316
-8.86555e-05
-3.16628e-05
)
;
    }
    outlet
    {
        type            calculated;
        value           nonuniform List<scalar> 
20
(
3.16628e-05
8.86556e-05
0.000139316
0.000183643
0.000221638
0.0002533
0.00027863
0.000297627
0.000310292
0.000316624
0.000316624
0.000310292
0.000297627
0.00027863
0.0002533
0.000221638
0.000183643
0.000139316
8.86556e-05
3.16628e-05
)
;
    }
    frontAndBack
    {
        type            empty;
        value           nonuniform 0();
    }
}


// ************************************************************************* //
