/*--------------------------------*- C++ -*----------------------------------*\
| =========                 |                                                 |
| \\      /  F ield         | OpenFOAM: The Open Source CFD Toolbox           |
|  \\    /   O peration     | Version:  4.1                                   |
|   \\  /    A nd           | Web:      www.OpenFOAM.org                      |
|    \\/     M anipulation  |                                                 |
\*---------------------------------------------------------------------------*/
FoamFile
{
    version     2.0;
    format      ascii;
    class       volVectorField;
    location    "1.4";
    object      U;
}
// * * * * * * * * * * * * * * * * * * * * * * * * * * * * * * * * * * * * * //

dimensions      [0 1 -1 0 0 0 0];

internalField   nonuniform List<vector> 
400
(
(0.633255 -2.36879e-09 0)
(0.633255 -2.80989e-09 0)
(0.633255 8.12863e-10 0)
(0.633255 -1.53329e-09 0)
(0.633255 2.35702e-09 0)
(0.633255 -1.35902e-09 0)
(0.633255 3.23823e-09 0)
(0.633255 -1.03041e-09 0)
(0.633255 4.4956e-09 0)
(0.633255 -1.43777e-10 0)
(0.633255 5.94713e-09 0)
(0.633255 1.67316e-09 0)
(0.633255 7.4348e-09 0)
(0.633255 4.34304e-09 0)
(0.633255 8.86236e-09 0)
(0.633255 6.9989e-09 0)
(0.633255 9.66766e-09 0)
(0.633255 8.14516e-09 0)
(0.633255 7.06503e-09 0)
(0.633256 4.59879e-09 0)
(1.77311 -1.02034e-08 0)
(1.77311 -1.20879e-08 0)
(1.77311 1.34728e-09 0)
(1.77311 -4.31681e-09 0)
(1.77311 6.73911e-09 0)
(1.77311 -3.07837e-09 0)
(1.77311 9.54478e-09 0)
(1.77311 -1.56078e-09 0)
(1.77311 1.35749e-08 0)
(1.77311 1.72934e-09 0)
(1.77311 1.84188e-08 0)
(1.77311 7.82119e-09 0)
(1.77311 2.36411e-08 0)
(1.77311 1.63424e-08 0)
(1.77311 2.86935e-08 0)
(1.77311 2.44042e-08 0)
(1.77311 3.11287e-08 0)
(1.77311 2.71905e-08 0)
(1.77311 2.01194e-08 0)
(1.77311 1.04578e-08 0)
(2.78631 -2.18922e-08 0)
(2.78631 -2.64201e-08 0)
(2.78631 -8.23403e-11 0)
(2.78631 -6.20252e-09 0)
(2.78631 1.02718e-08 0)
(2.78631 -2.58985e-09 0)
(2.78631 1.53216e-08 0)
(2.78631 1.20705e-09 0)
(2.78631 2.26708e-08 0)
(2.78631 8.22121e-09 0)
(2.78631 3.19789e-08 0)
(2.78631 1.99557e-08 0)
(2.78631 4.26289e-08 0)
(2.78631 3.54653e-08 0)
(2.78631 5.30926e-08 0)
(2.78631 4.92307e-08 0)
(2.78631 5.74364e-08 0)
(2.78631 5.23192e-08 0)
(2.78631 3.2619e-08 0)
(2.78631 1.24263e-08 0)
(3.67286 -3.2939e-08 0)
(3.67286 -4.11129e-08 0)
(3.67286 -2.59591e-09 0)
(3.67286 -7.25834e-09 0)
(3.67286 1.29486e-08 0)
(3.67286 -5.83393e-10 0)
(3.67286 2.03381e-08 0)
(3.67286 6.08348e-09 0)
(3.67286 3.12227e-08 0)
(3.67286 1.75006e-08 0)
(3.67286 4.55164e-08 0)
(3.67286 3.55053e-08 0)
(3.67286 6.25001e-08 0)
(3.67286 5.841e-08 0)
(3.67286 7.93795e-08 0)
(3.67286 7.77332e-08 0)
(3.67286 8.5792e-08 0)
(3.67286 8.01298e-08 0)
(3.67286 4.51332e-08 0)
(3.67286 1.40878e-08 0)
(4.43276 -4.03306e-08 0)
(4.43276 -5.20804e-08 0)
(4.43276 -5.06078e-09 0)
(4.43276 -7.44763e-09 0)
(4.43276 1.47843e-08 0)
(4.43276 2.37867e-09 0)
(4.43276 2.43531e-08 0)
(4.43276 1.20951e-08 0)
(4.43276 3.86509e-08 0)
(4.43276 2.80443e-08 0)
(4.43276 5.79255e-08 0)
(4.43276 5.22607e-08 0)
(4.43276 8.14253e-08 0)
(4.43276 8.22514e-08 0)
(4.43276 1.0501e-07 0)
(4.43276 1.06589e-07 0)
(4.43276 1.13545e-07 0)
(4.43276 1.07593e-07 0)
(4.43276 5.81607e-08 0)
(4.43276 1.77106e-08 0)
(5.066 -4.25038e-08 0)
(5.066 -5.69038e-08 0)
(5.066 -6.4794e-09 0)
(5.066 -6.85048e-09 0)
(5.066 1.59332e-08 0)
(5.066 5.68161e-09 0)
(5.066 2.72903e-08 0)
(5.066 1.82262e-08 0)
(5.066 4.456e-08 0)
(5.066 3.83008e-08 0)
(5.066 6.82814e-08 0)
(5.066 6.80126e-08 0)
(5.066 9.77147e-08 0)
(5.066 1.0409e-07 0)
(5.066 1.2747e-07 0)
(5.066 1.32443e-07 0)
(5.066 1.37911e-07 0)
(5.066 1.31486e-07 0)
(5.066 7.09343e-08 0)
(5.066 2.36819e-08 0)
(5.5726 -3.89838e-08 0)
(5.57259 -5.44945e-08 0)
(5.5726 -6.17032e-09 0)
(5.57259 -5.42305e-09 0)
(5.5726 1.65559e-08 0)
(5.57259 9.03482e-09 0)
(5.5726 2.92104e-08 0)
(5.57259 2.40106e-08 0)
(5.5726 4.89062e-08 0)
(5.57259 4.76014e-08 0)
(5.5726 7.63582e-08 0)
(5.57259 8.18681e-08 0)
(5.5726 1.10866e-07 0)
(5.57259 1.22831e-07 0)
(5.5726 1.45956e-07 0)
(5.57259 1.54122e-07 0)
(5.5726 1.58061e-07 0)
(5.57259 1.50708e-07 0)
(5.5726 8.34505e-08 0)
(5.57259 3.24377e-08 0)
(5.95254 -3.01226e-08 0)
(5.95254 -4.49722e-08 0)
(5.95254 -3.87131e-09 0)
(5.95254 -3.1951e-09 0)
(5.95254 1.67868e-08 0)
(5.95254 1.22259e-08 0)
(5.95254 3.02032e-08 0)
(5.95254 2.91352e-08 0)
(5.95254 5.17262e-08 0)
(5.95254 5.55237e-08 0)
(5.95254 8.2092e-08 0)
(5.95254 9.32977e-08 0)
(5.95254 1.20652e-07 0)
(5.95254 1.3787e-07 0)
(5.95254 1.60052e-07 0)
(5.95254 1.71033e-07 0)
(5.95254 1.73567e-07 0)
(5.95254 1.64765e-07 0)
(5.95254 9.54675e-08 0)
(5.95254 4.37845e-08 0)
(6.20584 -1.699e-08 0)
(6.20584 -2.95504e-08 0)
(6.20584 2.22384e-10 0)
(6.20584 -3.27003e-10 0)
(6.20584 1.67134e-08 0)
(6.20584 1.50743e-08 0)
(6.20584 3.03587e-08 0)
(6.20584 3.33609e-08 0)
(6.20584 5.30782e-08 0)
(6.20584 6.17624e-08 0)
(6.20584 8.54719e-08 0)
(6.20584 1.0194e-07 0)
(6.20584 1.26946e-07 0)
(6.20584 1.48823e-07 0)
(6.20584 1.69488e-07 0)
(6.20584 1.82845e-07 0)
(6.20584 1.84128e-07 0)
(6.20584 1.73509e-07 0)
(6.20584 1.06446e-07 0)
(6.20584 5.69291e-08 0)
(6.33249 -1.18784e-09 0)
(6.33249 -1.02947e-08 0)
(6.33249 5.50688e-09 0)
(6.33249 2.88688e-09 0)
(6.33249 1.63713e-08 0)
(6.33249 1.74181e-08 0)
(6.33249 2.97606e-08 0)
(6.33249 3.64999e-08 0)
(6.33249 5.30285e-08 0)
(6.33249 6.609e-08 0)
(6.33249 8.65153e-08 0)
(6.33249 1.0754e-07 0)
(6.33249 1.2968e-07 0)
(6.33249 1.55444e-07 0)
(6.33249 1.74085e-07 0)
(6.33249 1.89389e-07 0)
(6.33249 1.89512e-07 0)
(6.33249 1.77029e-07 0)
(6.33249 1.15622e-07 0)
(6.33248 7.06131e-08 0)
(6.33249 1.53606e-08 0)
(6.33249 1.01927e-08 0)
(6.33249 1.11013e-08 0)
(6.33249 6.055e-09 0)
(6.33249 1.57541e-08 0)
(6.33249 1.91148e-08 0)
(6.33249 2.84849e-08 0)
(6.33249 3.84072e-08 0)
(6.33249 5.16475e-08 0)
(6.33249 6.83437e-08 0)
(6.33249 8.52601e-08 0)
(6.33249 1.09932e-07 0)
(6.33249 1.28833e-07 0)
(6.33249 1.57588e-07 0)
(6.33249 1.73741e-07 0)
(6.33249 1.90605e-07 0)
(6.33249 1.89546e-07 0)
(6.33249 1.75568e-07 0)
(6.33249 1.2209e-07 0)
(6.33248 8.32731e-08 0)
(6.20584 3.06404e-08 0)
(6.20584 2.91489e-08 0)
(6.20584 1.60319e-08 0)
(6.20584 8.76025e-09 0)
(6.20584 1.48324e-08 0)
(6.20584 2.00519e-08 0)
(6.20584 2.66025e-08 0)
(6.20584 3.89882e-08 0)
(6.20584 4.90153e-08 0)
(6.20584 6.84314e-08 0)
(6.20584 8.1777e-08 0)
(6.20584 1.09038e-07 0)
(6.20584 1.24451e-07 0)
(6.20584 1.55221e-07 0)
(6.20584 1.68468e-07 0)
(6.20584 1.86544e-07 0)
(6.20584 1.84166e-07 0)
(6.20584 1.69482e-07 0)
(6.20584 1.2492e-07 0)
(6.20584 9.32505e-08 0)
(5.95254 4.27678e-08 0)
(5.95254 4.40297e-08 0)
(5.95254 1.94325e-08 0)
(5.95254 1.0644e-08 0)
(5.95254 1.35781e-08 0)
(5.95254 2.01586e-08 0)
(5.95254 2.41813e-08 0)
(5.95254 3.82112e-08 0)
(5.95254 4.52246e-08 0)
(5.95254 6.63343e-08 0)
(5.95254 7.61756e-08 0)
(5.95254 1.04874e-07 0)
(5.95254 1.16659e-07 0)
(5.95254 1.48411e-07 0)
(5.95254 1.58402e-07 0)
(5.95254 1.77356e-07 0)
(5.95254 1.73448e-07 0)
(5.95254 1.59172e-07 0)
(5.95254 1.23268e-07 0)
(5.95254 9.8989e-08 0)
(5.5726 5.02172e-08 0)
(5.57259 5.28763e-08 0)
(5.5726 2.07206e-08 0)
(5.5726 1.14741e-08 0)
(5.5726 1.19849e-08 0)
(5.5726 1.94123e-08 0)
(5.5726 2.12864e-08 0)
(5.5726 3.60921e-08 0)
(5.5726 4.03783e-08 0)
(5.5726 6.20996e-08 0)
(5.5726 6.86023e-08 0)
(5.5726 9.75379e-08 0)
(5.5726 1.05656e-07 0)
(5.5726 1.37312e-07 0)
(5.5726 1.43808e-07 0)
(5.5726 1.63253e-07 0)
(5.5726 1.57619e-07 0)
(5.5726 1.45007e-07 0)
(5.5726 1.16465e-07 0)
(5.57259 9.92264e-08 0)
(5.066 5.20249e-08 0)
(5.066 5.46165e-08 0)
(5.066 1.97168e-08 0)
(5.066 1.11872e-08 0)
(5.066 1.00828e-08 0)
(5.066 1.78436e-08 0)
(5.066 1.79868e-08 0)
(5.066 3.26937e-08 0)
(5.066 3.45997e-08 0)
(5.066 5.58425e-08 0)
(5.066 5.92559e-08 0)
(5.066 8.72064e-08 0)
(5.066 9.17382e-08 0)
(5.066 1.22169e-07 0)
(5.066 1.25095e-07 0)
(5.066 1.44519e-07 0)
(5.066 1.3709e-07 0)
(5.066 1.27293e-07 0)
(5.066 1.04161e-07 0)
(5.066 9.31862e-08 0)
(4.43276 4.79645e-08 0)
(4.43276 4.928e-08 0)
(4.43276 1.66791e-08 0)
(4.43276 9.88975e-09 0)
(4.43276 7.94317e-09 0)
(4.43276 1.55269e-08 0)
(4.43276 1.43608e-08 0)
(4.43276 2.81299e-08 0)
(4.43276 2.80374e-08 0)
(4.43276 4.77348e-08 0)
(4.43276 4.83924e-08 0)
(4.43276 7.41297e-08 0)
(4.43276 7.53017e-08 0)
(4.43276 1.03312e-07 0)
(4.43276 1.02824e-07 0)
(4.43276 1.21518e-07 0)
(4.43276 1.12467e-07 0)
(4.43276 1.06278e-07 0)
(4.43276 8.6482e-08 0)
(4.43276 8.07488e-08 0)
(3.67286 3.8648e-08 0)
(3.67286 3.809e-08 0)
(3.67286 1.22594e-08 0)
(3.67286 7.82112e-09 0)
(3.67286 5.68265e-09 0)
(3.67286 1.2569e-08 0)
(3.67286 1.05152e-08 0)
(3.67286 2.25574e-08 0)
(3.67286 2.08924e-08 0)
(3.67286 3.80151e-08 0)
(3.67286 3.63647e-08 0)
(3.67286 5.86621e-08 0)
(3.67286 5.69005e-08 0)
(3.67286 8.123e-08 0)
(3.67286 7.77807e-08 0)
(3.67286 9.48111e-08 0)
(3.67286 8.46774e-08 0)
(3.67286 8.2322e-08 0)
(3.67286 6.43188e-08 0)
(3.67286 6.26593e-08 0)
(2.78631 2.57026e-08 0)
(2.78631 2.36249e-08 0)
(2.78631 7.44024e-09 0)
(2.78631 5.357e-09 0)
(2.78631 3.58543e-09 0)
(2.78631 9.21076e-09 0)
(2.78631 6.85876e-09 0)
(2.78631 1.64123e-08 0)
(2.78631 1.38992e-08 0)
(2.78631 2.74448e-08 0)
(2.78631 2.44028e-08 0)
(2.78631 4.20304e-08 0)
(2.78631 3.83999e-08 0)
(2.78631 5.77192e-08 0)
(2.78631 5.2509e-08 0)
(2.78631 6.66509e-08 0)
(2.78631 5.66204e-08 0)
(2.78631 5.73308e-08 0)
(2.78631 4.07377e-08 0)
(2.78631 4.13219e-08 0)
(1.77311 1.23027e-08 0)
(1.77311 1.00295e-08 0)
(1.77311 3.36488e-09 0)
(1.77311 2.89758e-09 0)
(1.77311 1.82055e-09 0)
(1.77311 5.61897e-09 0)
(1.77311 3.59524e-09 0)
(1.77311 9.95276e-09 0)
(1.77311 7.4539e-09 0)
(1.77311 1.64744e-08 0)
(1.77311 1.32125e-08 0)
(1.77311 2.49694e-08 0)
(1.77311 2.09277e-08 0)
(1.77311 3.38867e-08 0)
(1.77311 2.8609e-08 0)
(1.77311 3.85157e-08 0)
(1.77311 3.03218e-08 0)
(1.77311 3.26751e-08 0)
(1.77311 1.9214e-08 0)
(1.77311 2.03473e-08 0)
(0.633255 3.0061e-09 0)
(0.633255 2.0496e-09 0)
(0.633255 8.3027e-10 0)
(0.633255 8.67359e-10 0)
(0.633255 5.5021e-10 0)
(0.633255 1.90117e-09 0)
(0.633255 1.10012e-09 0)
(0.633255 3.36716e-09 0)
(0.633255 2.3046e-09 0)
(0.633255 5.53464e-09 0)
(0.633255 4.10164e-09 0)
(0.633255 8.32373e-09 0)
(0.633255 6.51532e-09 0)
(0.633255 1.1192e-08 0)
(0.633255 8.88942e-09 0)
(0.633255 1.25529e-08 0)
(0.633255 9.2493e-09 0)
(0.633255 1.05125e-08 0)
(0.633255 4.97963e-09 0)
(0.633256 5.36349e-09 0)
)
;

boundaryField
{
    top
    {
        type            fixedValue;
        value           uniform (0 0 0);
    }
    bottom
    {
        type            fixedValue;
        value           uniform (0 0 0);
    }
    inlet
    {
        type            zeroGradient;
    }
    outlet
    {
        type            zeroGradient;
    }
    frontAndBack
    {
        type            empty;
    }
}


// ************************************************************************* //
