/*--------------------------------*- C++ -*----------------------------------*\
| =========                 |                                                 |
| \\      /  F ield         | OpenFOAM: The Open Source CFD Toolbox           |
|  \\    /   O peration     | Version:  4.1                                   |
|   \\  /    A nd           | Web:      www.OpenFOAM.org                      |
|    \\/     M anipulation  |                                                 |
\*---------------------------------------------------------------------------*/
FoamFile
{
    version     2.0;
    format      ascii;
    class       volScalarField;
    location    "0.4";
    object      p;
}
// * * * * * * * * * * * * * * * * * * * * * * * * * * * * * * * * * * * * * //

dimensions      [0 2 -2 0 0 0 0];

internalField   nonuniform List<scalar> 
400
(
3.68833e-05
2.94743e-05
1.59019e-05
1.88154e-05
1.25946e-05
1.54854e-05
1.14911e-05
1.3142e-05
1.05149e-05
1.10227e-05
9.46837e-06
9.00209e-06
8.36345e-06
7.04629e-06
7.26161e-06
5.21828e-06
6.50628e-06
4.54216e-06
9.43716e-06
1.47919e-05
3.67049e-05
2.92804e-05
1.58755e-05
1.88072e-05
1.25933e-05
1.5484e-05
1.14913e-05
1.31416e-05
1.05151e-05
1.10225e-05
9.46841e-06
9.00212e-06
8.36329e-06
7.04642e-06
7.26107e-06
5.2178e-06
6.50185e-06
4.53513e-06
9.28829e-06
1.46437e-05
3.65754e-05
2.91133e-05
1.58461e-05
1.88037e-05
1.25895e-05
1.5485e-05
1.14898e-05
1.31425e-05
1.05143e-05
1.1023e-05
9.46811e-06
9.0022e-06
8.36337e-06
7.04606e-06
7.26141e-06
5.21661e-06
6.49928e-06
4.52294e-06
9.14856e-06
1.45187e-05
3.64806e-05
2.89789e-05
1.58162e-05
1.88016e-05
1.25858e-05
1.54864e-05
1.14881e-05
1.31436e-05
1.05134e-05
1.10236e-05
9.46778e-06
9.00227e-06
8.36349e-06
7.04564e-06
7.26193e-06
5.21562e-06
6.49732e-06
4.50534e-06
9.02555e-06
1.44157e-05
3.64048e-05
2.88685e-05
1.57871e-05
1.87998e-05
1.25829e-05
1.54874e-05
1.14867e-05
1.31445e-05
1.05128e-05
1.1024e-05
9.46753e-06
9.00232e-06
8.36359e-06
7.04531e-06
7.26241e-06
5.21508e-06
6.49558e-06
4.4844e-06
8.91428e-06
1.43249e-05
3.63405e-05
2.87731e-05
1.57581e-05
1.8798e-05
1.25806e-05
1.54882e-05
1.14857e-05
1.31451e-05
1.05122e-05
1.10244e-05
9.46733e-06
9.00235e-06
8.36366e-06
7.04506e-06
7.26286e-06
5.21492e-06
6.49399e-06
4.46051e-06
8.81011e-06
1.42412e-05
3.62874e-05
2.86922e-05
1.57301e-05
1.87965e-05
1.25788e-05
1.54889e-05
1.14848e-05
1.31456e-05
1.05118e-05
1.10246e-05
9.46718e-06
9.00238e-06
8.36372e-06
7.04486e-06
7.26331e-06
5.21509e-06
6.49266e-06
4.43472e-06
8.71337e-06
1.41647e-05
3.62445e-05
2.8625e-05
1.5704e-05
1.87952e-05
1.25775e-05
1.54894e-05
1.14842e-05
1.3146e-05
1.05115e-05
1.10248e-05
9.46707e-06
9.00239e-06
8.36377e-06
7.04472e-06
7.26375e-06
5.21558e-06
6.4916e-06
4.40808e-06
8.62405e-06
1.40944e-05
3.62104e-05
2.85706e-05
1.56803e-05
1.87941e-05
1.25767e-05
1.54897e-05
1.14838e-05
1.31463e-05
1.05113e-05
1.1025e-05
9.467e-06
9.00239e-06
8.3638e-06
7.04463e-06
7.26418e-06
5.21635e-06
6.49077e-06
4.38166e-06
8.54159e-06
1.40291e-05
3.61837e-05
2.8528e-05
1.566e-05
1.8793e-05
1.25764e-05
1.54899e-05
1.14836e-05
1.31464e-05
1.05112e-05
1.1025e-05
9.46697e-06
9.00239e-06
8.36382e-06
7.04461e-06
7.26458e-06
5.21737e-06
6.49011e-06
4.35643e-06
8.46506e-06
1.39673e-05
3.61634e-05
2.84965e-05
1.56436e-05
1.8792e-05
1.25766e-05
1.549e-05
1.14836e-05
1.31464e-05
1.05112e-05
1.1025e-05
9.46698e-06
9.00237e-06
8.36382e-06
7.04463e-06
7.26495e-06
5.21861e-06
6.48955e-06
4.33327e-06
8.39342e-06
1.39076e-05
3.61487e-05
2.84756e-05
1.56318e-05
1.87911e-05
1.25772e-05
1.54898e-05
1.14838e-05
1.31462e-05
1.05113e-05
1.10249e-05
9.46704e-06
9.00235e-06
8.36382e-06
7.04471e-06
7.26527e-06
5.22002e-06
6.48905e-06
4.3129e-06
8.32555e-06
1.38485e-05
3.6139e-05
2.84651e-05
1.56248e-05
1.87902e-05
1.25783e-05
1.54896e-05
1.14843e-05
1.31459e-05
1.05115e-05
1.10247e-05
9.46713e-06
9.00231e-06
8.36379e-06
7.04485e-06
7.26554e-06
5.22157e-06
6.48855e-06
4.29588e-06
8.26022e-06
1.37886e-05
3.61344e-05
2.84652e-05
1.5623e-05
1.87895e-05
1.25799e-05
1.54892e-05
1.14849e-05
1.31455e-05
1.05119e-05
1.10245e-05
9.46727e-06
9.00227e-06
8.36376e-06
7.04504e-06
7.26574e-06
5.22321e-06
6.48803e-06
4.28258e-06
8.1962e-06
1.37268e-05
3.61351e-05
2.84763e-05
1.56261e-05
1.87891e-05
1.25819e-05
1.54886e-05
1.14858e-05
1.31449e-05
1.05123e-05
1.10242e-05
9.46745e-06
9.00222e-06
8.36371e-06
7.04528e-06
7.26588e-06
5.2249e-06
6.48749e-06
4.27319e-06
8.13236e-06
1.36619e-05
3.61415e-05
2.84985e-05
1.5634e-05
1.87889e-05
1.25845e-05
1.54878e-05
1.14869e-05
1.31442e-05
1.05129e-05
1.10239e-05
9.46766e-06
9.00216e-06
8.36365e-06
7.04557e-06
7.26594e-06
5.22661e-06
6.48692e-06
4.26768e-06
8.06782e-06
1.35932e-05
3.61537e-05
2.85327e-05
1.56459e-05
1.87891e-05
1.25876e-05
1.54868e-05
1.14883e-05
1.31433e-05
1.05136e-05
1.10234e-05
9.46793e-06
9.00209e-06
8.36356e-06
7.04593e-06
7.26587e-06
5.22834e-06
6.48628e-06
4.26585e-06
8.00188e-06
1.35199e-05
3.61782e-05
2.85864e-05
1.56622e-05
1.87895e-05
1.25914e-05
1.54855e-05
1.149e-05
1.31422e-05
1.05145e-05
1.10228e-05
9.46826e-06
9.00202e-06
8.36344e-06
7.04639e-06
7.26565e-06
5.23014e-06
6.48564e-06
4.26754e-06
7.93277e-06
1.34397e-05
3.62259e-05
2.86637e-05
1.56816e-05
1.87916e-05
1.25951e-05
1.54845e-05
1.14915e-05
1.31413e-05
1.05152e-05
1.10223e-05
9.46855e-06
9.00195e-06
8.36335e-06
7.04679e-06
7.2655e-06
5.23167e-06
6.48542e-06
4.27295e-06
7.85767e-06
1.33521e-05
3.63183e-05
2.87654e-05
1.57006e-05
1.87986e-05
1.25964e-05
1.5486e-05
1.14912e-05
1.31418e-05
1.0515e-05
1.10225e-05
9.46848e-06
9.00195e-06
8.36349e-06
7.04671e-06
7.26611e-06
5.23211e-06
6.48691e-06
4.28053e-06
7.78421e-06
1.32741e-05
)
;

boundaryField
{
    top
    {
        type            zeroGradient;
    }
    bottom
    {
        type            zeroGradient;
    }
    inlet
    {
        type            fixedValue;
        value           uniform 0;
    }
    outlet
    {
        type            fixedValue;
        value           uniform 0;
    }
    frontAndBack
    {
        type            empty;
    }
}


// ************************************************************************* //
