/*--------------------------------*- C++ -*----------------------------------*\
| =========                 |                                                 |
| \\      /  F ield         | OpenFOAM: The Open Source CFD Toolbox           |
|  \\    /   O peration     | Version:  4.1                                   |
|   \\  /    A nd           | Web:      www.OpenFOAM.org                      |
|    \\/     M anipulation  |                                                 |
\*---------------------------------------------------------------------------*/
FoamFile
{
    version     2.0;
    format      ascii;
    class       surfaceScalarField;
    location    "0.4";
    object      phi;
}
// * * * * * * * * * * * * * * * * * * * * * * * * * * * * * * * * * * * * * //

dimensions      [0 3 -1 0 0 0 0];

internalField   nonuniform List<scalar> 
760
(
1.19602e-06
-6.39662e-11
1.19606e-06
-4.19355e-11
1.19606e-06
1.46822e-12
1.19607e-06
-4.25864e-12
1.19606e-06
2.74255e-12
1.19607e-06
-2.44211e-12
1.19606e-06
1.86364e-12
1.19607e-06
-1.45312e-12
1.19607e-06
1.04515e-12
1.19607e-06
-6.87256e-13
1.19607e-06
3.5285e-13
1.19607e-06
-4.44746e-14
1.19607e-06
-2.51434e-13
1.19607e-06
5.2397e-13
1.19607e-06
-8.27981e-13
1.19607e-06
9.88172e-13
1.19607e-06
-1.76334e-12
1.19606e-06
2.44842e-12
1.1961e-06
-3.15161e-11
-4.41694e-11
3.58942e-06
-1.89102e-10
3.58952e-06
-1.4611e-10
3.58953e-06
-2.44276e-12
3.58953e-06
-1.06913e-11
3.58953e-06
5.51091e-12
3.58953e-06
-5.4133e-12
3.58953e-06
3.9695e-12
3.58953e-06
-3.14569e-12
3.58953e-06
2.23813e-12
3.58953e-06
-1.47087e-12
3.58953e-06
7.42261e-13
3.58953e-06
-7.73941e-14
3.58953e-06
-5.71822e-13
3.58953e-06
1.1416e-12
3.58953e-06
-1.86839e-12
3.58953e-06
1.96563e-12
3.58953e-06
-4.69887e-12
3.58953e-06
5.82167e-12
3.58962e-06
-1.17963e-10
-1.46616e-10
5.9868e-06
-3.31945e-10
5.98693e-06
-2.8016e-10
5.98694e-06
-9.8875e-12
5.98695e-06
-1.57354e-11
5.98695e-06
7.0322e-12
5.98695e-06
-7.34154e-12
5.98695e-06
5.25253e-12
5.98695e-06
-4.20073e-12
5.98695e-06
2.96464e-12
5.98695e-06
-1.94236e-12
5.98695e-06
9.62027e-13
5.98695e-06
-7.26361e-14
5.98695e-06
-8.03812e-13
5.98695e-06
1.55435e-12
5.98695e-06
-2.57702e-12
5.98695e-06
2.50646e-12
5.98695e-06
-7.30135e-12
5.98695e-06
1.01193e-11
5.98707e-06
-2.44022e-10
-2.85673e-10
8.3907e-06
-4.66997e-10
8.39083e-06
-4.15374e-10
8.39084e-06
-1.80162e-11
8.39084e-06
-1.88023e-11
8.39084e-06
7.64016e-12
8.39084e-06
-8.25382e-12
8.39084e-06
5.81962e-12
8.39084e-06
-4.67468e-12
8.39084e-06
3.27833e-12
8.39084e-06
-2.13752e-12
8.39084e-06
1.03743e-12
8.39084e-06
-4.20277e-14
8.39084e-06
-9.42486e-13
8.39084e-06
1.77882e-12
8.39084e-06
-2.94601e-12
8.39084e-06
2.73444e-12
8.39084e-06
-9.25755e-12
8.39084e-06
1.55244e-11
8.39099e-06
-3.92641e-10
-4.44591e-10
1.08035e-05
-5.75385e-10
1.08036e-05
-5.30796e-10
1.08036e-05
-2.5661e-11
1.08036e-05
-1.99632e-11
1.08036e-05
7.4633e-12
1.08036e-05
-8.2643e-12
1.08036e-05
5.76075e-12
1.08036e-05
-4.63949e-12
1.08036e-05
3.23365e-12
1.08036e-05
-2.09525e-12
1.08036e-05
9.9284e-13
1.08036e-05
3.2758e-15
1.08036e-05
-9.89937e-13
1.08036e-05
1.82737e-12
1.08036e-05
-3.00494e-12
1.08036e-05
2.67847e-12
1.08036e-05
-1.05617e-11
1.08036e-05
2.14888e-11
1.08037e-05
-5.47609e-10
-6.06983e-10
1.32272e-05
-6.43825e-10
1.32273e-05
-6.11095e-10
1.32273e-05
-3.17759e-11
1.32273e-05
-1.93402e-11
1.32273e-05
6.63595e-12
1.32273e-05
-7.50232e-12
1.32273e-05
5.17354e-12
1.32273e-05
-4.17368e-12
1.32273e-05
2.88866e-12
1.32273e-05
-1.85612e-12
1.32273e-05
8.52262e-13
1.32273e-05
5.42239e-14
1.32273e-05
-9.52165e-13
1.32273e-05
1.7177e-12
1.32273e-05
-2.79095e-12
1.32273e-05
2.37402e-12
1.32273e-05
-1.12121e-11
1.32273e-05
2.74617e-11
1.32275e-05
-6.9336e-10
-7.57138e-10
1.56639e-05
-6.64928e-10
1.5664e-05
-6.46977e-10
1.5664e-05
-3.55564e-11
1.5664e-05
-1.71181e-11
1.5664e-05
5.29543e-12
1.5664e-05
-6.11016e-12
1.5664e-05
4.16155e-12
1.5664e-05
-3.36099e-12
1.5664e-05
2.30411e-12
1.5664e-05
-1.46175e-12
1.5664e-05
6.39019e-13
1.5664e-05
1.03936e-13
1.5664e-05
-8.38864e-13
1.5664e-05
1.4724e-12
1.5664e-05
-2.34805e-12
1.5664e-05
1.86262e-12
1.5664e-05
-1.12191e-11
1.5664e-05
3.2898e-11
1.56641e-05
-8.16119e-10
-8.81175e-10
1.8115e-05
-6.3718e-10
1.8115e-05
-6.35272e-10
1.8115e-05
-3.65336e-11
1.8115e-05
-1.35492e-11
1.8115e-05
3.57959e-12
1.8115e-05
-4.24019e-12
1.8115e-05
2.83252e-12
1.8115e-05
-2.28894e-12
1.8115e-05
1.5424e-12
1.8115e-05
-9.54175e-13
1.8115e-05
3.75481e-13
1.8115e-05
1.47655e-13
1.8115e-05
-6.6304e-13
1.8115e-05
1.11838e-12
1.8115e-05
-1.726e-12
1.8115e-05
1.19135e-12
1.8115e-05
-1.06125e-11
1.8115e-05
3.72837e-11
1.81151e-05
-9.04851e-10
-9.68026e-10
2.05818e-05
-5.64592e-10
2.05817e-05
-5.78655e-10
2.05817e-05
-3.46331e-11
2.05817e-05
-8.95385e-12
2.05817e-05
1.62477e-12
2.05817e-05
-2.0523e-12
2.05817e-05
1.29682e-12
2.05817e-05
-1.04743e-12
2.05817e-05
6.66784e-13
2.05817e-05
-3.75337e-13
2.05817e-05
8.29269e-14
2.05817e-05
1.82575e-13
2.05817e-05
-4.40532e-13
2.05817e-05
6.8617e-13
2.05817e-05
-9.79199e-13
2.05817e-05
4.12062e-13
2.05817e-05
-9.44745e-12
2.05817e-05
4.01754e-11
2.05818e-05
-9.51987e-10
-1.0102e-09
2.3065e-05
-4.56007e-10
2.30649e-05
-4.8497e-10
2.30649e-05
-3.01846e-11
2.30649e-05
-3.7138e-12
2.30649e-05
-4.35571e-13
2.30649e-05
2.88948e-13
2.30649e-05
-3.34094e-13
2.30649e-05
2.72447e-13
2.30649e-05
-2.59401e-13
2.30649e-05
2.33273e-13
2.30649e-05
-2.18478e-13
2.30649e-05
2.0757e-13
2.30649e-05
-1.8942e-13
2.30649e-05
2.09099e-13
2.30649e-05
-1.65464e-13
2.30649e-05
-4.1962e-13
2.30649e-05
-7.80942e-12
2.30649e-05
4.12457e-11
2.30649e-05
-9.53873e-10
-1.00428e-09
2.55651e-05
-3.24066e-10
2.5565e-05
-3.66175e-10
2.5565e-05
-2.38775e-11
2.5565e-05
1.74053e-12
2.5565e-05
-2.47145e-12
2.5565e-05
2.61709e-12
2.5565e-05
-1.94899e-12
2.5565e-05
1.5796e-12
2.5565e-05
-1.17335e-12
2.5565e-05
8.30921e-13
2.5565e-05
-5.09623e-13
2.5565e-05
2.22826e-13
2.5565e-05
7.06548e-14
2.5565e-05
-2.77644e-13
2.5565e-05
6.55363e-13
2.5565e-05
-1.24546e-12
2.5565e-05
-5.81668e-12
2.5565e-05
4.03271e-11
2.55649e-05
-9.10951e-10
-9.51158e-10
2.8082e-05
-1.83869e-10
2.80819e-05
-2.36931e-10
2.80819e-05
-1.66638e-11
2.80819e-05
6.94987e-12
2.80819e-05
-4.35623e-12
2.80819e-05
4.76668e-12
2.80819e-05
-3.43812e-12
2.80819e-05
2.78405e-12
2.80819e-05
-2.01334e-12
2.80819e-05
1.37785e-12
2.80819e-05
-7.72308e-13
2.80819e-05
2.29392e-13
2.80819e-05
3.19251e-13
2.80819e-05
-7.38018e-13
2.80819e-05
1.42284e-12
2.80819e-05
-2.00604e-12
2.80819e-05
-3.62005e-12
2.80819e-05
3.74454e-11
2.80818e-05
-8.27642e-10
-8.55919e-10
3.06154e-05
-5.13878e-11
3.06153e-05
-1.12899e-10
3.06153e-05
-9.61422e-12
3.06153e-05
1.14508e-11
3.06153e-05
-5.9659e-12
3.06153e-05
6.5762e-12
3.06153e-05
-4.69434e-12
3.06153e-05
3.798e-12
3.06153e-05
-2.71926e-12
3.06153e-05
1.83542e-12
3.06153e-05
-9.89036e-13
3.06153e-05
2.2867e-13
3.06153e-05
5.35945e-13
3.06153e-05
-1.13622e-12
3.06153e-05
2.07741e-12
3.06153e-05
-2.64241e-12
3.06153e-05
-1.39933e-12
3.06153e-05
3.28341e-11
3.06152e-05
-7.11946e-10
-7.27475e-10
3.31644e-05
5.83252e-11
3.31643e-05
-8.80909e-12
3.31643e-05
-3.74528e-12
3.31643e-05
1.48033e-11
3.31643e-05
-7.17782e-12
3.31643e-05
7.89075e-12
3.31643e-05
-5.61414e-12
3.31643e-05
4.53674e-12
3.31643e-05
-3.23293e-12
3.31643e-05
2.1662e-12
3.31643e-05
-1.14276e-12
3.31643e-05
2.21865e-13
3.31643e-05
7.0118e-13
3.31643e-05
-1.43779e-12
3.31643e-05
2.56195e-12
3.31643e-05
-3.09798e-12
3.31643e-05
6.4372e-13
3.31643e-05
2.69226e-11
3.31641e-05
-5.7477e-10
-5.77856e-10
3.57278e-05
1.33042e-10
3.57277e-05
6.3598e-11
3.57277e-05
1.62714e-13
3.57277e-05
1.66186e-11
3.57277e-05
-7.86945e-12
3.57277e-05
8.56472e-12
3.57277e-05
-6.09847e-12
3.57277e-05
4.91952e-12
3.57277e-05
-3.49851e-12
3.57277e-05
2.33403e-12
3.57277e-05
-1.21658e-12
3.57277e-05
2.09411e-13
3.57277e-05
7.97128e-13
3.57277e-05
-1.61076e-12
3.57277e-05
2.82323e-12
3.57277e-05
-3.32059e-12
3.57277e-05
2.29574e-12
3.57277e-05
2.02961e-11
3.57275e-05
-4.29015e-10
-4.21237e-10
3.8304e-05
1.65302e-10
3.8304e-05
9.76478e-11
3.8304e-05
1.72633e-12
3.8304e-05
1.65825e-11
3.8304e-05
-7.91723e-12
3.8304e-05
8.46416e-12
3.8304e-05
-6.05364e-12
3.8304e-05
4.87039e-12
3.8304e-05
-3.46279e-12
3.8304e-05
2.30401e-12
3.8304e-05
-1.19347e-12
3.8304e-05
1.90402e-13
3.8304e-05
8.08538e-13
3.8304e-05
-1.62673e-12
3.8304e-05
2.8134e-12
3.8304e-05
-3.26475e-12
3.8304e-05
3.34508e-12
3.8304e-05
1.36249e-11
3.83038e-05
-2.88452e-10
-2.72734e-10
4.08912e-05
1.54315e-10
4.08912e-05
9.37172e-11
4.08912e-05
1.06711e-12
4.08912e-05
1.44712e-11
4.08912e-05
-7.19662e-12
4.08912e-05
7.46892e-12
4.08912e-05
-5.39221e-12
4.08912e-05
4.31904e-12
4.08912e-05
-3.07553e-12
4.08912e-05
2.04264e-12
4.08912e-05
-1.05603e-12
4.08912e-05
1.62054e-13
4.08912e-05
7.23561e-13
4.08912e-05
-1.46196e-12
4.08912e-05
2.49142e-12
4.08912e-05
-2.89383e-12
4.08912e-05
3.5974e-12
4.08912e-05
7.56977e-12
4.08911e-05
-1.6644e-10
-1.46995e-10
4.34872e-05
1.07701e-10
4.34872e-05
6.09892e-11
4.34872e-05
-1.17389e-12
4.34872e-05
1.01512e-11
4.34872e-05
-5.58407e-12
4.34872e-05
5.47379e-12
4.34872e-05
-4.03393e-12
4.34872e-05
3.20133e-12
4.34872e-05
-2.28982e-12
4.34872e-05
1.51775e-12
4.34872e-05
-7.86226e-13
4.34872e-05
1.19217e-13
4.34872e-05
5.34478e-13
4.34872e-05
-1.09832e-12
4.34872e-05
1.82421e-12
4.34872e-05
-2.18224e-12
4.34872e-05
2.89126e-12
4.34872e-05
2.66796e-12
4.34871e-05
-7.45429e-11
-5.66808e-11
4.60897e-05
4.30341e-11
4.60897e-05
2.01674e-11
4.60897e-05
-2.24351e-12
4.60897e-05
4.15172e-12
4.60897e-05
-2.75636e-12
4.60897e-05
2.45837e-12
4.60897e-05
-1.88003e-12
4.60897e-05
1.46757e-12
4.60897e-05
-1.05842e-12
4.60897e-05
6.99354e-13
4.60897e-05
-3.64201e-13
4.60897e-05
5.52575e-14
4.60897e-05
2.41744e-13
4.60897e-05
-5.13221e-13
4.60897e-05
8.15211e-13
4.60897e-05
-1.04624e-12
4.60897e-05
1.30464e-12
4.60897e-05
-7.7415e-14
4.60897e-05
-1.89386e-11
-9.31107e-12
4.86961e-05
4.86961e-05
4.86961e-05
4.86961e-05
4.86961e-05
4.86961e-05
4.86961e-05
4.86961e-05
4.86961e-05
4.86961e-05
4.86961e-05
4.86961e-05
4.86961e-05
4.86961e-05
4.86961e-05
4.86961e-05
4.86961e-05
4.86961e-05
4.86961e-05
)
;

boundaryField
{
    top
    {
        type            calculated;
        value           uniform 0;
    }
    bottom
    {
        type            calculated;
        value           uniform 0;
    }
    inlet
    {
        type            calculated;
        value           nonuniform List<scalar> 
20
(
-1.19596e-06
-3.58929e-06
-5.98666e-06
-8.39056e-06
-1.08034e-05
-1.32272e-05
-1.56639e-05
-1.81151e-05
-2.05819e-05
-2.30651e-05
-2.55652e-05
-2.80822e-05
-3.06155e-05
-3.31645e-05
-3.57278e-05
-3.8304e-05
-4.08912e-05
-4.34871e-05
-4.60896e-05
-4.86961e-05
)
;
    }
    outlet
    {
        type            calculated;
        value           nonuniform List<scalar> 
20
(
1.19614e-06
3.58972e-06
5.98721e-06
8.39115e-06
1.08039e-05
1.32276e-05
1.56642e-05
1.81152e-05
2.05818e-05
2.30649e-05
2.55649e-05
2.80817e-05
3.0615e-05
3.3164e-05
3.57274e-05
3.83037e-05
4.08909e-05
4.34871e-05
4.60896e-05
4.86961e-05
)
;
    }
    frontAndBack
    {
        type            empty;
        value           nonuniform 0();
    }
}


// ************************************************************************* //
