/*--------------------------------*- C++ -*----------------------------------*\
| =========                 |                                                 |
| \\      /  F ield         | OpenFOAM: The Open Source CFD Toolbox           |
|  \\    /   O peration     | Version:  4.1                                   |
|   \\  /    A nd           | Web:      www.OpenFOAM.org                      |
|    \\/     M anipulation  |                                                 |
\*---------------------------------------------------------------------------*/
FoamFile
{
    version     2.0;
    format      ascii;
    class       volVectorField;
    location    "0.4";
    object      U;
}
// * * * * * * * * * * * * * * * * * * * * * * * * * * * * * * * * * * * * * //

dimensions      [0 1 -1 0 0 0 0];

internalField   nonuniform List<vector> 
400
(
(0.0239195 -3.10911e-08 0)
(0.0239211 -1.99994e-08 0)
(0.0239214 2.51696e-10 0)
(0.0239212 -2.40661e-09 0)
(0.0239214 1.35285e-09 0)
(0.0239212 -1.29499e-09 0)
(0.0239214 9.60492e-10 0)
(0.0239213 -7.59534e-10 0)
(0.0239214 5.43412e-10 0)
(0.0239213 -3.59182e-10 0)
(0.0239213 1.84852e-10 0)
(0.0239213 -2.55447e-11 0)
(0.0239213 -1.29824e-10 0)
(0.0239213 2.66729e-10 0)
(0.0239213 -4.36163e-10 0)
(0.0239213 4.8499e-10 0)
(0.0239214 -1.00142e-09 0)
(0.0239213 5.88292e-10 0)
(0.0239213 -1.28744e-08 0)
(0.0239227 -1.88276e-08 0)
(0.0717863 -1.17592e-07 0)
(0.0717899 -8.30211e-08 0)
(0.0717908 9.63029e-10 0)
(0.0717903 -7.36067e-09 0)
(0.0717908 4.30929e-09 0)
(0.0717904 -4.00185e-09 0)
(0.0717908 3.0026e-09 0)
(0.0717905 -2.35704e-09 0)
(0.0717907 1.68773e-09 0)
(0.0717905 -1.10954e-09 0)
(0.0717907 5.65666e-10 0)
(0.0717905 -6.63164e-11 0)
(0.0717907 -4.16286e-10 0)
(0.0717905 8.51558e-10 0)
(0.0717907 -1.37022e-09 0)
(0.0717905 1.53609e-09 0)
(0.0717908 -3.115e-09 0)
(0.0717905 4.32499e-09 0)
(0.0717907 -6.35808e-08 0)
(0.0717942 -8.46374e-08 0)
(0.119734 -2.58804e-07 0)
(0.119738 -2.0993e-07 0)
(0.119739 -6.14216e-09 0)
(0.119738 -1.36036e-08 0)
(0.119739 6.40477e-09 0)
(0.119739 -6.56118e-09 0)
(0.119739 4.73174e-09 0)
(0.119739 -3.77525e-09 0)
(0.119739 2.6732e-09 0)
(0.119739 -1.75573e-09 0)
(0.119739 8.78507e-10 0)
(0.119739 -8.14993e-11 0)
(0.119739 -7.02332e-10 0)
(0.119739 1.37691e-09 0)
(0.119739 -2.28121e-09 0)
(0.119739 2.28098e-09 0)
(0.119739 -6.12622e-09 0)
(0.119739 7.34919e-09 0)
(0.119739 -1.73301e-07 0)
(0.119744 -2.0847e-07 0)
(0.167812 -4.03125e-07 0)
(0.167816 -3.49325e-07 0)
(0.167817 -1.38086e-08 0)
(0.167816 -1.77196e-08 0)
(0.167817 7.56379e-09 0)
(0.167816 -8.0365e-09 0)
(0.167817 5.7075e-09 0)
(0.167817 -4.57537e-09 0)
(0.167817 3.21945e-09 0)
(0.167817 -2.10508e-09 0)
(0.167817 1.03342e-09 0)
(0.167817 -6.25903e-11 0)
(0.167817 -8.96121e-10 0)
(0.167817 1.71293e-09 0)
(0.167817 -2.84216e-09 0)
(0.167817 2.70049e-09 0)
(0.167817 -8.42501e-09 0)
(0.167817 1.26298e-08 0)
(0.167817 -3.14114e-07 0)
(0.167823 -3.6161e-07 0)
(0.216068 -5.29893e-07 0)
(0.21607 -4.80269e-07 0)
(0.216073 -2.21469e-08 0)
(0.216071 -1.98666e-08 0)
(0.216072 7.74144e-09 0)
(0.216071 -8.48008e-09 0)
(0.216072 5.94229e-09 0)
(0.216071 -4.78109e-09 0)
(0.216072 3.34286e-09 0)
(0.216072 -2.17369e-09 0)
(0.216072 1.04365e-09 0)
(0.216072 -2.21036e-11 0)
(0.216072 -9.8946e-10 0)
(0.216072 1.84709e-09 0)
(0.216072 -3.05206e-09 0)
(0.216071 2.77738e-09 0)
(0.216072 -1.00841e-08 0)
(0.216071 1.83698e-08 0)
(0.216072 -4.70583e-07 0)
(0.216078 -5.26965e-07 0)
(0.264544 -6.20853e-07 0)
(0.264545 -5.81249e-07 0)
(0.264548 -2.92713e-08 0)
(0.264546 -2.00801e-08 0)
(0.264547 7.19689e-09 0)
(0.264546 -8.06156e-09 0)
(0.264547 5.58774e-09 0)
(0.264546 -4.50519e-09 0)
(0.264547 3.12952e-09 0)
(0.264546 -2.02027e-09 0)
(0.264547 9.4386e-10 0)
(0.264546 2.82477e-11 0)
(0.264547 -9.91534e-10 0)
(0.264546 1.80984e-09 0)
(0.264547 -2.9614e-09 0)
(0.264546 2.585e-09 0)
(0.264547 -1.10523e-08 0)
(0.264546 2.44764e-08 0)
(0.264547 -6.24676e-07 0)
(0.264552 -6.86979e-07 0)
(0.313278 -6.66677e-07 0)
(0.313278 -6.40863e-07 0)
(0.31328 -3.4384e-08 0)
(0.313278 -1.85968e-08 0)
(0.31328 6.07644e-09 0)
(0.313279 -6.94478e-09 0)
(0.31328 4.75985e-09 0)
(0.313279 -3.84297e-09 0)
(0.313279 2.64826e-09 0)
(0.313279 -1.69234e-09 0)
(0.313279 7.60869e-10 0)
(0.313279 8.00849e-11 0)
(0.313279 -9.12885e-10 0)
(0.313279 1.62566e-09 0)
(0.313279 -2.62016e-09 0)
(0.313279 2.16578e-09 0)
(0.31328 -1.13723e-08 0)
(0.313279 3.03122e-08 0)
(0.313279 -7.62043e-07 0)
(0.313284 -8.27199e-07 0)
(0.362302 -6.62998e-07 0)
(0.362299 -6.52966e-07 0)
(0.362302 -3.68277e-08 0)
(0.3623 -1.56294e-08 0)
(0.362301 4.51476e-09 0)
(0.3623 -5.2747e-09 0)
(0.362301 3.56236e-09 0)
(0.3623 -2.87855e-09 0)
(0.362301 1.95955e-09 0)
(0.3623 -1.23094e-09 0)
(0.362301 5.17069e-10 0)
(0.3623 1.27738e-10 0)
(0.362301 -7.64728e-10 0)
(0.3623 1.31891e-09 0)
(0.362301 -2.07461e-09 0)
(0.3623 1.56273e-09 0)
(0.362301 -1.10607e-08 0)
(0.3623 3.53504e-08 0)
(0.362301 -8.70121e-07 0)
(0.362304 -9.34984e-07 0)
(0.411638 -6.11187e-07 0)
(0.411633 -6.17452e-07 0)
(0.411636 -3.63307e-08 0)
(0.411634 -1.14609e-08 0)
(0.411635 2.64579e-09 0)
(0.411634 -3.20533e-09 0)
(0.411635 2.10243e-09 0)
(0.411634 -1.69925e-09 0)
(0.411635 1.12515e-09 0)
(0.411634 -6.77365e-10 0)
(0.411635 2.33879e-10 0)
(0.411634 1.67536e-10 0)
(0.411635 -5.61329e-10 0)
(0.411634 9.17848e-10 0)
(0.411635 -1.37615e-09 0)
(0.411634 8.24334e-10 0)
(0.411635 -1.01571e-08 0)
(0.411634 3.90938e-08 0)
(0.411635 -9.39468e-07 0)
(0.411636 -1.00088e-06 0)
(0.461303 -5.17859e-07 0)
(0.461297 -5.39766e-07 0)
(0.461299 -3.3019e-08 0)
(0.461297 -6.44276e-09 0)
(0.461299 6.04939e-10 0)
(0.461297 -8.99179e-10 0)
(0.461299 4.91208e-10 0)
(0.461298 -3.95699e-10 0)
(0.461299 2.08438e-10 0)
(0.461298 -7.334e-11 0)
(0.461298 -6.80093e-11 0)
(0.461298 1.97592e-10 0)
(0.461298 -3.19764e-10 0)
(0.461298 4.54595e-10 0)
(0.461299 -5.81079e-10 0)
(0.461298 4.67619e-12 0)
(0.461299 -8.73018e-09 0)
(0.461298 4.11472e-08 0)
(0.461299 -9.64375e-07 0)
(0.461298 -1.01933e-06 0)
(0.511305 -3.94055e-07 0)
(0.511298 -4.30118e-07 0)
(0.511301 -2.742e-08 0)
(0.511298 -9.8517e-10 0)
(0.5113 -1.47564e-09 0)
(0.511299 1.47726e-09 0)
(0.5113 -1.15944e-09 0)
(0.511299 9.4056e-10 0)
(0.5113 -7.27253e-10 0)
(0.511299 5.39883e-10 0)
(0.5113 -3.68947e-10 0)
(0.511299 2.17536e-10 0)
(0.5113 -5.91027e-11 0)
(0.511299 -3.6294e-11 0)
(0.5113 2.51359e-10 0)
(0.511299 -8.38868e-10 0)
(0.5113 -6.88148e-09 0)
(0.511299 4.12523e-08 0)
(0.5113 -9.43227e-07 0)
(0.511297 -9.89054e-07 0)
(0.561644 -2.54018e-07 0)
(0.561637 -3.02212e-07 0)
(0.561639 -2.03851e-08 0)
(0.561637 4.46135e-09 0)
(0.561639 -3.46754e-09 0)
(0.561637 3.75718e-09 0)
(0.561638 -2.7386e-09 0)
(0.561637 2.21864e-09 0)
(0.561638 -1.61947e-09 0)
(0.561637 1.12197e-09 0)
(0.561638 -6.50302e-10 0)
(0.561637 2.28101e-10 0)
(0.561638 2.004e-10 0)
(0.561637 -5.18905e-10 0)
(0.561638 1.06059e-09 0)
(0.561637 -1.64702e-09 0)
(0.561638 -4.74608e-09 0)
(0.561637 3.93313e-08 0)
(0.561638 -8.78521e-07 0)
(0.561634 -9.13092e-07 0)
(0.612311 -1.13713e-07 0)
(0.612304 -1.71669e-07 0)
(0.612307 -1.2967e-08 0)
(0.612304 9.42866e-09 0)
(0.612306 -5.24532e-09 0)
(0.612305 5.77612e-09 0)
(0.612306 -4.13737e-09 0)
(0.612305 3.34926e-09 0)
(0.612306 -2.40708e-09 0)
(0.612305 1.63362e-09 0)
(0.612306 -8.94248e-10 0)
(0.612305 2.30645e-10 0)
(0.612306 4.38075e-10 0)
(0.612305 -9.56982e-10 0)
(0.612306 1.78616e-09 0)
(0.612305 -2.36004e-09 0)
(0.612306 -2.49061e-09 0)
(0.612305 3.55123e-08 0)
(0.612306 -7.76607e-07 0)
(0.6123 -7.98589e-07 0)
(0.66329 1.09042e-08 0)
(0.663284 -5.41647e-08 0)
(0.663286 -6.25232e-09 0)
(0.663285 1.34601e-08 0)
(0.663286 -6.68575e-09 0)
(0.663285 7.37565e-09 0)
(0.663286 -5.25032e-09 0)
(0.663285 4.24609e-09 0)
(0.663286 -3.03093e-09 0)
(0.663285 2.03687e-09 0)
(0.663286 -1.08362e-09 0)
(0.663285 2.26618e-10 0)
(0.663286 6.33752e-10 0)
(0.663285 -1.31514e-09 0)
(0.663286 2.36952e-09 0)
(0.663285 -2.91955e-09 0)
(0.663286 -3.07358e-10 0)
(0.663285 3.01331e-08 0)
(0.663286 -6.47141e-07 0)
(0.663279 -6.56231e-07 0)
(0.714557 1.05703e-07 0)
(0.714553 3.65064e-08 0)
(0.714555 -1.19389e-09 0)
(0.714553 1.61389e-08 0)
(0.714554 -7.67019e-09 0)
(0.714553 8.40766e-09 0)
(0.714554 -5.97822e-09 0)
(0.714553 4.82792e-09 0)
(0.714554 -3.4352e-09 0)
(0.714553 2.29571e-09 0)
(0.714554 -1.20193e-09 0)
(0.714554 2.17041e-10 0)
(0.714554 7.68815e-10 0)
(0.714553 -1.56053e-09 0)
(0.714554 2.756e-09 0)
(0.714553 -3.27216e-09 0)
(0.714554 1.59471e-09 0)
(0.714553 2.37156e-08 0)
(0.714555 -5.02289e-07 0)
(0.714548 -4.99386e-07 0)
(0.766081 1.6036e-07 0)
(0.766078 9.05997e-08 0)
(0.76608 1.5876e-09 0)
(0.766078 1.71132e-08 0)
(0.76608 -8.07908e-09 0)
(0.766079 8.73479e-09 0)
(0.76608 -6.22676e-09 0)
(0.766079 5.01799e-09 0)
(0.766079 -3.56655e-09 0)
(0.766079 2.37547e-09 0)
(0.766079 -1.23275e-09 0)
(0.766079 2.01888e-10 0)
(0.766079 8.26802e-10 0)
(0.766079 -1.66329e-09 0)
(0.766079 2.8958e-09 0)
(0.766079 -3.36922e-09 0)
(0.766079 3.00162e-09 0)
(0.766079 1.69012e-08 0)
(0.76608 -3.55649e-07 0)
(0.766073 -3.42973e-07 0)
(0.817824 1.69416e-07 0)
(0.817823 1.03728e-07 0)
(0.817824 1.82333e-09 0)
(0.817823 1.60332e-08 0)
(0.817824 -7.77823e-09 0)
(0.817823 8.2018e-09 0)
(0.817824 -5.89001e-09 0)
(0.817824 4.72905e-09 0)
(0.817824 -3.36387e-09 0)
(0.817824 2.23557e-09 0)
(0.817824 -1.15574e-09 0)
(0.817824 1.78929e-10 0)
(0.817824 7.91444e-10 0)
(0.817824 -1.59317e-09 0)
(0.817824 2.73401e-09 0)
(0.817824 -3.16666e-09 0)
(0.817824 3.68185e-09 0)
(0.817823 1.03691e-08 0)
(0.817824 -2.21033e-07 0)
(0.817819 -2.02231e-07 0)
(0.869743 1.37835e-07 0)
(0.869744 8.32114e-08 0)
(0.869745 4.77207e-10 0)
(0.869744 1.27534e-08 0)
(0.869745 -6.51552e-09 0)
(0.869744 6.64981e-09 0)
(0.869745 -4.82697e-09 0)
(0.869744 3.85679e-09 0)
(0.869745 -2.74934e-09 0)
(0.869745 1.82466e-09 0)
(0.869745 -9.43153e-10 0)
(0.869745 1.42975e-10 0)
(0.869745 6.47366e-10 0)
(0.869745 -1.31256e-09 0)
(0.869745 2.22187e-09 0)
(0.869745 -2.57823e-09 0)
(0.869745 3.45746e-09 0)
(0.869744 4.74491e-09 0)
(0.869745 -1.11491e-07 0)
(0.869741 -9.16708e-08 0)
(0.921793 7.48502e-08 0)
(0.921794 3.86589e-08 0)
(0.921795 -2.41323e-09 0)
(0.921794 7.12982e-09 0)
(0.921795 -4.34555e-09 0)
(0.921794 4.03372e-09 0)
(0.921795 -3.03649e-09 0)
(0.921794 2.38696e-09 0)
(0.921795 -1.71512e-09 0)
(0.921794 1.13454e-09 0)
(0.921795 -5.89091e-10 0)
(0.921794 8.86541e-11 0)
(0.921795 3.96483e-10 0)
(0.921794 -8.29547e-10 0)
(0.921795 1.3384e-09 0)
(0.921794 -1.68223e-09 0)
(0.921795 2.16462e-09 0)
(0.921794 7.85733e-10 0)
(0.921795 -3.85574e-08 0)
(0.921792 -2.3831e-08 0)
(0.973922 2.43143e-08 0)
(0.973922 1.28047e-08 0)
(0.973923 -5.71057e-10 0)
(0.973923 2.34513e-09 0)
(0.973923 -1.35977e-09 0)
(0.973923 1.30088e-09 0)
(0.973923 -9.66194e-10 0)
(0.973923 7.64472e-10 0)
(0.973923 -5.48079e-10 0)
(0.973923 3.63374e-10 0)
(0.973923 -1.88818e-10 0)
(0.973923 2.92873e-11 0)
(0.973923 1.26544e-10 0)
(0.973923 -2.61926e-10 0)
(0.973923 4.35899e-10 0)
(0.973923 -5.0467e-10 0)
(0.973923 7.73107e-10 0)
(0.973923 -1.83469e-10 0)
(0.973923 -5.29939e-09 0)
(0.973922 -6.21653e-11 0)
)
;

boundaryField
{
    top
    {
        type            fixedValue;
        value           uniform (1 0 0);
    }
    bottom
    {
        type            fixedValue;
        value           uniform (0 0 0);
    }
    inlet
    {
        type            zeroGradient;
    }
    outlet
    {
        type            zeroGradient;
    }
    frontAndBack
    {
        type            empty;
    }
}


// ************************************************************************* //
