/*--------------------------------*- C++ -*----------------------------------*\
| =========                 |                                                 |
| \\      /  F ield         | OpenFOAM: The Open Source CFD Toolbox           |
|  \\    /   O peration     | Version:  4.1                                   |
|   \\  /    A nd           | Web:      www.OpenFOAM.org                      |
|    \\/     M anipulation  |                                                 |
\*---------------------------------------------------------------------------*/
FoamFile
{
    version     2.0;
    format      ascii;
    class       surfaceScalarField;
    location    "2.4";
    object      phi;
}
// * * * * * * * * * * * * * * * * * * * * * * * * * * * * * * * * * * * * * //

dimensions      [0 3 -1 0 0 0 0];

internalField   nonuniform List<scalar> 
760
(
3.1664e-05
-1.19236e-12
3.1664e-05
4.40615e-12
3.1664e-05
-1.9054e-12
3.1664e-05
1.43615e-12
3.1664e-05
-3.48875e-12
3.1664e-05
3.0844e-12
3.1664e-05
-4.00098e-12
3.1664e-05
3.12763e-12
3.1664e-05
-5.16473e-12
3.1664e-05
2.78557e-12
3.1664e-05
-5.63977e-12
3.1664e-05
1.55788e-12
3.1664e-05
-5.80937e-12
3.1664e-05
-2.6859e-13
3.1664e-05
-5.71725e-12
3.1664e-05
-1.78112e-12
3.1664e-05
-4.87152e-12
3.1664e-05
-1.96091e-12
3.1664e-05
-2.66962e-12
-1.38383e-12
8.86593e-05
-3.19501e-12
8.86593e-05
9.41992e-12
8.86593e-05
-4.22112e-12
8.86593e-05
4.04629e-12
8.86593e-05
-6.91766e-12
8.86593e-05
7.71651e-12
8.86593e-05
-6.94811e-12
8.86593e-05
8.65709e-12
8.86593e-05
-7.71642e-12
8.86593e-05
9.21405e-12
8.86593e-05
-6.34282e-12
8.86593e-05
8.6418e-12
8.86593e-05
-3.86917e-12
8.86593e-05
7.50796e-12
8.86593e-05
-1.12744e-12
8.86593e-05
6.48491e-12
8.86593e-05
1.01524e-12
8.86593e-05
5.16506e-12
8.86593e-05
-3.59414e-13
-2.65458e-12
0.000139322
-5.15849e-12
0.000139322
1.42756e-11
0.000139322
-6.35047e-12
0.000139322
6.90763e-12
0.000139322
-1.00793e-11
0.000139322
1.22813e-11
0.000139322
-9.29471e-12
0.000139322
1.42145e-11
0.000139322
-9.22206e-12
0.000139322
1.57469e-11
0.000139322
-5.52034e-12
0.000139322
1.61027e-11
0.000139322
2.25072e-14
0.000139322
1.61156e-11
0.000139322
5.597e-12
0.000139322
1.58529e-11
0.000139322
8.56942e-12
0.000139322
1.30776e-11
0.000139322
1.42407e-12
-5.62586e-12
0.000183651
-6.47234e-12
0.000183651
1.86258e-11
0.000183651
-8.2553e-12
0.000183651
9.71837e-12
0.000183651
-1.30158e-11
0.000183651
1.63787e-11
0.000183651
-1.14972e-11
0.000183651
1.91793e-11
0.000183651
-1.06397e-11
0.000183651
2.14639e-11
0.000183651
-4.87943e-12
0.000183651
2.25318e-11
0.000183651
3.33584e-12
0.000183651
2.34566e-11
0.000183651
1.1321e-11
0.000183651
2.37168e-11
0.000183651
1.4883e-11
0.000183651
1.96798e-11
0.000183651
2.11276e-12
-9.19444e-12
0.000221648
-7.2447e-12
0.000221648
2.26059e-11
0.000221648
-9.99083e-12
0.000221648
1.2534e-11
0.000221648
-1.58618e-11
0.000221648
2.00897e-11
0.000221648
-1.37749e-11
0.000221648
2.36018e-11
0.000221648
-1.22812e-11
0.000221648
2.63536e-11
0.000221648
-4.8356e-12
0.000221648
2.77983e-11
0.000221648
5.54606e-12
0.000221648
2.92295e-11
0.000221648
1.54339e-11
0.000221648
2.96289e-11
0.000221648
1.93738e-11
0.000221648
2.4498e-11
0.000221648
1.66343e-12
-1.3211e-11
0.000253312
-7.50396e-12
0.000253312
2.61159e-11
0.000253312
-1.15887e-11
0.000253312
1.53437e-11
0.000253312
-1.85371e-11
0.000253312
2.34451e-11
0.000253312
-1.60655e-11
0.000253312
2.75473e-11
0.000253312
-1.403e-11
0.000253312
3.05741e-11
0.000253312
-5.20553e-12
0.000253312
3.21808e-11
0.000253312
6.9459e-12
0.000253312
3.38506e-11
0.000253312
1.83797e-11
0.000253312
3.41303e-11
0.000253312
2.26222e-11
0.000253312
2.80345e-11
0.000253312
8.09289e-13
-1.70449e-11
0.000278643
-7.34422e-12
0.000278643
2.90939e-11
0.000278643
-1.30727e-11
0.000278643
1.80858e-11
0.000278643
-2.09741e-11
0.000278643
2.64469e-11
0.000278643
-1.83057e-11
0.000278643
3.10331e-11
0.000278643
-1.58018e-11
0.000278643
3.42045e-11
0.000278643
-5.86913e-12
0.000278643
3.58331e-11
0.000278643
7.71624e-12
0.000278643
3.75536e-11
0.000278643
2.0423e-11
0.000278643
3.75307e-11
0.000278643
2.49666e-11
0.000278643
3.05545e-11
0.000278643
-2.57076e-14
-2.0291e-11
0.000297642
-6.89196e-12
0.000297642
3.14495e-11
0.000297642
-1.44348e-11
0.000297642
2.06368e-11
0.000297642
-2.3079e-11
0.000297642
2.90339e-11
0.000297642
-2.0387e-11
0.000297642
3.39973e-11
0.000297642
-1.74821e-11
0.000297642
3.72241e-11
0.000297642
-6.69713e-12
0.000297642
3.8786e-11
0.000297642
8.0107e-12
0.000297642
4.04275e-11
0.000297642
2.17507e-11
0.000297642
3.99875e-11
0.000297642
2.66231e-11
0.000297642
3.22032e-11
0.000297642
-5.97426e-13
-2.2675e-11
0.000310307
-6.28931e-12
0.000310307
3.30726e-11
0.000310307
-1.56324e-11
0.000310307
2.28338e-11
0.000310307
-2.47398e-11
0.000310307
3.10927e-11
0.000310307
-2.21679e-11
0.000310307
3.63154e-11
0.000310307
-1.89341e-11
0.000310307
3.95297e-11
0.000310307
-7.55439e-12
0.000310307
4.09689e-11
0.000310307
7.95813e-12
0.000310307
4.24433e-11
0.000310307
2.24817e-11
0.000310307
4.15336e-11
0.000310307
2.76998e-11
0.000310307
3.30341e-11
0.000310307
-8.0184e-13
-2.40446e-11
0.00031664
-5.67597e-12
0.00031664
3.38476e-11
0.00031664
-1.65929e-11
0.00031664
2.45003e-11
0.00031664
-2.58375e-11
0.00031664
3.24798e-11
0.00031664
-2.34884e-11
0.00031664
3.78287e-11
0.00031664
-2.00055e-11
0.00031664
4.09715e-11
0.00031664
-8.29902e-12
0.00031664
4.2254e-11
0.00031664
7.6771e-12
0.00031664
4.35078e-11
0.00031664
2.26983e-11
0.00031664
4.21369e-11
0.00031664
2.82404e-11
0.00031664
3.30601e-11
0.00031664
-6.21803e-13
-2.43485e-11
0.00031664
-5.17018e-12
0.00031664
3.36732e-11
0.00031664
-1.72229e-11
0.00031664
2.54732e-11
0.00031664
-2.62595e-11
0.00031664
3.30474e-11
0.00031664
-2.41897e-11
0.00031664
3.83768e-11
0.00031664
-2.0544e-11
0.00031664
4.13906e-11
0.00031664
-8.78924e-12
0.00031664
4.24999e-11
0.00031664
7.2818e-12
0.00031664
4.35137e-11
0.00031664
2.24693e-11
0.00031664
4.1751e-11
0.00031664
2.82609e-11
0.00031664
3.2295e-11
0.00031664
-8.2224e-14
-2.36131e-11
0.000310307
-4.85221e-12
0.000310307
3.24834e-11
0.000310307
-1.74228e-11
0.000310307
2.56238e-11
0.000310307
-2.5914e-11
0.000310307
3.2668e-11
0.000310307
-2.41362e-11
0.000310307
3.78236e-11
0.000310307
-2.04172e-11
0.000310307
4.06485e-11
0.000310307
-8.89974e-12
0.000310307
4.15827e-11
0.000310307
6.87286e-12
0.000310307
4.23687e-11
0.000310307
2.18513e-11
0.000310307
4.03391e-11
0.000310307
2.77616e-11
0.000310307
3.07672e-11
0.000310307
7.67846e-13
-2.1929e-11
0.000297642
-4.75195e-12
0.000297642
3.02664e-11
0.000297642
-1.71009e-11
0.000297642
2.48727e-11
0.000297642
-2.47435e-11
0.000297642
3.12542e-11
0.000297642
-2.32351e-11
0.000297642
3.60778e-11
0.000297642
-1.95342e-11
0.000297642
3.86488e-11
0.000297642
-8.54396e-12
0.000297642
3.94148e-11
0.000297642
6.5174e-12
0.000297642
4.00097e-11
0.000297642
2.08747e-11
0.000297642
3.78775e-11
0.000297642
2.67197e-11
0.000297642
2.85123e-11
0.000297642
1.84719e-12
-1.94498e-11
0.000278643
-4.83956e-12
0.000278643
2.7076e-11
0.000278643
-1.61871e-11
0.000278643
2.31962e-11
0.000278643
-2.27367e-11
0.000278643
2.87724e-11
0.000278643
-2.14541e-11
0.000278643
3.31059e-11
0.000278643
-1.78686e-11
0.000278643
3.53497e-11
0.000278643
-7.70076e-12
0.000278643
3.59517e-11
0.000278643
6.21857e-12
0.000278643
3.63977e-11
0.000278643
1.95105e-11
0.000278643
3.43364e-11
0.000278643
2.50566e-11
0.000278643
2.55395e-11
0.000278643
3.00558e-12
-1.64071e-11
0.000253312
-5.02418e-12
0.000253312
2.30368e-11
0.000253312
-1.4644e-11
0.000253312
2.06271e-11
0.000253312
-1.99356e-11
0.000253312
2.5251e-11
0.000253312
-1.88335e-11
0.000253312
2.89395e-11
0.000253312
-1.54768e-11
0.000253312
3.07695e-11
0.000253312
-6.43844e-12
0.000253312
3.11924e-11
0.000253312
5.88575e-12
0.000253312
3.15073e-11
0.000253312
1.76346e-11
0.000253312
2.9654e-11
0.000253312
2.25998e-11
0.000253312
2.17897e-11
0.000253312
3.97294e-12
-1.31328e-11
0.000221648
-5.1521e-12
0.000221648
1.83385e-11
0.000221648
-1.24703e-11
0.000221648
1.72457e-11
0.000221648
-1.64345e-11
0.000221648
2.07798e-11
0.000221648
-1.54856e-11
0.000221648
2.36767e-11
0.000221648
-1.25006e-11
0.000221648
2.49925e-11
0.000221648
-4.92092e-12
0.000221648
2.51834e-11
0.000221648
5.32588e-12
0.000221648
2.5327e-11
0.000221648
1.50166e-11
0.000221648
2.37307e-11
0.000221648
1.90679e-11
0.000221648
1.71131e-11
0.000221648
4.32098e-12
-1.00768e-11
0.000183651
-5.06532e-12
0.000183651
1.32519e-11
0.000183651
-9.74926e-12
0.000183651
1.32094e-11
0.000183651
-1.24304e-11
0.000183651
1.55285e-11
0.000183651
-1.16563e-11
0.000183651
1.74818e-11
0.000183651
-9.24815e-12
0.000183651
1.81305e-11
0.000183651
-3.51283e-12
0.000183651
1.79292e-11
0.000183651
4.10691e-12
0.000183651
1.77068e-11
0.000183651
1.11469e-11
0.000183651
1.62277e-11
0.000183651
1.38899e-11
0.000183651
1.10772e-11
0.000183651
3.34476e-12
-7.85639e-12
0.000139322
-4.3756e-12
0.000139322
7.97802e-12
0.000139322
-6.43443e-12
0.000139322
8.57152e-12
0.000139322
-7.90901e-12
0.000139322
9.63468e-12
0.000139322
-7.31656e-12
0.000139322
1.05892e-11
0.000139322
-5.64091e-12
0.000139322
1.05652e-11
0.000139322
-2.03358e-12
0.000139322
9.98585e-12
0.000139322
2.55867e-12
0.000139322
9.38096e-12
0.000139322
6.52951e-12
0.000139322
7.96879e-12
0.000139322
7.62144e-12
0.000139322
4.32754e-12
0.000139322
1.06749e-12
-6.56126e-12
8.86593e-05
-2.9694e-12
8.86593e-05
2.90968e-12
8.86593e-05
-2.74312e-12
8.86593e-05
3.63458e-12
8.86593e-05
-3.26126e-12
8.86593e-05
3.42784e-12
8.86593e-05
-2.91824e-12
8.86593e-05
3.32046e-12
8.86593e-05
-2.22143e-12
8.86593e-05
2.52624e-12
8.86593e-05
-1.08027e-12
8.86593e-05
1.39961e-12
8.86593e-05
3.73457e-14
8.86593e-05
1.36886e-13
8.86593e-05
4.67203e-13
8.86593e-05
-1.5358e-12
8.86593e-05
-4.25637e-13
8.86593e-05
-3.73772e-12
8.86593e-05
-3.36917e-12
-6.79967e-12
3.1664e-05
3.1664e-05
3.1664e-05
3.1664e-05
3.1664e-05
3.1664e-05
3.1664e-05
3.1664e-05
3.1664e-05
3.1664e-05
3.1664e-05
3.1664e-05
3.1664e-05
3.1664e-05
3.1664e-05
3.1664e-05
3.1664e-05
3.1664e-05
3.1664e-05
)
;

boundaryField
{
    top
    {
        type            calculated;
        value           uniform 0;
    }
    bottom
    {
        type            calculated;
        value           uniform 0;
    }
    inlet
    {
        type            calculated;
        value           nonuniform List<scalar> 
20
(
-3.1664e-05
-8.86593e-05
-0.000139322
-0.000183651
-0.000221648
-0.000253312
-0.000278643
-0.000297642
-0.000310307
-0.00031664
-0.00031664
-0.000310307
-0.000297642
-0.000278643
-0.000253312
-0.000221648
-0.000183651
-0.000139322
-8.86593e-05
-3.1664e-05
)
;
    }
    outlet
    {
        type            calculated;
        value           nonuniform List<scalar> 
20
(
3.1664e-05
8.86593e-05
0.000139322
0.000183651
0.000221648
0.000253312
0.000278643
0.000297642
0.000310307
0.00031664
0.00031664
0.000310307
0.000297642
0.000278643
0.000253312
0.000221648
0.000183651
0.000139322
8.86593e-05
3.1664e-05
)
;
    }
    frontAndBack
    {
        type            empty;
        value           nonuniform 0();
    }
}


// ************************************************************************* //
