/*--------------------------------*- C++ -*----------------------------------*\
| =========                 |                                                 |
| \\      /  F ield         | OpenFOAM: The Open Source CFD Toolbox           |
|  \\    /   O peration     | Version:  4.1                                   |
|   \\  /    A nd           | Web:      www.OpenFOAM.org                      |
|    \\/     M anipulation  |                                                 |
\*---------------------------------------------------------------------------*/
FoamFile
{
    version     2.0;
    format      ascii;
    class       volVectorField;
    location    "2.4";
    object      U;
}
// * * * * * * * * * * * * * * * * * * * * * * * * * * * * * * * * * * * * * //

dimensions      [0 1 -1 0 0 0 0];

internalField   nonuniform List<vector> 
400
(
(0.633281 -4.25589e-10 0)
(0.633281 7.55808e-10 0)
(0.633281 -6.76163e-10 0)
(0.63328 6.04289e-10 0)
(0.633281 -6.32888e-10 0)
(0.63328 1.1014e-09 0)
(0.633281 -5.84713e-10 0)
(0.63328 1.38532e-09 0)
(0.633281 -3.88664e-10 0)
(0.63328 1.8222e-09 0)
(0.633281 1.44047e-10 0)
(0.633281 2.20107e-09 0)
(0.633281 9.7597e-10 0)
(0.633281 2.68181e-09 0)
(0.633281 1.95899e-09 0)
(0.633281 3.13497e-09 0)
(0.633281 2.72699e-09 0)
(0.633281 3.07598e-09 0)
(0.633281 2.39228e-09 0)
(0.633281 1.08996e-09 0)
(1.77319 -2.75014e-09 0)
(1.77319 8.33258e-09 0)
(1.77319 -3.3714e-09 0)
(1.77319 3.00415e-09 0)
(1.77319 -6.29738e-09 0)
(1.77319 5.97758e-09 0)
(1.77319 -6.80075e-09 0)
(1.77319 6.29487e-09 0)
(1.77319 -8.38795e-09 0)
(1.77319 5.96605e-09 0)
(1.77319 -8.49754e-09 0)
(1.77319 4.12115e-09 0)
(1.77319 -8.01719e-09 0)
(1.77319 1.43395e-09 0)
(1.77319 -7.33771e-09 0)
(1.77319 -8.80399e-10 0)
(1.77319 -6.18219e-09 0)
(1.77319 -1.81881e-09 0)
(1.77319 -4.53744e-09 0)
(1.77319 -3.56267e-09 0)
(2.78643 -4.02793e-09 0)
(2.78643 1.08739e-08 0)
(2.78643 -5.17666e-09 0)
(2.78643 5.44074e-09 0)
(2.78643 -7.77155e-09 0)
(2.78643 9.83511e-09 0)
(2.78643 -7.1849e-09 0)
(2.78643 1.15168e-08 0)
(2.78643 -6.95257e-09 0)
(2.78643 1.30699e-08 0)
(2.78643 -3.78061e-09 0)
(2.78643 1.37822e-08 0)
(2.78643 1.03026e-09 0)
(2.78643 1.43308e-08 0)
(2.78643 6.0559e-09 0)
(2.78643 1.46865e-08 0)
(2.78643 9.0615e-09 0)
(2.78643 1.27018e-08 0)
(2.78643 3.90347e-09 0)
(2.78643 -2.04187e-09 0)
(3.67303 -6.20862e-09 0)
(3.67303 1.66054e-08 0)
(3.67303 -7.41505e-09 0)
(3.67303 8.41681e-09 0)
(3.67303 -1.17885e-08 0)
(3.67303 1.44344e-08 0)
(3.67303 -1.06949e-08 0)
(3.67303 1.67404e-08 0)
(3.67303 -1.03482e-08 0)
(3.67303 1.84758e-08 0)
(3.67303 -5.75272e-09 0)
(3.67303 1.8935e-08 0)
(3.67303 9.34892e-10 0)
(3.67303 1.908e-08 0)
(3.67303 7.46812e-09 0)
(3.67303 1.87726e-08 0)
(3.67303 1.0557e-08 0)
(3.67303 1.52439e-08 0)
(3.67303 7.95054e-10 0)
(3.67303 -8.17321e-09 0)
(4.43296 -7.03955e-09 0)
(4.43296 2.04878e-08 0)
(4.43296 -9.20335e-09 0)
(4.43296 1.1159e-08 0)
(4.43296 -1.44643e-08 0)
(4.43296 1.824e-08 0)
(4.43296 -1.26799e-08 0)
(4.43296 2.13757e-08 0)
(4.43296 -1.15049e-08 0)
(4.43296 2.38461e-08 0)
(4.43296 -4.92508e-09 0)
(4.43296 2.50502e-08 0)
(4.43296 4.33275e-09 0)
(4.43296 2.6168e-08 0)
(4.43296 1.32138e-08 0)
(4.43296 2.64332e-08 0)
(4.43296 1.69209e-08 0)
(4.43296 2.18151e-08 0)
(4.43296 1.65118e-09 0)
(4.43296 -1.14588e-08 0)
(5.06624 -7.49358e-09 0)
(5.06624 2.43017e-08 0)
(5.06624 -1.088e-08 0)
(5.06624 1.39677e-08 0)
(5.06624 -1.72522e-08 0)
(5.06624 2.17885e-08 0)
(5.06624 -1.49902e-08 0)
(5.06624 2.55684e-08 0)
(5.06624 -1.32446e-08 0)
(5.06624 2.84115e-08 0)
(5.06624 -5.14765e-09 0)
(5.06624 2.98721e-08 0)
(5.06624 6.06288e-09 0)
(5.06624 3.13393e-08 0)
(5.06624 1.6657e-08 0)
(5.06624 3.15885e-08 0)
(5.06624 2.06982e-08 0)
(5.06624 2.59464e-08 0)
(5.06624 8.75159e-10 0)
(5.06624 -1.55261e-08 0)
(5.57287 -7.46195e-09 0)
(5.57287 2.76022e-08 0)
(5.57287 -1.24117e-08 0)
(5.57287 1.67348e-08 0)
(5.57287 -1.98148e-08 0)
(5.57287 2.49675e-08 0)
(5.57287 -1.72586e-08 0)
(5.57287 2.92829e-08 0)
(5.57287 -1.50179e-08 0)
(5.57287 3.23414e-08 0)
(5.57287 -5.68466e-09 0)
(5.57287 3.38953e-08 0)
(5.57287 7.12284e-09 0)
(5.57287 3.55043e-08 0)
(5.57287 1.91282e-08 0)
(5.57287 3.55413e-08 0)
(5.57287 2.34778e-08 0)
(5.57287 2.89985e-08 0)
(5.57287 4.8994e-12 0)
(5.57287 -1.91205e-08 0)
(5.95284 -7.07415e-09 0)
(5.95284 3.03266e-08 0)
(5.95284 -1.38101e-08 0)
(5.95284 1.93702e-08 0)
(5.95284 -2.20841e-08 0)
(5.95284 2.77543e-08 0)
(5.95284 -1.9414e-08 0)
(5.95284 3.25e-08 0)
(5.95284 -1.67475e-08 0)
(5.95284 3.56624e-08 0)
(5.95284 -6.44093e-09 0)
(5.95284 3.71968e-08 0)
(5.95284 7.63926e-09 0)
(5.95284 3.87922e-08 0)
(5.95284 2.07976e-08 0)
(5.95284 3.84717e-08 0)
(5.95284 2.54667e-08 0)
(5.95284 3.11056e-08 0)
(5.95284 -7.03583e-10 0)
(5.95284 -2.19661e-08 0)
(6.20615 -6.4755e-09 0)
(6.20615 3.23637e-08 0)
(6.20615 -1.50548e-08 0)
(6.20615 2.17321e-08 0)
(6.20615 -2.39576e-08 0)
(6.20615 3.00619e-08 0)
(6.20615 -2.13332e-08 0)
(6.20615 3.51275e-08 0)
(6.20615 -1.83091e-08 0)
(6.20615 3.83131e-08 0)
(6.20615 -7.28561e-09 0)
(6.20615 3.97554e-08 0)
(6.20615 7.75162e-09 0)
(6.20615 4.12299e-08 0)
(6.20615 2.18152e-08 0)
(6.20615 4.04707e-08 0)
(6.20615 2.68238e-08 0)
(6.20615 3.23605e-08 0)
(6.20615 -1.08606e-09 0)
(6.20615 -2.38516e-08 0)
(6.3328 -5.81658e-09 0)
(6.3328 3.35938e-08 0)
(6.3328 -1.60949e-08 0)
(6.3328 2.36521e-08 0)
(6.3328 -2.53221e-08 0)
(6.3328 3.17653e-08 0)
(6.3328 -2.28673e-08 0)
(6.3328 3.70263e-08 0)
(6.3328 -1.95586e-08 0)
(6.3328 4.01709e-08 0)
(6.3328 -8.07929e-09 0)
(6.3328 4.14771e-08 0)
(6.3328 7.58659e-09 0)
(6.3328 4.27623e-08 0)
(6.3328 2.22866e-08 0)
(6.3328 4.15448e-08 0)
(6.3328 2.76306e-08 0)
(6.3328 3.27998e-08 0)
(6.3328 -1.08431e-09 0)
(6.3328 -2.46765e-08 0)
(6.3328 -5.23213e-09 0)
(6.3328 3.39045e-08 0)
(6.3328 -1.68549e-08 0)
(6.3328 2.49613e-08 0)
(6.3328 -2.60644e-08 0)
(6.3328 3.27227e-08 0)
(6.3328 -2.38602e-08 0)
(6.3328 3.80402e-08 0)
(6.3328 -2.03469e-08 0)
(6.3328 4.10848e-08 0)
(6.3328 -8.68266e-09 0)
(6.3328 4.223e-08 0)
(6.3328 7.25851e-09 0)
(6.3328 4.32908e-08 0)
(6.3328 2.22859e-08 0)
(6.3328 4.16547e-08 0)
(6.3328 2.79155e-08 0)
(6.3328 3.24348e-08 0)
(6.3328 -7.07979e-10 0)
(6.3328 -2.44342e-08 0)
(6.20615 -4.82411e-09 0)
(6.20615 3.32127e-08 0)
(6.20615 -1.72435e-08 0)
(6.20615 2.5514e-08 0)
(6.20615 -2.60854e-08 0)
(6.20615 3.28003e-08 0)
(6.20615 -2.4167e-08 0)
(6.20615 3.80235e-08 0)
(6.20615 -2.05342e-08 0)
(6.20615 4.09099e-08 0)
(6.20615 -8.96418e-09 0)
(6.20615 4.18849e-08 0)
(6.20615 6.87377e-09 0)
(6.20615 4.27187e-08 0)
(6.20615 2.18758e-08 0)
(6.20615 4.07609e-08 0)
(6.20615 2.76868e-08 0)
(6.20615 3.12883e-08 0)
(6.20615 4.22314e-12 0)
(6.20615 -2.31867e-08 0)
(5.95284 -4.64733e-09 0)
(5.95284 3.14838e-08 0)
(5.95284 -1.71688e-08 0)
(5.95284 2.52075e-08 0)
(5.95284 -2.53134e-08 0)
(5.95284 3.18943e-08 0)
(5.95284 -2.36762e-08 0)
(5.95284 3.68668e-08 0)
(5.95284 -2.00113e-08 0)
(5.95284 3.95337e-08 0)
(5.95284 -8.81948e-09 0)
(5.95284 4.0342e-08 0)
(5.95284 6.51638e-09 0)
(5.95284 4.09745e-08 0)
(5.95283 2.11024e-08 0)
(5.95283 3.88392e-08 0)
(5.95283 2.69361e-08 0)
(5.95283 2.93975e-08 0)
(5.95283 9.88756e-10 0)
(5.95283 -2.10579e-08 0)
(5.57287 -4.69634e-09 0)
(5.57287 2.8744e-08 0)
(5.57287 -1.65506e-08 0)
(5.57287 2.399e-08 0)
(5.57287 -2.37158e-08 0)
(5.57287 2.99448e-08 0)
(5.57287 -2.23275e-08 0)
(5.57287 3.45087e-08 0)
(5.57287 -1.87236e-08 0)
(5.57287 3.68879e-08 0)
(5.57287 -8.20034e-09 0)
(5.57287 3.75336e-08 0)
(5.57287 6.21418e-09 0)
(5.57287 3.80026e-08 0)
(5.57287 1.99576e-08 0)
(5.57287 3.58565e-08 0)
(5.57287 2.56035e-08 0)
(5.57287 2.67809e-08 0)
(5.57287 2.12693e-09 0)
(5.57287 -1.82436e-08 0)
(5.06624 -4.90307e-09 0)
(5.06624 2.5088e-08 0)
(5.06624 -1.53344e-08 0)
(5.06624 2.18669e-08 0)
(5.06624 -2.13092e-08 0)
(5.06624 2.6949e-08 0)
(5.06624 -2.01264e-08 0)
(5.06624 3.09478e-08 0)
(5.06624 -1.66882e-08 0)
(5.06624 3.29574e-08 0)
(5.06624 -7.13299e-09 0)
(5.06624 3.34347e-08 0)
(5.06624 5.92051e-09 0)
(5.06624 3.37691e-08 0)
(5.06624 1.83627e-08 0)
(5.06624 3.17663e-08 0)
(5.06624 2.35642e-08 0)
(5.06624 2.34192e-08 0)
(5.06624 3.21884e-09 0)
(5.06624 -1.50199e-08 0)
(4.43296 -5.11944e-09 0)
(4.43296 2.0666e-08 0)
(4.43296 -1.34814e-08 0)
(4.43296 1.8882e-08 0)
(4.43296 -1.81387e-08 0)
(4.43296 2.29584e-08 0)
(4.43296 -1.71207e-08 0)
(4.43296 2.62508e-08 0)
(4.43296 -1.39666e-08 0)
(4.43296 2.78165e-08 0)
(4.43296 -5.68404e-09 0)
(4.43296 2.81146e-08 0)
(4.43296 5.55907e-09 0)
(4.43296 2.83305e-08 0)
(4.43296 1.62239e-08 0)
(4.43296 2.65862e-08 0)
(4.43296 2.06777e-08 0)
(4.43296 1.92978e-08 0)
(4.43296 3.9699e-09 0)
(4.43296 -1.17468e-08 0)
(3.67303 -5.46003e-09 0)
(3.67303 1.58922e-08 0)
(3.67303 -1.12958e-08 0)
(3.67303 1.53684e-08 0)
(3.67303 -1.47074e-08 0)
(3.67303 1.82385e-08 0)
(3.67303 -1.39402e-08 0)
(3.67303 2.05596e-08 0)
(3.67303 -1.13797e-08 0)
(3.67303 2.13138e-08 0)
(3.67303 -4.90108e-09 0)
(3.67303 2.09812e-08 0)
(3.67303 3.79164e-09 0)
(3.67303 2.0546e-08 0)
(3.67303 1.18769e-08 0)
(3.67303 1.8672e-08 0)
(3.67303 1.51542e-08 0)
(3.67303 1.27989e-08 0)
(3.67303 2.9456e-09 0)
(3.67303 -9.49552e-09 0)
(2.78643 -4.14497e-09 0)
(2.78643 1.00949e-08 0)
(2.78643 -7.43524e-09 0)
(2.78643 1.0334e-08 0)
(2.78643 -9.24912e-09 0)
(2.78643 1.22618e-08 0)
(2.78643 -8.32198e-09 0)
(2.78643 1.4067e-08 0)
(2.78643 -5.88637e-09 0)
(2.78643 1.50728e-08 0)
(2.78643 -6.80825e-10 0)
(2.78643 1.57077e-08 0)
(2.78643 6.14231e-09 0)
(2.78643 1.65367e-08 0)
(2.78643 1.24706e-08 0)
(2.78643 1.61796e-08 0)
(2.78643 1.47465e-08 0)
(2.78643 1.16816e-08 0)
(2.78643 5.17211e-09 0)
(2.78643 -5.15959e-09 0)
(1.77319 -4.8602e-09 0)
(1.77319 6.17112e-09 0)
(1.77319 -5.76358e-09 0)
(1.77319 7.15082e-09 0)
(1.77319 -7.01723e-09 0)
(1.77319 7.37054e-09 0)
(1.77319 -6.82188e-09 0)
(1.77319 7.40294e-09 0)
(1.77319 -5.98058e-09 0)
(1.77319 6.22722e-09 0)
(1.77319 -4.01306e-09 0)
(1.77319 4.18394e-09 0)
(1.77319 -1.70041e-09 0)
(1.77319 1.83921e-09 0)
(1.77319 -1.72018e-10 0)
(1.77319 -9.10148e-10 0)
(1.77319 -2.85084e-10 0)
(1.77319 -3.76858e-09 0)
(1.77319 -3.67981e-09 0)
(1.77319 -8.19396e-09 0)
(0.63328 -5.31169e-10 0)
(0.633281 7.30939e-10 0)
(0.633281 -3.43682e-10 0)
(0.633281 8.35761e-10 0)
(0.633281 -3.33156e-10 0)
(0.633281 1.03199e-09 0)
(0.633281 5.5024e-11 0)
(0.633281 1.3558e-09 0)
(0.633281 7.18023e-10 0)
(0.633281 1.81201e-09 0)
(0.633281 1.71578e-09 0)
(0.633281 2.45662e-09 0)
(0.633281 2.9042e-09 0)
(0.633281 3.27332e-09 0)
(0.63328 3.94491e-09 0)
(0.63328 3.76184e-09 0)
(0.63328 3.97927e-09 0)
(0.63328 2.7993e-09 0)
(0.63328 1.65507e-09 0)
(0.63328 -9.27286e-10 0)
)
;

boundaryField
{
    top
    {
        type            fixedValue;
        value           uniform (0 0 0);
    }
    bottom
    {
        type            fixedValue;
        value           uniform (0 0 0);
    }
    inlet
    {
        type            zeroGradient;
    }
    outlet
    {
        type            zeroGradient;
    }
    frontAndBack
    {
        type            empty;
    }
}


// ************************************************************************* //
