/*--------------------------------*- C++ -*----------------------------------*\
| =========                 |                                                 |
| \\      /  F ield         | OpenFOAM: The Open Source CFD Toolbox           |
|  \\    /   O peration     | Version:  4.1                                   |
|   \\  /    A nd           | Web:      www.OpenFOAM.org                      |
|    \\/     M anipulation  |                                                 |
\*---------------------------------------------------------------------------*/
FoamFile
{
    version     2.0;
    format      ascii;
    class       surfaceScalarField;
    location    "2.8";
    object      phi;
}
// * * * * * * * * * * * * * * * * * * * * * * * * * * * * * * * * * * * * * //

dimensions      [0 3 -1 0 0 0 0];

internalField   nonuniform List<scalar> 
760
(
-1.91641e-05
1.2675e-12
-1.91641e-05
9.36148e-13
-1.91641e-05
2.89526e-12
-1.91641e-05
-3.07827e-14
-1.91641e-05
4.20413e-12
-1.91641e-05
-7.13224e-14
-1.91641e-05
4.77209e-12
-1.91641e-05
-3.26081e-13
-1.91641e-05
5.07424e-12
-1.91641e-05
-5.20552e-13
-1.91641e-05
4.83448e-12
-1.91641e-05
-6.10776e-13
-1.91641e-05
4.13802e-12
-1.91641e-05
-5.26581e-13
-1.91641e-05
2.98023e-12
-1.91641e-05
-3.48674e-13
-1.91641e-05
1.82879e-12
-1.91641e-05
-2.65424e-13
-1.91641e-05
1.71027e-13
6.38549e-13
-5.11594e-05
1.37392e-12
-5.11594e-05
-2.54332e-13
-5.11594e-05
2.2606e-12
-5.11594e-05
-3.8197e-12
-5.11594e-05
3.17507e-12
-5.11594e-05
-4.90344e-12
-5.11594e-05
3.2644e-12
-5.11594e-05
-5.86099e-12
-5.11594e-05
3.50963e-12
-5.11594e-05
-6.21957e-12
-5.11594e-05
3.30276e-12
-5.11594e-05
-5.90491e-12
-5.11594e-05
2.72238e-12
-5.11594e-05
-4.88971e-12
-5.11594e-05
1.66603e-12
-5.11594e-05
-3.42545e-12
-5.11594e-05
8.28217e-13
-5.11594e-05
-2.00581e-12
-5.11594e-05
-7.21986e-13
1.03736e-12
-7.68219e-05
1.18215e-12
-7.68219e-05
-1.7021e-12
-7.68219e-05
7.7736e-13
-7.68219e-05
-7.82288e-12
-7.68219e-05
9.21681e-13
-7.68219e-05
-9.84938e-12
-7.68219e-05
3.5328e-13
-7.68219e-05
-1.13699e-11
-7.68219e-05
4.96406e-13
-7.68219e-05
-1.1783e-11
-7.68219e-05
4.21349e-13
-7.68219e-05
-1.09797e-11
-7.68219e-05
1.76463e-13
-7.68219e-05
-9.00236e-12
-7.68219e-05
-4.48547e-13
-7.68219e-05
-6.24682e-12
-7.68219e-05
-6.36045e-13
-7.68219e-05
-3.52068e-12
-7.68219e-05
-1.60595e-12
1.61797e-12
-9.61515e-05
1.2423e-12
-9.61515e-05
-2.75864e-12
-9.61515e-05
-4.19451e-13
-9.61515e-05
-1.1013e-11
-9.61515e-05
-1.01384e-12
-9.61515e-05
-1.3755e-11
-9.61515e-05
-2.19105e-12
-9.61515e-05
-1.56728e-11
-9.61515e-05
-2.16857e-12
-9.61515e-05
-1.61014e-11
-9.61515e-05
-2.15447e-12
-9.61515e-05
-1.48883e-11
-9.61515e-05
-2.11678e-12
-9.61515e-05
-1.21423e-11
-9.61515e-05
-2.36331e-12
-9.61515e-05
-8.35901e-12
-9.61515e-05
-1.97665e-12
-9.61515e-05
-4.6382e-12
-9.61515e-05
-2.35645e-12
2.23569e-12
-0.000109148
1.49805e-12
-0.000109148
-3.48101e-12
-0.000109148
-1.19804e-12
-0.000109148
-1.33443e-11
-0.000109148
-2.45926e-12
-0.000109148
-1.65129e-11
-0.000109148
-4.13992e-12
-0.000109148
-1.86508e-11
-0.000109148
-4.23512e-12
-0.000109148
-1.90386e-11
-0.000109148
-4.18098e-12
-0.000109148
-1.74921e-11
-0.000109148
-3.94563e-12
-0.000109148
-1.41765e-11
-0.000109148
-3.91414e-12
-0.000109148
-9.65524e-12
-0.000109148
-3.08863e-12
-0.000109148
-5.24548e-12
-0.000109148
-2.97318e-12
2.90372e-12
-0.000115812
1.83343e-12
-0.000115812
-4.04005e-12
-0.000115812
-1.7707e-12
-0.000115812
-1.49918e-11
-0.000115812
-3.74692e-12
-0.000115812
-1.83644e-11
-0.000115812
-5.88308e-12
-0.000115812
-2.05844e-11
-0.000115812
-6.12909e-12
-0.000115812
-2.08782e-11
-0.000115812
-6.07714e-12
-0.000115812
-1.90545e-11
-0.000115812
-5.68521e-12
-0.000115812
-1.53286e-11
-0.000115812
-5.39615e-12
-0.000115812
-1.03095e-11
-0.000115812
-4.17942e-12
-0.000115812
-5.43264e-12
-0.000115812
-3.5572e-12
3.5143e-12
-0.000116144
2.18038e-12
-0.000116144
-4.51329e-12
-0.000116144
-2.26081e-12
-0.000116144
-1.60187e-11
-0.000116144
-5.0339e-12
-0.000116144
-1.94195e-11
-0.000116144
-7.59557e-12
-0.000116144
-2.16088e-11
-0.000116144
-8.03761e-12
-0.000116144
-2.17633e-11
-0.000116144
-8.02151e-12
-0.000116144
-1.97162e-11
-0.000116144
-7.49056e-12
-0.000116144
-1.57261e-11
-0.000116144
-6.92519e-12
-0.000116144
-1.04259e-11
-0.000116144
-5.3305e-12
-0.000116144
-5.26614e-12
-0.000116144
-4.13211e-12
3.9848e-12
-0.000110142
2.4986e-12
-0.000110142
-4.90858e-12
-0.000110142
-2.73961e-12
-0.000110142
-1.64372e-11
-0.000110142
-6.36546e-12
-0.000110142
-1.97287e-11
-0.000110142
-9.31767e-12
-0.000110142
-2.1797e-11
-0.000110142
-9.99628e-12
-0.000110142
-2.17845e-11
-0.000110142
-1.00385e-11
-0.000110142
-1.95771e-11
-0.000110142
-9.37424e-12
-0.000110142
-1.5468e-11
-0.000110142
-8.50017e-12
-0.000110142
-1.00902e-11
-0.000110142
-6.53921e-12
-0.000110142
-4.81788e-12
-0.000110142
-4.66993e-12
4.25332e-12
-9.78078e-05
2.76346e-12
-9.78078e-05
-5.19783e-12
-9.78078e-05
-3.24542e-12
-9.78078e-05
-1.62502e-11
-9.78078e-05
-7.71163e-12
-9.78078e-05
-1.93362e-11
-9.78078e-05
-1.10003e-11
-9.78078e-05
-2.12157e-11
-9.78078e-05
-1.1938e-11
-9.78078e-05
-2.10303e-11
-9.78078e-05
-1.20468e-11
-9.78078e-05
-1.87391e-11
-9.78078e-05
-1.12505e-11
-9.78078e-05
-1.46585e-11
-9.78078e-05
-1.00399e-11
-9.78078e-05
-9.39148e-12
-9.78078e-05
-7.74369e-12
-9.78078e-05
-4.17403e-12
-9.78078e-05
-5.10828e-12
4.28047e-12
-7.91406e-05
2.95255e-12
-7.91406e-05
-5.34061e-12
-7.91406e-05
-3.79221e-12
-7.91406e-05
-1.54886e-11
-7.91406e-05
-8.99413e-12
-7.91406e-05
-1.83119e-11
-7.91406e-05
-1.25387e-11
-7.91406e-05
-1.99577e-11
-7.91406e-05
-1.37298e-11
-7.91406e-05
-1.96171e-11
-7.91406e-05
-1.38972e-11
-7.91406e-05
-1.73286e-11
-7.91406e-05
-1.297e-11
-7.91406e-05
-1.34209e-11
-7.91406e-05
-1.14127e-11
-7.91406e-05
-8.4276e-12
-7.91406e-05
-8.84152e-12
-7.91406e-05
-3.43114e-12
-7.91406e-05
-5.37196e-12
4.0593e-12
-5.41406e-05
3.0398e-12
-5.41406e-05
-5.30386e-12
-5.41406e-05
-4.37272e-12
-5.41406e-05
-1.42285e-11
-5.41406e-05
-1.01122e-11
-5.41406e-05
-1.67657e-11
-5.41406e-05
-1.38062e-11
-5.41406e-05
-1.81557e-11
-5.41406e-05
-1.52129e-11
-5.41406e-05
-1.76977e-11
-5.41406e-05
-1.54148e-11
-5.41406e-05
-1.55006e-11
-5.41406e-05
-1.43614e-11
-5.41406e-05
-1.18957e-11
-5.41406e-05
-1.24732e-11
-5.41406e-05
-7.30335e-12
-5.41406e-05
-9.71466e-12
-5.41406e-05
-2.68673e-12
-5.41406e-05
-5.3975e-12
3.61816e-12
-2.28078e-05
2.99593e-12
-2.28078e-05
-5.07476e-12
-2.28078e-05
-4.955e-12
-2.28078e-05
-1.25909e-11
-2.28078e-05
-1.09597e-11
-2.28078e-05
-1.48423e-11
-2.28078e-05
-1.46771e-11
-2.28078e-05
-1.59746e-11
-2.28078e-05
-1.62311e-11
-2.28078e-05
-1.54494e-11
-2.28078e-05
-1.64323e-11
-2.28078e-05
-1.34248e-11
-2.28078e-05
-1.52639e-11
-2.28078e-05
-1.02266e-11
-2.28078e-05
-1.30911e-11
-2.28078e-05
-6.1195e-12
-2.28078e-05
-1.02513e-11
-2.28078e-05
-2.02325e-12
-2.28078e-05
-5.15413e-12
3.01725e-12
1.48578e-05
2.79511e-12
1.48578e-05
-4.66857e-12
1.48578e-05
-5.47656e-12
1.48578e-05
-1.07254e-11
1.48578e-05
-1.14332e-11
1.48578e-05
-1.26999e-11
1.48578e-05
-1.50367e-11
1.48578e-05
-1.3587e-11
1.48578e-05
-1.66474e-11
1.48578e-05
-1.3047e-11
1.48578e-05
-1.6809e-11
1.48578e-05
-1.12581e-11
1.48578e-05
-1.5548e-11
1.48578e-05
-8.53537e-12
1.48578e-05
-1.31699e-11
1.48578e-05
-4.95663e-12
1.48578e-05
-1.03619e-11
1.48578e-05
-1.48906e-12
1.48578e-05
-4.65536e-12
2.33849e-12
5.88563e-05
2.42739e-12
5.88563e-05
-4.12557e-12
5.88563e-05
-5.83921e-12
5.88563e-05
-8.77909e-12
5.88563e-05
-1.14309e-11
5.88563e-05
-1.04763e-11
5.88563e-05
-1.47795e-11
5.88563e-05
-1.11358e-11
5.88563e-05
-1.63448e-11
5.88563e-05
-1.06234e-11
5.88563e-05
-1.64347e-11
5.88563e-05
-9.10931e-12
5.88563e-05
-1.51209e-11
5.88563e-05
-6.89233e-12
5.88563e-05
-1.26504e-11
5.88563e-05
-3.85619e-12
5.88563e-05
-9.98781e-12
5.88563e-05
-1.081e-12
5.88563e-05
-3.95702e-12
1.67118e-12
0.000109188
1.9113e-12
0.000109188
-3.50179e-12
0.000109188
-5.91274e-12
0.000109188
-6.86515e-12
0.000109188
-1.08493e-11
0.000109188
-8.2578e-12
0.000109188
-1.38025e-11
0.000109188
-8.6988e-12
0.000109188
-1.52206e-11
0.000109188
-8.23547e-12
0.000109188
-1.52228e-11
0.000109188
-7.0086e-12
0.000109188
-1.39196e-11
0.000109188
-5.29364e-12
0.000109188
-1.15024e-11
0.000109188
-2.80583e-12
0.000109188
-9.09833e-12
0.000109188
-7.3623e-13
0.000109188
-3.13785e-12
1.09961e-12
0.000165852
1.31674e-12
0.000165852
-2.83556e-12
0.000165852
-5.53104e-12
0.000165852
-5.00831e-12
0.000165852
-9.5581e-12
0.000165852
-6.021e-12
0.000165852
-1.19709e-11
0.000165852
-6.22766e-12
0.000165852
-1.31474e-11
0.000165852
-5.80601e-12
0.000165852
-1.30704e-11
0.000165852
-4.85893e-12
0.000165852
-1.18737e-11
0.000165852
-3.62589e-12
0.000165852
-9.69063e-12
0.000165852
-1.71469e-12
0.000165852
-7.67669e-12
0.000165852
-3.28501e-13
0.000165852
-2.2657e-12
6.944e-13
0.000228848
7.79959e-13
0.000228848
-2.08789e-12
0.000228848
-4.48234e-12
0.000228848
-3.052e-12
0.000228848
-7.34243e-12
0.000228848
-3.51934e-12
0.000228848
-9.03859e-12
0.000228848
-3.41822e-12
0.000228848
-9.88003e-12
0.000228848
-2.99593e-12
0.000228848
-9.7572e-12
0.000228848
-2.31995e-12
0.000228848
-8.8052e-12
0.000228848
-1.57521e-12
0.000228848
-7.08749e-12
0.000228848
-3.40621e-13
0.000228848
-5.65481e-12
0.000228848
3.50204e-13
0.000228848
-1.32669e-12
5.25666e-13
0.000298178
2.92303e-13
0.000298178
-1.37891e-12
0.000298178
-2.87985e-12
0.000298178
-1.20998e-12
0.000298178
-4.41479e-12
0.000298178
-1.03862e-12
0.000298178
-5.26523e-12
0.000298178
-5.89941e-13
0.000298178
-5.6996e-12
0.000298178
-1.21826e-13
0.000298178
-5.56115e-12
0.000298178
3.2296e-13
0.000298178
-4.96156e-12
0.000298178
6.27721e-13
0.000298178
-3.8946e-12
0.000298178
1.15208e-12
0.000298178
-3.1649e-12
0.000298178
1.19753e-12
0.000298178
-3.5737e-13
5.95307e-13
0.000373841
1.04259e-13
0.000373841
-3.76984e-13
0.000373841
-5.45558e-13
0.000373841
9.6583e-13
0.000373841
-5.44291e-13
0.000373841
1.93463e-12
0.000373841
-3.94996e-13
0.000373841
2.79774e-12
0.000373841
-3.53172e-13
0.000373841
3.33386e-12
0.000373841
-2.52533e-13
0.000373841
3.52003e-12
0.000373841
-1.50538e-13
0.000373841
3.32638e-12
0.000373841
2.7081e-14
0.000373841
3.00335e-12
0.000373841
-1.45974e-13
0.000373841
2.27652e-12
0.000373841
7.57752e-13
8.88213e-13
0.000455836
0.000455836
0.000455836
0.000455836
0.000455836
0.000455836
0.000455836
0.000455836
0.000455836
0.000455836
0.000455836
0.000455836
0.000455836
0.000455836
0.000455836
0.000455836
0.000455836
0.000455836
0.000455836
)
;

boundaryField
{
    top
    {
        type            calculated;
        value           uniform 0;
    }
    bottom
    {
        type            calculated;
        value           uniform 0;
    }
    inlet
    {
        type            calculated;
        value           nonuniform List<scalar> 
20
(
1.91641e-05
5.11594e-05
7.68219e-05
9.61515e-05
0.000109148
0.000115812
0.000116144
0.000110142
9.78078e-05
7.91406e-05
5.41406e-05
2.28078e-05
-1.48578e-05
-5.88563e-05
-0.000109188
-0.000165852
-0.000228848
-0.000298178
-0.000373841
-0.000455836
)
;
    }
    outlet
    {
        type            calculated;
        value           nonuniform List<scalar> 
20
(
-1.91641e-05
-5.11594e-05
-7.68219e-05
-9.61515e-05
-0.000109148
-0.000115812
-0.000116144
-0.000110142
-9.78078e-05
-7.91406e-05
-5.41406e-05
-2.28078e-05
1.48578e-05
5.88563e-05
0.000109188
0.000165852
0.000228848
0.000298178
0.000373841
0.000455836
)
;
    }
    frontAndBack
    {
        type            empty;
        value           nonuniform 0();
    }
}


// ************************************************************************* //
