/*--------------------------------*- C++ -*----------------------------------*\
| =========                 |                                                 |
| \\      /  F ield         | OpenFOAM: The Open Source CFD Toolbox           |
|  \\    /   O peration     | Version:  4.1                                   |
|   \\  /    A nd           | Web:      www.OpenFOAM.org                      |
|    \\/     M anipulation  |                                                 |
\*---------------------------------------------------------------------------*/
FoamFile
{
    version     2.0;
    format      ascii;
    class       volVectorField;
    location    "2.8";
    object      U;
}
// * * * * * * * * * * * * * * * * * * * * * * * * * * * * * * * * * * * * * //

dimensions      [0 1 -1 0 0 0 0];

internalField   nonuniform List<vector> 
400
(
(-0.383281 1.9023e-10 0)
(-0.383281 -2.37858e-10 0)
(-0.383281 -1.47323e-10 0)
(-0.383281 -9.4994e-10 0)
(-0.383281 -3.44756e-10 0)
(-0.383281 -1.33106e-09 0)
(-0.383281 -5.68306e-10 0)
(-0.383281 -1.58932e-09 0)
(-0.383281 -6.64595e-10 0)
(-0.383281 -1.68817e-09 0)
(-0.383281 -7.05907e-10 0)
(-0.383281 -1.61842e-09 0)
(-0.383281 -6.88313e-10 0)
(-0.383281 -1.38913e-09 0)
(-0.383281 -6.43999e-10 0)
(-0.383281 -1.05451e-09 0)
(-0.383281 -5.1146e-10 0)
(-0.383281 -6.73772e-10 0)
(-0.383281 -4.37274e-10 0)
(-0.383281 -7.49619e-11 0)
(-1.02319 1.53676e-09 0)
(-1.02319 7.86682e-10 0)
(-1.02319 3.95367e-09 0)
(-1.02319 -1.29576e-09 0)
(-1.02319 5.79811e-09 0)
(-1.02319 -1.47155e-09 0)
(-1.02319 6.58341e-09 0)
(-1.02319 -1.95277e-09 0)
(-1.02319 7.09055e-09 0)
(-1.02319 -2.1991e-09 0)
(-1.02319 6.81234e-09 0)
(-1.02319 -2.15368e-09 0)
(-1.02319 5.85905e-09 0)
(-1.02319 -1.72471e-09 0)
(-1.02319 4.21248e-09 0)
(-1.02319 -1.09582e-09 0)
(-1.02319 2.59367e-09 0)
(-1.02319 -5.73421e-10 0)
(-1.02319 1.29769e-10 0)
(-1.02319 1.22345e-09 0)
(-1.53644 9.65168e-10 0)
(-1.53644 -1.49955e-09 0)
(-1.53644 4.23888e-10 0)
(-1.53644 -6.60075e-09 0)
(-1.53644 3.2222e-10 0)
(-1.53644 -8.50472e-09 0)
(-1.53644 -3.12186e-10 0)
(-1.53644 -9.89583e-09 0)
(-1.53644 -3.17953e-10 0)
(-1.53644 -1.03107e-08 0)
(-1.53644 -4.23632e-10 0)
(-1.53644 -9.66891e-09 0)
(-1.53644 -5.91113e-10 0)
(-1.53644 -8.0122e-09 0)
(-1.53644 -1.0011e-09 0)
(-1.53644 -5.67847e-09 0)
(-1.53644 -1.00224e-09 0)
(-1.53644 -3.29349e-09 0)
(-1.53644 -1.6438e-09 0)
(-1.53644 9.67463e-10 0)
(-1.92303 1.28461e-09 0)
(-1.92303 -2.10235e-09 0)
(-1.92303 4.58365e-10 0)
(-1.92303 -9.12032e-09 0)
(-1.92303 3.86378e-10 0)
(-1.92303 -1.1382e-08 0)
(-1.92303 -3.79675e-10 0)
(-1.92303 -1.30329e-08 0)
(-1.92303 -2.47609e-10 0)
(-1.92303 -1.34316e-08 0)
(-1.92303 -2.86656e-10 0)
(-1.92303 -1.2449e-08 0)
(-1.92303 -4.52803e-10 0)
(-1.92303 -1.01548e-08 0)
(-1.92303 -9.92012e-10 0)
(-1.92303 -6.98579e-09 0)
(-1.92303 -1.02538e-09 0)
(-1.92303 -3.86143e-09 0)
(-1.92303 -1.87324e-09 0)
(-1.92303 2.02787e-09 0)
(-2.18297 1.42214e-09 0)
(-2.18297 -3.08462e-09 0)
(-2.18297 -7.89028e-10 0)
(-2.18297 -1.20661e-08 0)
(-2.18297 -1.70651e-09 0)
(-2.18297 -1.49947e-08 0)
(-2.18297 -3.12464e-09 0)
(-2.18297 -1.69987e-08 0)
(-2.18297 -3.16308e-09 0)
(-2.18297 -1.74013e-08 0)
(-2.18297 -3.13195e-09 0)
(-2.18297 -1.60322e-08 0)
(-2.18297 -3.00022e-09 0)
(-2.18297 -1.3027e-08 0)
(-2.18297 -3.11002e-09 0)
(-2.18297 -8.91269e-09 0)
(-2.18297 -2.51769e-09 0)
(-2.18297 -4.88006e-09 0)
(-2.18297 -2.6485e-09 0)
(-2.18297 2.56988e-09 0)
(-2.31625 1.71685e-09 0)
(-2.31625 -3.73131e-09 0)
(-2.31625 -1.48962e-09 0)
(-2.31625 -1.40742e-08 0)
(-2.31625 -3.09413e-09 0)
(-2.31625 -1.73249e-08 0)
(-2.31625 -4.99117e-09 0)
(-2.31625 -1.94766e-08 0)
(-2.31625 -5.15845e-09 0)
(-2.31625 -1.98083e-08 0)
(-2.31625 -5.1021e-09 0)
(-2.31625 -1.81291e-08 0)
(-2.31625 -4.78659e-09 0)
(-2.31625 -1.46297e-08 0)
(-2.31625 -4.62323e-09 0)
(-2.31625 -9.88946e-09 0)
(-2.31625 -3.61243e-09 0)
(-2.31625 -5.27929e-09 0)
(-2.31625 -3.22787e-09 0)
(-2.31625 3.22355e-09 0)
(-2.32287 2.0536e-09 0)
(-2.32287 -4.25036e-09 0)
(-2.32287 -2.0401e-09 0)
(-2.32287 -1.54383e-08 0)
(-2.32287 -4.39832e-09 0)
(-2.32287 -1.88028e-08 0)
(-2.32287 -6.73549e-09 0)
(-2.32287 -2.09798e-08 0)
(-2.32287 -7.07112e-09 0)
(-2.32287 -2.11935e-08 0)
(-2.32287 -7.02835e-09 0)
(-2.32287 -1.92602e-08 0)
(-2.32287 -6.55938e-09 0)
(-2.32287 -1.54178e-08 0)
(-2.32287 -6.12482e-09 0)
(-2.32287 -1.02797e-08 0)
(-2.32287 -4.72484e-09 0)
(-2.32287 -5.29489e-09 0)
(-2.32287 -3.78905e-09 0)
(-2.32287 3.77917e-09 0)
(-2.20284 2.38661e-09 0)
(-2.20284 -4.68498e-09 0)
(-2.20284 -2.53653e-09 0)
(-2.20284 -1.61785e-08 0)
(-2.20284 -5.71976e-09 0)
(-2.20284 -1.95068e-08 0)
(-2.20284 -8.46615e-09 0)
(-2.20284 -2.16082e-08 0)
(-2.20284 -9.0159e-09 0)
(-2.20284 -2.16674e-08 0)
(-2.20284 -9.01755e-09 0)
(-2.20284 -1.95391e-08 0)
(-2.20284 -8.40897e-09 0)
(-2.20284 -1.55021e-08 0)
(-2.20284 -7.6793e-09 0)
(-2.20284 -1.01774e-08 0)
(-2.20284 -5.90349e-09 0)
(-2.20284 -4.99697e-09 0)
(-2.20284 -4.33323e-09 0)
(-2.20284 4.15632e-09 0)
(-1.95616 2.67995e-09 0)
(-1.95616 -5.02085e-09 0)
(-1.95616 -3.02528e-09 0)
(-1.95616 -1.63094e-08 0)
(-1.95616 -7.05191e-09 0)
(-1.95616 -1.94807e-08 0)
(-1.95616 -1.01612e-08 0)
(-1.95616 -2.14295e-08 0)
(-1.95616 -1.09564e-08 0)
(-1.95616 -2.13194e-08 0)
(-1.95616 -1.10198e-08 0)
(-1.95616 -1.90674e-08 0)
(-1.95616 -1.02787e-08 0)
(-1.95616 -1.49823e-08 0)
(-1.95616 -9.22906e-09 0)
(-1.95616 -9.66794e-09 0)
(-1.95616 -7.10261e-09 0)
(-1.95616 -4.46129e-09 0)
(-1.95616 -4.81415e-09 0)
(-1.95616 4.31321e-09 0)
(-1.58281 2.90972e-09 0)
(-1.58281 -5.22894e-09 0)
(-1.58281 -3.53771e-09 0)
(-1.58281 -1.58465e-08 0)
(-1.58281 -8.35027e-09 0)
(-1.58281 -1.87864e-08 0)
(-1.58281 -1.17557e-08 0)
(-1.58281 -2.05287e-08 0)
(-1.58281 -1.28063e-08 0)
(-1.58281 -2.02567e-08 0)
(-1.58281 -1.2934e-08 0)
(-1.58281 -1.79639e-08 0)
(-1.58281 -1.20641e-08 0)
(-1.58281 -1.3977e-08 0)
(-1.58281 -1.06785e-08 0)
(-1.58281 -8.84924e-09 0)
(-1.58281 -8.24827e-09 0)
(-1.58281 -3.78185e-09 0)
(-1.58281 -5.16548e-09 0)
(-1.58281 4.22223e-09 0)
(-1.08281 3.05084e-09 0)
(-1.08281 -5.27588e-09 0)
(-1.08281 -4.0795e-09 0)
(-1.08281 -1.48436e-08 0)
(-1.08281 -9.52787e-09 0)
(-1.08281 -1.75135e-08 0)
(-1.08281 -1.31366e-08 0)
(-1.08281 -1.90176e-08 0)
(-1.08281 -1.44227e-08 0)
(-1.08281 -1.86128e-08 0)
(-1.08281 -1.46006e-08 0)
(-1.08281 -1.6368e-08 0)
(-1.08281 -1.3607e-08 0)
(-1.08281 -1.26168e-08 0)
(-1.08281 -1.18904e-08 0)
(-1.08281 -7.82194e-09 0)
(-1.08281 -9.23093e-09 0)
(-1.08281 -3.05426e-09 0)
(-1.08281 -5.31805e-09 0)
(-1.08281 3.89317e-09 0)
(-0.456156 3.07455e-09 0)
(-0.456156 -5.1381e-09 0)
(-0.456156 -4.63496e-09 0)
(-0.456156 -1.3399e-08 0)
(-0.456156 -1.04854e-08 0)
(-0.456156 -1.57882e-08 0)
(-0.456156 -1.41818e-08 0)
(-0.456156 -1.70434e-08 0)
(-0.456156 -1.5652e-08 0)
(-0.456156 -1.65506e-08 0)
(-0.456156 -1.58519e-08 0)
(-0.456156 -1.44396e-08 0)
(-0.456156 -1.47438e-08 0)
(-0.456156 -1.10417e-08 0)
(-0.456156 -1.27279e-08 0)
(-0.456156 -6.68711e-09 0)
(-0.456156 -9.93615e-09 0)
(-0.456156 -2.36667e-09 0)
(-0.456156 -5.22333e-09 0)
(-0.456156 3.36969e-09 0)
(0.297157 2.95322e-09 0)
(0.297157 -4.81609e-09 0)
(0.297157 -5.16146e-09 0)
(0.297157 -1.16482e-08 0)
(0.297157 -1.11221e-08 0)
(0.297157 -1.37612e-08 0)
(0.297157 -1.47752e-08 0)
(0.297157 -1.47728e-08 0)
(0.297157 -1.63512e-08 0)
(0.297157 -1.42436e-08 0)
(0.297157 -1.65364e-08 0)
(0.297157 -1.23393e-08 0)
(0.297157 -1.53308e-08 0)
(0.297157 -9.38175e-09 0)
(0.297157 -1.30777e-08 0)
(0.297157 -5.53311e-09 0)
(0.297157 -1.02628e-08 0)
(0.297157 -1.7826e-09 0)
(0.297157 -4.86974e-09 0)
(0.297157 2.72327e-09 0)
(1.17713 2.67128e-09 0)
(1.17713 -4.33479e-09 0)
(1.17713 -5.57762e-09 0)
(1.17713 -9.72936e-09 0)
(1.17713 -1.13312e-08 0)
(1.17713 -1.15672e-08 0)
(1.17713 -1.48e-08 0)
(1.17713 -1.23483e-08 0)
(1.17713 -1.63849e-08 0)
(1.17713 -1.18302e-08 0)
(1.17713 -1.65197e-08 0)
(1.17713 -1.01856e-08 0)
(1.17713 -1.52483e-08 0)
(1.17713 -7.72115e-09 0)
(1.17713 -1.28537e-08 0)
(1.17713 -4.41179e-09 0)
(1.17713 -1.01341e-08 0)
(1.17713 -1.31919e-09 0)
(1.17713 -4.28863e-09 0)
(1.17713 2.04023e-09 0)
(2.18375 2.21469e-09 0)
(2.18375 -3.75822e-09 0)
(2.18375 -5.78413e-09 0)
(2.18375 -7.8006e-09 0)
(2.18375 -1.10258e-08 0)
(2.18375 -9.34908e-09 0)
(2.18375 -1.41697e-08 0)
(2.18375 -9.91133e-09 0)
(2.18375 -1.56599e-08 0)
(2.18375 -9.43416e-09 0)
(2.18375 -1.57174e-08 0)
(2.18375 -8.07231e-09 0)
(2.18375 -1.44279e-08 0)
(2.18375 -6.11136e-09 0)
(2.18375 -1.20181e-08 0)
(2.18375 -3.34893e-09 0)
(2.18375 -9.49913e-09 0)
(2.18375 -9.50144e-10 0)
(2.18375 -3.54455e-09 0)
(2.18375 1.41281e-09 0)
(3.31703 1.63655e-09 0)
(3.31703 -3.12457e-09 0)
(3.31703 -5.63006e-09 0)
(3.31703 -5.91375e-09 0)
(3.31703 -1.00856e-08 0)
(3.31703 -7.1208e-09 0)
(3.31703 -1.27571e-08 0)
(3.31703 -7.46014e-09 0)
(3.31703 -1.40516e-08 0)
(3.31703 -7.03057e-09 0)
(3.31703 -1.40253e-08 0)
(3.31703 -5.95414e-09 0)
(3.31703 -1.27956e-08 0)
(3.31703 -4.48439e-09 0)
(3.31703 -1.05298e-08 0)
(3.31703 -2.28696e-09 0)
(3.31703 -8.33715e-09 0)
(3.31703 -5.74699e-10 0)
(3.31703 -2.71333e-09 0)
(3.31703 9.15319e-10 0)
(4.57697 1.19724e-09 0)
(4.57697 -2.2344e-09 0)
(4.57697 -4.67663e-09 0)
(4.57697 -3.59438e-09 0)
(4.57697 -7.9692e-09 0)
(4.57697 -4.19097e-09 0)
(4.57697 -9.93136e-09 0)
(4.57697 -4.17113e-09 0)
(4.57697 -1.0909e-08 0)
(4.57697 -3.73984e-09 0)
(4.57697 -1.08342e-08 0)
(4.57697 -2.97925e-09 0)
(4.57697 -9.83493e-09 0)
(4.57697 -2.0895e-09 0)
(4.57697 -7.99837e-09 0)
(4.57697 -6.51628e-10 0)
(4.57697 -6.40439e-09 0)
(4.57697 2.37041e-10 0)
(4.57697 -1.70347e-09 0)
(4.57697 6.69506e-10 0)
(5.96356 5.4905e-11 0)
(5.96356 -2.39054e-09 0)
(5.96356 -4.44815e-09 0)
(5.96356 -3.49149e-09 0)
(5.96356 -7.05704e-09 0)
(5.96356 -4.1433e-09 0)
(5.96356 -8.59484e-09 0)
(5.96356 -4.19295e-09 0)
(5.96356 -9.33236e-09 0)
(5.96356 -3.84311e-09 0)
(5.96356 -9.16256e-09 0)
(5.96356 -3.16407e-09 0)
(5.96356 -8.21775e-09 0)
(5.96356 -2.32956e-09 0)
(5.96356 -6.56667e-09 0)
(5.96356 -1.02381e-09 0)
(5.96356 -5.08404e-09 0)
(5.96356 -1.21807e-10 0)
(5.96356 -1.29479e-09 0)
(5.96356 3.24834e-10 0)
(7.47681 6.86662e-10 0)
(7.47681 -2.25758e-10 0)
(7.47681 -8.60968e-10 0)
(7.47681 1.4695e-09 0)
(7.47681 -1.22091e-09 0)
(7.47681 2.64659e-09 0)
(7.47681 -1.29597e-09 0)
(7.47681 3.6864e-09 0)
(7.47681 -1.41916e-09 0)
(7.47681 4.3096e-09 0)
(7.47681 -1.36741e-09 0)
(7.47681 4.49039e-09 0)
(7.47681 -1.22322e-09 0)
(7.47681 4.18087e-09 0)
(7.47681 -8.72155e-10 0)
(7.47681 3.7693e-09 0)
(7.47681 -1.06096e-09 0)
(7.47681 2.87888e-09 0)
(7.47681 5.6541e-10 0)
(7.47681 8.8624e-10 0)
(9.11672 -4.38734e-10 0)
(9.11672 -8.53601e-10 0)
(9.11672 -1.05967e-09 0)
(9.11672 -1.1515e-09 0)
(9.11672 -1.49058e-09 0)
(9.11672 -1.32011e-09 0)
(9.11672 -1.71339e-09 0)
(9.11672 -1.33204e-09 0)
(9.11672 -1.79205e-09 0)
(9.11672 -1.22186e-09 0)
(9.11672 -1.70204e-09 0)
(9.11672 -1.01031e-09 0)
(9.11672 -1.47321e-09 0)
(9.11672 -7.43263e-10 0)
(9.11672 -1.13043e-09 0)
(9.11672 -3.82829e-10 0)
(9.11672 -7.89006e-10 0)
(9.11672 -1.00211e-10 0)
(9.11672 -1.54795e-10 0)
(9.11672 1.69612e-10 0)
)
;

boundaryField
{
    top
    {
        type            fixedValue;
        value           uniform (10 0 0);
    }
    bottom
    {
        type            fixedValue;
        value           uniform (0 0 0);
    }
    inlet
    {
        type            zeroGradient;
    }
    outlet
    {
        type            zeroGradient;
    }
    frontAndBack
    {
        type            empty;
    }
}


// ************************************************************************* //
