/*--------------------------------*- C++ -*----------------------------------*\
| =========                 |                                                 |
| \\      /  F ield         | OpenFOAM: The Open Source CFD Toolbox           |
|  \\    /   O peration     | Version:  4.1                                   |
|   \\  /    A nd           | Web:      www.OpenFOAM.org                      |
|    \\/     M anipulation  |                                                 |
\*---------------------------------------------------------------------------*/
FoamFile
{
    version     2.0;
    format      ascii;
    class       volScalarField;
    location    "4.5";
    object      p;
}
// * * * * * * * * * * * * * * * * * * * * * * * * * * * * * * * * * * * * * //

dimensions      [0 2 -2 0 0 0 0];

internalField   nonuniform List<scalar> 
400
(
1.39984e-12
1.56469e-12
1.33579e-12
1.42633e-12
1.25832e-12
1.30635e-12
1.17257e-12
1.18709e-12
1.08881e-12
1.07413e-12
1.0015e-12
9.69657e-13
9.25201e-13
8.69732e-13
8.42123e-13
7.6134e-13
7.47838e-13
6.55282e-13
6.71572e-13
6.31299e-13
1.39481e-12
1.55951e-12
1.33539e-12
1.42625e-12
1.25833e-12
1.30632e-12
1.1726e-12
1.18707e-12
1.08879e-12
1.07413e-12
1.00152e-12
9.69673e-13
9.25194e-13
8.6971e-13
8.42103e-13
7.6135e-13
7.4777e-13
6.55319e-13
6.68118e-13
6.27645e-13
1.39193e-12
1.55581e-12
1.33491e-12
1.42625e-12
1.25828e-12
1.30636e-12
1.17257e-12
1.18709e-12
1.08875e-12
1.07413e-12
1.00153e-12
9.69689e-13
9.252e-13
8.6968e-13
8.42105e-13
7.61344e-13
7.47723e-13
6.55283e-13
6.65387e-13
6.25122e-13
1.39104e-12
1.55407e-12
1.33446e-12
1.42628e-12
1.25823e-12
1.3064e-12
1.17254e-12
1.18711e-12
1.0887e-12
1.07414e-12
1.00153e-12
9.69704e-13
9.25212e-13
8.69656e-13
8.42124e-13
7.61332e-13
7.47674e-13
6.55194e-13
6.63821e-13
6.23837e-13
1.39134e-12
1.55372e-12
1.33404e-12
1.42628e-12
1.25819e-12
1.30644e-12
1.17252e-12
1.18712e-12
1.08866e-12
1.07414e-12
1.00152e-12
9.69709e-13
9.25241e-13
8.69633e-13
8.42135e-13
7.61328e-13
7.47623e-13
6.55087e-13
6.63182e-13
6.23408e-13
1.39241e-12
1.55428e-12
1.33362e-12
1.42627e-12
1.25816e-12
1.3065e-12
1.1725e-12
1.18711e-12
1.08864e-12
1.07412e-12
1.00151e-12
9.69726e-13
9.25272e-13
8.69611e-13
8.4215e-13
7.6132e-13
7.47585e-13
6.54957e-13
6.63273e-13
6.23636e-13
1.39402e-12
1.55547e-12
1.33318e-12
1.42627e-12
1.25815e-12
1.30655e-12
1.1725e-12
1.18708e-12
1.08862e-12
1.07411e-12
1.00148e-12
9.69738e-13
9.25307e-13
8.69591e-13
8.42161e-13
7.61301e-13
7.47553e-13
6.54839e-13
6.63978e-13
6.24404e-13
1.39592e-12
1.55703e-12
1.33274e-12
1.42625e-12
1.25815e-12
1.3066e-12
1.1725e-12
1.18703e-12
1.08862e-12
1.07411e-12
1.00146e-12
9.69757e-13
9.25329e-13
8.69579e-13
8.42179e-13
7.6129e-13
7.47517e-13
6.54719e-13
6.65155e-13
6.2558e-13
1.39782e-12
1.55864e-12
1.33231e-12
1.42621e-12
1.25815e-12
1.30662e-12
1.17252e-12
1.18697e-12
1.08864e-12
1.07411e-12
1.00141e-12
9.69785e-13
9.25333e-13
8.69555e-13
8.42175e-13
7.61301e-13
7.47463e-13
6.54658e-13
6.66621e-13
6.26964e-13
1.39951e-12
1.56013e-12
1.33186e-12
1.42614e-12
1.25819e-12
1.30664e-12
1.17253e-12
1.18692e-12
1.08865e-12
1.07411e-12
1.00136e-12
9.698e-13
9.25319e-13
8.69522e-13
8.42185e-13
7.61334e-13
7.47403e-13
6.54608e-13
6.68174e-13
6.28377e-13
1.40076e-12
1.56123e-12
1.33136e-12
1.42609e-12
1.25822e-12
1.30664e-12
1.17259e-12
1.18684e-12
1.08863e-12
1.07416e-12
1.00133e-12
9.6982e-13
9.25295e-13
8.69463e-13
8.42209e-13
7.61371e-13
7.47337e-13
6.54554e-13
6.6967e-13
6.29654e-13
1.40143e-12
1.56179e-12
1.33086e-12
1.426e-12
1.25827e-12
1.30661e-12
1.17262e-12
1.18676e-12
1.08865e-12
1.07417e-12
1.00128e-12
9.69856e-13
9.25244e-13
8.69434e-13
8.42234e-13
7.61409e-13
7.47276e-13
6.54533e-13
6.70907e-13
6.3063e-13
1.40142e-12
1.5617e-12
1.3304e-12
1.42592e-12
1.25833e-12
1.30655e-12
1.17265e-12
1.18664e-12
1.08872e-12
1.07415e-12
1.00127e-12
9.69882e-13
9.25184e-13
8.69382e-13
8.42266e-13
7.61466e-13
7.47185e-13
6.54558e-13
6.71733e-13
6.31121e-13
1.40068e-12
1.56093e-12
1.32999e-12
1.42585e-12
1.25837e-12
1.30645e-12
1.17269e-12
1.18652e-12
1.08876e-12
1.07417e-12
1.00127e-12
9.69865e-13
9.25109e-13
8.69394e-13
8.42255e-13
7.61527e-13
7.47095e-13
6.54584e-13
6.72081e-13
6.31094e-13
1.39924e-12
1.55955e-12
1.32964e-12
1.42571e-12
1.25847e-12
1.30631e-12
1.17278e-12
1.18641e-12
1.08879e-12
1.07416e-12
1.00131e-12
9.69855e-13
9.25072e-13
8.69413e-13
8.42209e-13
7.61548e-13
7.47032e-13
6.54641e-13
6.71821e-13
6.30479e-13
1.39723e-12
1.55765e-12
1.32938e-12
1.42556e-12
1.25855e-12
1.30619e-12
1.17287e-12
1.18634e-12
1.08876e-12
1.0742e-12
1.00135e-12
9.69842e-13
9.25032e-13
8.69453e-13
8.42142e-13
7.61581e-13
7.46941e-13
6.54717e-13
6.7104e-13
6.29304e-13
1.39485e-12
1.55551e-12
1.3292e-12
1.42538e-12
1.25864e-12
1.30609e-12
1.17296e-12
1.1863e-12
1.08866e-12
1.07421e-12
1.00144e-12
9.69836e-13
9.24984e-13
8.69496e-13
8.42108e-13
7.61563e-13
7.46896e-13
6.54773e-13
6.69803e-13
6.27698e-13
1.39243e-12
1.55346e-12
1.3291e-12
1.42524e-12
1.25869e-12
1.30598e-12
1.17308e-12
1.18632e-12
1.08856e-12
1.07413e-12
1.00159e-12
9.69792e-13
9.24984e-13
8.69516e-13
8.42062e-13
7.61585e-13
7.46819e-13
6.54837e-13
6.6821e-13
6.25685e-13
1.39059e-12
1.55194e-12
1.32901e-12
1.42518e-12
1.25878e-12
1.30582e-12
1.17314e-12
1.18638e-12
1.0885e-12
1.07405e-12
1.00169e-12
9.69761e-13
9.24985e-13
8.69533e-13
8.42009e-13
7.61621e-13
7.46723e-13
6.54895e-13
6.66365e-13
6.23526e-13
1.39025e-12
1.55122e-12
1.32888e-12
1.42519e-12
1.25875e-12
1.3058e-12
1.17321e-12
1.18643e-12
1.0884e-12
1.07405e-12
1.00173e-12
9.69735e-13
9.25002e-13
8.69473e-13
8.42017e-13
7.61599e-13
7.46681e-13
6.54909e-13
6.64632e-13
6.21857e-13
)
;

boundaryField
{
    top
    {
        type            zeroGradient;
    }
    bottom
    {
        type            zeroGradient;
    }
    inlet
    {
        type            fixedValue;
        value           uniform 0;
    }
    outlet
    {
        type            fixedValue;
        value           uniform 0;
    }
    frontAndBack
    {
        type            empty;
    }
}


// ************************************************************************* //
