/*--------------------------------*- C++ -*----------------------------------*\
| =========                 |                                                 |
| \\      /  F ield         | OpenFOAM: The Open Source CFD Toolbox           |
|  \\    /   O peration     | Version:  4.1                                   |
|   \\  /    A nd           | Web:      www.OpenFOAM.org                      |
|    \\/     M anipulation  |                                                 |
\*---------------------------------------------------------------------------*/
FoamFile
{
    version     2.0;
    format      ascii;
    class       surfaceScalarField;
    location    "4.5";
    object      phi;
}
// * * * * * * * * * * * * * * * * * * * * * * * * * * * * * * * * * * * * * //

dimensions      [0 3 -1 0 0 0 0];

internalField   nonuniform List<scalar> 
760
(
1.25e-06
-2.17369e-18
1.25e-06
-1.49486e-18
1.25e-06
1.58833e-20
1.25e-06
-1.01315e-19
1.25e-06
7.06954e-20
1.25e-06
-6.46279e-20
1.25e-06
5.28862e-20
1.25e-06
-3.70507e-20
1.25e-06
2.28304e-20
1.25e-06
-2.0673e-20
1.25e-06
2.06915e-20
1.25e-06
3.71e-22
1.25e-06
-6.25707e-21
1.25e-06
2.94743e-21
1.25e-06
-2.36219e-20
1.25e-06
2.48417e-20
1.25e-06
-3.79343e-20
1.25e-06
5.40647e-20
1.25e-06
-8.98338e-19
-1.32284e-18
3.75e-06
-6.56868e-18
3.75e-06
-5.23092e-18
3.75e-06
-1.17884e-19
3.75e-06
-2.41299e-19
3.75e-06
1.4985e-19
3.75e-06
-1.47021e-19
3.75e-06
1.19429e-19
3.75e-06
-7.83151e-20
3.75e-06
4.16153e-20
3.75e-06
-4.64571e-20
3.75e-06
5.54893e-20
3.75e-06
7.82655e-21
3.75e-06
-1.82834e-20
3.75e-06
-3.0216e-21
3.75e-06
-5.8301e-20
3.75e-06
5.50682e-20
3.75e-06
-1.00947e-19
3.75e-06
1.41813e-19
3.75e-06
-3.30577e-18
-4.2701e-18
6.25e-06
-1.18837e-17
6.25e-06
-1.03146e-17
6.25e-06
-4.21979e-19
6.25e-06
-3.61118e-19
6.25e-06
1.93165e-19
6.25e-06
-2.06798e-19
6.25e-06
1.69038e-19
6.25e-06
-1.0287e-19
6.25e-06
3.94435e-20
6.25e-06
-6.55166e-20
6.25e-06
9.41847e-20
6.25e-06
2.10775e-20
6.25e-06
-2.95448e-20
6.25e-06
-2.162e-20
6.25e-06
-9.38281e-20
6.25e-06
8.0515e-20
6.25e-06
-1.68841e-19
6.25e-06
2.35451e-19
6.25e-06
-6.78649e-18
-8.16218e-18
8.75e-06
-1.73135e-17
8.75e-06
-1.58691e-17
8.75e-06
-8.3763e-19
8.75e-06
-4.54677e-19
8.75e-06
2.09217e-19
8.75e-06
-2.4987e-19
8.75e-06
2.01036e-19
8.75e-06
-1.09534e-19
8.75e-06
2.00273e-20
8.75e-06
-7.97256e-20
8.75e-06
1.34617e-19
8.75e-06
3.9823e-20
8.75e-06
-4.16839e-20
8.75e-06
-4.71584e-20
8.75e-06
-1.23656e-19
8.75e-06
9.86129e-20
8.75e-06
-2.39521e-19
8.75e-06
3.27474e-19
8.75e-06
-1.08332e-17
-1.249e-17
1.125e-05
-2.2165e-17
1.125e-05
-2.11214e-17
1.125e-05
-1.30804e-18
1.125e-05
-5.19299e-19
1.125e-05
1.98928e-19
1.125e-05
-2.77284e-19
1.125e-05
2.24788e-19
1.125e-05
-9.78563e-20
1.125e-05
-2.0163e-20
1.125e-05
-8.66622e-20
1.125e-05
1.74465e-19
1.125e-05
5.52088e-20
1.125e-05
-4.52889e-20
1.125e-05
-7.63436e-20
1.125e-05
-1.54169e-19
1.125e-05
1.12226e-19
1.125e-05
-3.07101e-19
1.125e-05
4.17024e-19
1.125e-05
-1.49464e-17
-1.67597e-17
1.375e-05
-2.59146e-17
1.375e-05
-2.54597e-17
1.375e-05
-1.77145e-18
1.375e-05
-5.56723e-19
1.375e-05
1.66111e-19
1.375e-05
-2.84355e-19
1.375e-05
2.30805e-19
1.375e-05
-7.47191e-20
1.375e-05
-6.72541e-20
1.375e-05
-9.58551e-20
1.375e-05
2.14367e-19
1.375e-05
7.16109e-20
1.375e-05
-4.38848e-20
1.375e-05
-1.05182e-19
1.375e-05
-1.80389e-19
1.375e-05
1.19803e-19
1.375e-05
-3.6036e-19
1.375e-05
4.8978e-19
1.375e-05
-1.86886e-17
-2.05336e-17
1.625e-05
-2.81971e-17
1.625e-05
-2.84428e-17
1.625e-05
-2.17774e-18
1.625e-05
-5.56437e-19
1.625e-05
1.17254e-19
1.625e-05
-2.71212e-19
1.625e-05
2.29896e-19
1.625e-05
-4.35855e-20
1.625e-05
-1.23946e-19
1.625e-05
-9.8229e-20
1.625e-05
2.43323e-19
1.625e-05
7.93776e-20
1.625e-05
-3.30712e-20
1.625e-05
-1.31035e-19
1.625e-05
-2.04985e-19
1.625e-05
1.15076e-19
1.625e-05
-3.92168e-19
1.625e-05
5.52105e-19
1.625e-05
-2.16899e-17
-2.34549e-17
1.875e-05
-2.88245e-17
1.875e-05
-2.98072e-17
1.875e-05
-2.48447e-18
1.875e-05
-5.23011e-19
1.875e-05
5.99122e-20
1.875e-05
-2.3926e-19
1.875e-05
2.13106e-19
1.875e-05
-9.40644e-21
1.875e-05
-1.8114e-19
1.875e-05
-9.32364e-20
1.875e-05
2.71611e-19
1.875e-05
8.13192e-20
1.875e-05
-1.68202e-20
1.875e-05
-1.45946e-19
1.875e-05
-2.1652e-19
1.875e-05
9.67576e-20
1.875e-05
-4.01563e-19
1.875e-05
5.83683e-19
1.875e-05
-2.36785e-17
-2.52537e-17
2.125e-05
-2.7808e-17
2.125e-05
-2.9504e-17
2.125e-05
-2.64907e-18
2.125e-05
-4.54808e-19
2.125e-05
-1.41085e-20
2.125e-05
-1.94101e-19
2.125e-05
1.95159e-19
2.125e-05
1.78917e-20
2.125e-05
-2.29569e-19
2.125e-05
-8.92298e-20
2.125e-05
2.86406e-19
2.125e-05
8.30072e-20
2.125e-05
3.75921e-22
2.125e-05
-1.53903e-19
2.125e-05
-2.2596e-19
2.125e-05
7.19016e-20
2.125e-05
-3.9449e-19
2.125e-05
6.03059e-19
2.125e-05
-2.44927e-17
-2.57935e-17
2.375e-05
-2.5288e-17
2.375e-05
-2.76101e-17
2.375e-05
-2.65953e-18
2.375e-05
-3.6815e-19
2.375e-05
-8.49251e-20
2.375e-05
-1.34647e-19
2.375e-05
1.54068e-19
2.375e-05
5.44794e-20
2.375e-05
-2.59591e-19
2.375e-05
-9.11826e-20
2.375e-05
2.8454e-19
2.375e-05
7.86515e-20
2.375e-05
1.41411e-20
2.375e-05
-1.52045e-19
2.375e-05
-2.25182e-19
2.375e-05
4.70577e-20
2.375e-05
-3.69646e-19
2.375e-05
5.95141e-19
2.375e-05
-2.41009e-17
-2.50505e-17
2.625e-05
-2.15726e-17
2.625e-05
-2.43996e-17
2.625e-05
-2.54223e-18
2.625e-05
-2.48972e-19
2.625e-05
-1.61891e-19
2.625e-05
-6.13549e-20
2.625e-05
1.26121e-19
2.625e-05
8.47367e-20
2.625e-05
-2.95547e-19
2.625e-05
-7.88394e-20
2.625e-05
2.7238e-19
2.625e-05
7.08573e-20
2.625e-05
2.62439e-20
2.625e-05
-1.56901e-19
2.625e-05
-2.07707e-19
2.625e-05
1.9242e-20
2.625e-05
-3.31023e-19
2.625e-05
5.49085e-19
2.625e-05
-2.25592e-17
-2.31156e-17
2.875e-05
-1.70651e-17
2.875e-05
-2.02547e-17
2.875e-05
-2.31067e-18
2.875e-05
-1.30106e-19
2.875e-05
-2.24675e-19
2.875e-05
9.90702e-21
2.875e-05
9.12033e-20
2.875e-05
1.17605e-19
2.875e-05
-3.21236e-19
2.875e-05
-6.24077e-20
2.875e-05
2.42465e-19
2.875e-05
6.74039e-20
2.875e-05
3.16312e-20
2.875e-05
-1.49267e-19
2.875e-05
-1.80687e-19
2.875e-05
-1.16753e-20
2.875e-05
-2.74429e-19
2.875e-05
4.75319e-19
2.875e-05
-2.0055e-17
-2.01884e-17
3.125e-05
-1.22356e-17
3.125e-05
-1.56289e-17
3.125e-05
-1.99416e-18
3.125e-05
-7.66805e-21
3.125e-05
-2.70235e-19
3.125e-05
7.68993e-20
3.125e-05
4.81677e-20
3.125e-05
1.43465e-19
3.125e-05
-3.17879e-19
3.125e-05
-6.44518e-20
3.125e-05
2.06214e-19
3.125e-05
6.95568e-20
3.125e-05
3.35135e-20
3.125e-05
-1.58358e-19
3.125e-05
-1.34999e-19
3.125e-05
-3.23142e-20
3.125e-05
-2.17463e-19
3.125e-05
3.887e-19
3.125e-05
-1.68566e-17
-1.65831e-17
3.375e-05
-7.57774e-18
3.375e-05
-1.10249e-17
3.375e-05
-1.63763e-18
3.375e-05
1.13735e-19
3.375e-05
-3.07592e-19
3.375e-05
1.38242e-19
3.375e-05
-2.44719e-21
3.375e-05
1.57175e-19
3.375e-05
-2.99743e-19
3.375e-05
-4.07907e-20
3.375e-05
1.56589e-19
3.375e-05
5.7678e-20
3.375e-05
2.31203e-20
3.375e-05
-1.50779e-19
3.375e-05
-8.55423e-20
3.375e-05
-4.01581e-20
3.375e-05
-1.63366e-19
3.375e-05
2.86798e-19
3.375e-05
-1.3258e-17
-1.26387e-17
3.625e-05
-3.57332e-18
3.625e-05
-6.87975e-18
3.625e-05
-1.26698e-18
3.625e-05
2.0034e-19
3.625e-05
-3.11244e-19
3.625e-05
1.69311e-19
3.625e-05
-4.48019e-20
3.625e-05
1.56185e-19
3.625e-05
-2.56283e-19
3.625e-05
-3.35385e-20
3.625e-05
1.0795e-19
3.625e-05
4.96123e-20
3.625e-05
2.22333e-20
3.625e-05
-1.38622e-19
3.625e-05
-3.76649e-20
3.625e-05
-5.24085e-20
3.625e-05
-1.00706e-19
3.625e-05
1.85547e-19
3.625e-05
-9.63347e-18
-8.74611e-18
3.875e-05
-5.92745e-19
3.875e-05
-3.58892e-18
3.875e-05
-9.23273e-19
3.875e-05
2.4546e-19
3.875e-05
-2.90014e-19
3.875e-05
1.84361e-19
3.875e-05
-7.46974e-20
3.875e-05
1.36482e-19
3.875e-05
-2.01868e-19
3.875e-05
-2.85928e-21
3.875e-05
5.30266e-20
3.875e-05
3.66319e-20
3.875e-05
2.29051e-20
3.875e-05
-1.15901e-19
3.875e-05
-6.44262e-21
3.875e-05
-4.83276e-20
3.875e-05
-6.11684e-20
3.875e-05
1.00116e-19
3.875e-05
-6.29027e-18
-5.28012e-18
4.125e-05
1.12412e-18
4.125e-05
-1.35766e-18
4.125e-05
-6.17617e-19
4.125e-05
2.29906e-19
4.125e-05
-2.35954e-19
4.125e-05
1.80269e-19
4.125e-05
-9.35959e-20
4.125e-05
1.00937e-19
4.125e-05
-1.49132e-19
4.125e-05
3.03134e-20
4.125e-05
2.8335e-21
4.125e-05
3.5137e-20
4.125e-05
1.11393e-20
4.125e-05
-8.25682e-20
4.125e-05
2.08976e-20
4.125e-05
-5.83202e-20
4.125e-05
-1.62234e-20
4.125e-05
2.86121e-20
4.125e-05
-3.51531e-18
-2.52678e-18
4.375e-05
1.54546e-18
4.375e-05
-2.05068e-19
4.375e-05
-3.55469e-19
4.375e-05
1.67608e-19
4.375e-05
-1.80005e-19
4.375e-05
1.61301e-19
4.375e-05
-7.32662e-20
4.375e-05
5.60635e-20
4.375e-05
-1.00893e-19
4.375e-05
3.99615e-20
4.375e-05
-9.50757e-21
4.375e-05
2.27512e-20
4.375e-05
8.27317e-21
4.375e-05
-5.0973e-20
4.375e-05
3.00642e-20
4.375e-05
-5.29174e-20
4.375e-05
1.0702e-20
4.375e-05
-7.59921e-21
4.375e-05
-1.50555e-18
-7.31132e-19
4.625e-05
8.68617e-19
4.625e-05
9.17381e-20
4.625e-05
-1.40774e-19
4.625e-05
7.78378e-20
4.625e-05
-7.46583e-20
4.625e-05
7.25588e-20
4.625e-05
-4.79582e-20
4.625e-05
2.62088e-20
4.625e-05
-3.44736e-20
4.625e-05
1.41821e-20
4.625e-05
-6.78613e-21
4.625e-05
1.31891e-20
4.625e-05
1.2077e-21
4.625e-05
-9.86544e-21
4.625e-05
1.14398e-20
4.625e-05
-2.18702e-20
4.625e-05
7.97699e-21
4.625e-05
-7.48184e-21
4.625e-05
-3.56728e-19
1.62229e-20
4.875e-05
4.875e-05
4.875e-05
4.875e-05
4.875e-05
4.875e-05
4.875e-05
4.875e-05
4.875e-05
4.875e-05
4.875e-05
4.875e-05
4.875e-05
4.875e-05
4.875e-05
4.875e-05
4.875e-05
4.875e-05
4.875e-05
)
;

boundaryField
{
    top
    {
        type            calculated;
        value           uniform 0;
    }
    bottom
    {
        type            calculated;
        value           uniform 0;
    }
    inlet
    {
        type            calculated;
        value           nonuniform List<scalar> 
20
(
-1.25e-06
-3.75e-06
-6.25e-06
-8.75e-06
-1.125e-05
-1.375e-05
-1.625e-05
-1.875e-05
-2.125e-05
-2.375e-05
-2.625e-05
-2.875e-05
-3.125e-05
-3.375e-05
-3.625e-05
-3.875e-05
-4.125e-05
-4.375e-05
-4.625e-05
-4.875e-05
)
;
    }
    outlet
    {
        type            calculated;
        value           nonuniform List<scalar> 
20
(
1.25e-06
3.75e-06
6.25e-06
8.75e-06
1.125e-05
1.375e-05
1.625e-05
1.875e-05
2.125e-05
2.375e-05
2.625e-05
2.875e-05
3.125e-05
3.375e-05
3.625e-05
3.875e-05
4.125e-05
4.375e-05
4.625e-05
4.875e-05
)
;
    }
    frontAndBack
    {
        type            empty;
        value           nonuniform 0();
    }
}


// ************************************************************************* //
