/*--------------------------------*- C++ -*----------------------------------*\
| =========                 |                                                 |
| \\      /  F ield         | OpenFOAM: The Open Source CFD Toolbox           |
|  \\    /   O peration     | Version:  4.1                                   |
|   \\  /    A nd           | Web:      www.OpenFOAM.org                      |
|    \\/     M anipulation  |                                                 |
\*---------------------------------------------------------------------------*/
FoamFile
{
    version     2.0;
    format      ascii;
    class       volVectorField;
    location    "4.5";
    object      U;
}
// * * * * * * * * * * * * * * * * * * * * * * * * * * * * * * * * * * * * * //

dimensions      [0 1 -1 0 0 0 0];

internalField   nonuniform List<vector> 
400
(
(0.025 -9.69025e-16 0)
(0.025 -6.04434e-16 0)
(0.025 2.11458e-17 0)
(0.025 -5.11315e-17 0)
(0.025 3.71951e-17 0)
(0.025 -3.3438e-17 0)
(0.025 2.72105e-17 0)
(0.025 -1.95926e-17 0)
(0.025 1.27521e-17 0)
(0.025 -1.06008e-17 0)
(0.025 9.77819e-18 0)
(0.025 -4.06384e-19 0)
(0.025 -2.93481e-18 0)
(0.025 2.54116e-18 0)
(0.025 -1.13587e-17 0)
(0.025 1.24742e-17 0)
(0.025 -1.8239e-17 0)
(0.025 2.39742e-17 0)
(0.025 -3.41805e-16 0)
(0.025 -5.56563e-16 0)
(0.075 -4.07539e-15 0)
(0.075 -3.01071e-15 0)
(0.075 -1.33498e-17 0)
(0.075 -1.69883e-16 0)
(0.075 1.13761e-16 0)
(0.075 -1.06477e-16 0)
(0.075 8.70972e-17 0)
(0.075 -5.95222e-17 0)
(0.075 3.51357e-17 0)
(0.075 -3.38063e-17 0)
(0.075 3.63132e-17 0)
(0.075 2.62798e-18 0)
(0.075 -1.17226e-17 0)
(0.075 2.30499e-18 0)
(0.075 -4.03083e-17 0)
(0.075 4.01916e-17 0)
(0.075 -6.61216e-17 0)
(0.075 9.63154e-17 0)
(0.075 -1.84035e-15 0)
(0.075 -2.54152e-15 0)
(0.125 -9.03955e-15 0)
(0.125 -7.51353e-15 0)
(0.125 -2.36664e-16 0)
(0.125 -3.03689e-16 0)
(0.125 1.76947e-16 0)
(0.125 -1.79726e-16 0)
(0.125 1.46226e-16 0)
(0.125 -9.36351e-17 0)
(0.125 4.45841e-17 0)
(0.125 -5.66336e-17 0)
(0.125 7.3603e-17 0)
(0.125 1.3089e-17 0)
(0.125 -2.39946e-17 0)
(0.125 -1.00934e-17 0)
(0.125 -7.55632e-17 0)
(0.125 6.85184e-17 0)
(0.125 -1.32903e-16 0)
(0.125 1.84764e-16 0)
(0.125 -4.82669e-15 0)
(0.125 -6.01246e-15 0)
(0.175 -1.46288e-14 0)
(0.175 -1.30413e-14 0)
(0.175 -6.06615e-16 0)
(0.175 -4.14203e-16 0)
(0.175 2.08244e-16 0)
(0.175 -2.33003e-16 0)
(0.175 1.88726e-16 0)
(0.175 -1.10549e-16 0)
(0.175 3.40455e-17 0)
(0.175 -7.35398e-17 0)
(0.175 1.14054e-16 0)
(0.175 2.98815e-17 0)
(0.175 -3.63983e-17 0)
(0.175 -3.28552e-17 0)
(0.175 -1.09114e-16 0)
(0.175 9.09957e-17 0)
(0.175 -2.04774e-16 0)
(0.175 2.81712e-16 0)
(0.175 -8.71651e-15 0)
(0.175 -1.02635e-14 0)
(0.225 -1.99451e-14 0)
(0.225 -1.86388e-14 0)
(0.225 -1.06597e-15 0)
(0.225 -4.94883e-16 0)
(0.225 2.10095e-16 0)
(0.225 -2.68247e-16 0)
(0.225 2.16153e-16 0)
(0.225 -1.07113e-16 0)
(0.225 3.25628e-18 0)
(0.225 -8.45418e-17 0)
(0.225 1.5518e-16 0)
(0.225 4.77933e-17 0)
(0.225 -4.50917e-17 0)
(0.225 -6.12739e-17 0)
(0.225 -1.39669e-16 0)
(0.225 1.0732e-16 0)
(0.225 -2.75786e-16 0)
(0.225 3.73785e-16 0)
(0.225 -1.29245e-14 0)
(0.225 -1.46917e-14 0)
(0.275 -2.43571e-14 0)
(0.275 -2.35689e-14 0)
(0.275 -1.54826e-15 0)
(0.275 -5.46265e-16 0)
(0.275 1.87373e-16 0)
(0.275 -2.85384e-16 0)
(0.275 2.30707e-16 0)
(0.275 -8.90792e-17 0)
(0.275 -4.12273e-17 0)
(0.275 -9.25244e-17 0)
(0.275 1.95383e-16 0)
(0.275 6.44474e-17 0)
(0.275 -4.59278e-17 0)
(0.275 -9.13765e-17 0)
(0.275 -1.68022e-16 0)
(0.275 1.18002e-16 0)
(0.275 -3.37805e-16 0)
(0.275 4.5605e-16 0)
(0.275 -1.69547e-14 0)
(0.275 -1.88133e-14 0)
(0.325 -2.74396e-14 0)
(0.325 -2.73164e-14 0)
(0.325 -1.99559e-15 0)
(0.325 -5.6491e-16 0)
(0.325 1.45136e-16 0)
(0.325 -2.82019e-16 0)
(0.325 2.33243e-16 0)
(0.325 -6.04093e-17 0)
(0.325 -9.48192e-17 0)
(0.325 -9.83813e-17 0)
(0.325 2.3023e-16 0)
(0.325 7.70172e-17 0)
(0.325 -3.98529e-17 0)
(0.325 -1.19421e-16 0)
(0.325 -1.94058e-16 0)
(0.325 1.19806e-16 0)
(0.325 -3.81218e-16 0)
(0.325 5.2467e-16 0)
(0.325 -2.04045e-14 0)
(0.325 -2.2237e-14 0)
(0.375 -2.89184e-14 0)
(0.375 -2.95312e-14 0)
(0.375 -2.36197e-15 0)
(0.375 -5.48151e-16 0)
(0.375 9.16011e-17 0)
(0.375 -2.59507e-16 0)
(0.375 2.23933e-16 0)
(0.375 -2.6791e-17 0)
(0.375 -1.53214e-16 0)
(0.375 -9.64932e-17 0)
(0.375 2.59748e-16 0)
(0.375 8.17726e-17 0)
(0.375 -2.57698e-17 0)
(0.375 -1.40458e-16 0)
(0.375 -2.12598e-16 0)
(0.375 1.07914e-16 0)
(0.375 -4.01842e-16 0)
(0.375 5.73092e-16 0)
(0.375 -2.29528e-14 0)
(0.375 -2.46476e-14 0)
(0.425 -2.87049e-14 0)
(0.425 -3.00594e-14 0)
(0.425 -2.60308e-15 0)
(0.425 -4.96392e-16 0)
(0.425 2.44072e-17 0)
(0.425 -2.20551e-16 0)
(0.425 2.06561e-16 0)
(0.425 4.23478e-18 0)
(0.425 -2.07246e-16 0)
(0.425 -9.15313e-17 0)
(0.425 2.82086e-16 0)
(0.425 8.28122e-17 0)
(0.425 -7.8597e-18 0)
(0.425 -1.51638e-16 0)
(0.425 -2.23976e-16 0)
(0.425 8.58168e-17 0)
(0.425 -4.0276e-16 0)
(0.425 6.00009e-16 0)
(0.425 -2.43795e-14 0)
(0.425 -2.58379e-14 0)
(0.475 -2.68812e-14 0)
(0.475 -2.89158e-14 0)
(0.475 -2.69121e-15 0)
(0.475 -4.17715e-16 0)
(0.475 -4.911e-17 0)
(0.475 -1.6709e-16 0)
(0.475 1.75942e-16 0)
(0.475 3.66827e-17 0)
(0.475 -2.4678e-16 0)
(0.475 -9.07042e-17 0)
(0.475 2.88601e-16 0)
(0.475 8.15193e-17 0)
(0.475 7.82927e-18 0)
(0.475 -1.54519e-16 0)
(0.475 -2.28666e-16 0)
(0.475 6.07963e-17 0)
(0.475 -3.86331e-16 0)
(0.475 6.06817e-16 0)
(0.475 -2.45869e-14 0)
(0.475 -2.57282e-14 0)
(0.525 -2.36768e-14 0)
(0.525 -2.62848e-14 0)
(0.525 -2.63487e-15 0)
(0.525 -3.12779e-16 0)
(0.525 -1.24284e-16 0)
(0.525 -9.90277e-17 0)
(0.525 1.41046e-16 0)
(0.525 6.97765e-17 0)
(0.525 -2.81079e-16 0)
(0.525 -8.45082e-17 0)
(0.525 2.81462e-16 0)
(0.525 7.49711e-17 0)
(0.525 2.12359e-17 0)
(0.525 -1.5508e-16 0)
(0.525 -2.19298e-16 0)
(0.525 3.29332e-17 0)
(0.525 -3.5369e-16 0)
(0.525 5.79172e-16 0)
(0.525 -2.3589e-14 0)
(0.525 -2.43515e-14 0)
(0.575 -1.94564e-14 0)
(0.575 -2.25031e-14 0)
(0.575 -2.4525e-15 0)
(0.575 -1.9114e-16 0)
(0.575 -1.96361e-16 0)
(0.575 -2.52725e-17 0)
(0.575 1.09566e-16 0)
(0.575 1.01545e-16 0)
(0.575 -3.11565e-16 0)
(0.575 -7.12069e-17 0)
(0.575 2.60617e-16 0)
(0.575 6.94341e-17 0)
(0.575 3.0138e-17 0)
(0.575 -1.53481e-16 0)
(0.575 -1.9681e-16 0)
(0.575 2.87656e-18 0)
(0.575 -3.04906e-16 0)
(0.575 5.1823e-16 0)
(0.575 -2.15116e-14 0)
(0.575 -2.18587e-14 0)
(0.625 -1.46683e-14 0)
(0.625 -1.8e-14 0)
(0.625 -2.16997e-15 0)
(0.625 -6.72863e-17 0)
(0.625 -2.52096e-16 0)
(0.625 4.56722e-17 0)
(0.625 7.02804e-17 0)
(0.625 1.32016e-16 0)
(0.625 -3.22933e-16 0)
(0.625 -6.42334e-17 0)
(0.625 2.25994e-16 0)
(0.625 6.90458e-17 0)
(0.625 3.32177e-17 0)
(0.625 -1.55023e-16 0)
(0.625 -1.59779e-16 0)
(0.625 -2.29886e-17 0)
(0.625 -2.4729e-16 0)
(0.625 4.36011e-16 0)
(0.625 -1.85892e-14 0)
(0.625 -1.85124e-14 0)
(0.675 -9.80533e-15 0)
(0.675 -1.32682e-14 0)
(0.675 -1.82314e-15 0)
(0.675 5.8046e-17 0)
(0.675 -2.94232e-16 0)
(0.675 1.10525e-16 0)
(0.675 2.27912e-17 0)
(0.675 1.52671e-16 0)
(0.675 -3.1352e-16 0)
(0.675 -5.36233e-17 0)
(0.675 1.83187e-16 0)
(0.675 6.39649e-17 0)
(0.675 2.84439e-17 0)
(0.675 -1.55595e-16 0)
(0.675 -1.10751e-16 0)
(0.675 -3.82188e-17 0)
(0.675 -1.90051e-16 0)
(0.675 3.39691e-16 0)
(0.675 -1.51093e-14 0)
(0.675 -1.46455e-14 0)
(0.725 -5.36899e-15 0)
(0.725 -8.79213e-15 0)
(0.725 -1.45063e-15 0)
(0.725 1.6595e-16 0)
(0.725 -3.15533e-16 0)
(0.725 1.57198e-16 0)
(0.725 -2.49452e-17 0)
(0.725 1.60359e-16 0)
(0.725 -2.80667e-16 0)
(0.725 -3.91091e-17 0)
(0.725 1.33071e-16 0)
(0.725 5.38686e-17 0)
(0.725 2.25272e-17 0)
(0.725 -1.46641e-16 0)
(0.725 -6.13188e-17 0)
(0.725 -4.69193e-17 0)
(0.725 -1.30742e-16 0)
(0.725 2.35877e-16 0)
(0.725 -1.1417e-14 0)
(0.725 -1.06359e-14 0)
(0.775 -1.80018e-15 0)
(0.775 -5.0024e-15 0)
(0.775 -1.0868e-15 0)
(0.775 2.34268e-16 0)
(0.775 -3.07323e-16 0)
(0.775 1.82456e-16 0)
(0.775 -6.34493e-17 0)
(0.775 1.50377e-16 0)
(0.775 -2.32161e-16 0)
(0.775 -1.77791e-17 0)
(0.775 7.87151e-17 0)
(0.775 4.3122e-17 0)
(0.775 2.28506e-17 0)
(0.775 -1.29413e-16 0)
(0.775 -1.93585e-17 0)
(0.775 -5.11136e-17 0)
(0.775 -7.89032e-17 0)
(0.775 1.38268e-16 0)
(0.775 -7.85654e-15 0)
(0.775 -6.87068e-15 0)
(0.825 5.72302e-16 0)
(0.825 -2.21862e-15 0)
(0.825 -7.57382e-16 0)
(0.825 2.48979e-16 0)
(0.825 -2.68547e-16 0)
(0.825 1.89674e-16 0)
(0.825 -8.87986e-17 0)
(0.825 1.21637e-16 0)
(0.825 -1.78383e-16 0)
(0.825 1.60837e-17 0)
(0.825 2.54261e-17 0)
(0.825 3.55402e-17 0)
(0.825 1.70543e-17 0)
(0.825 -9.90992e-17 0)
(0.825 1.10767e-17 0)
(0.825 -5.59374e-17 0)
(0.825 -3.49934e-17 0)
(0.825 5.80898e-17 0)
(0.825 -4.73747e-15 0)
(0.825 -3.6944e-15 0)
(0.875 1.5978e-15 0)
(0.875 -5.48232e-16 0)
(0.875 -4.71164e-16 0)
(0.875 2.06932e-16 0)
(0.875 -2.12469e-16 0)
(0.875 1.76418e-16 0)
(0.875 -8.89643e-17 0)
(0.875 8.01718e-17 0)
(0.875 -1.24323e-16 0)
(0.875 3.74173e-17 0)
(0.875 -6.59073e-18 0)
(0.875 2.85729e-17 0)
(0.875 9.57404e-18 0)
(0.875 -6.71135e-17 0)
(0.875 2.90038e-17 0)
(0.875 -5.74106e-17 0)
(0.875 1.00809e-18 0)
(0.875 2.05028e-18 0)
(0.875 -2.30723e-15 0)
(0.875 -1.39037e-15 0)
(0.925 1.37649e-15 0)
(0.925 1.0179e-16 0)
(0.925 -2.32601e-16 0)
(0.925 1.26618e-16 0)
(0.925 -1.28007e-16 0)
(0.925 1.22354e-16 0)
(0.925 -6.46529e-17 0)
(0.925 3.98847e-17 0)
(0.925 -6.59206e-17 0)
(0.925 3.063e-17 0)
(0.925 -1.20196e-17 0)
(0.925 1.84517e-17 0)
(0.925 5.20365e-18 0)
(0.925 -2.78413e-17 0)
(0.925 2.35783e-17 0)
(0.925 -3.95838e-17 0)
(0.925 1.27495e-17 0)
(0.925 -1.23255e-17 0)
(0.925 -7.48647e-16 0)
(0.925 -1.51834e-16 0)
(0.975 5.14665e-16 0)
(0.975 1.17216e-16 0)
(0.975 -6.54196e-17 0)
(0.975 4.05539e-17 0)
(0.975 -3.89296e-17 0)
(0.975 3.77901e-17 0)
(0.975 -2.54656e-17 0)
(0.975 1.36327e-17 0)
(0.975 -1.79163e-17 0)
(0.975 7.8296e-18 0)
(0.975 -3.96218e-18 0)
(0.975 6.03118e-18 0)
(0.975 1.53244e-19 0)
(0.975 -5.38177e-18 0)
(0.975 6.91424e-18 0)
(0.975 -1.29465e-17 0)
(0.975 5.49648e-18 0)
(0.975 -7.41248e-18 0)
(0.975 -1.00644e-16 0)
(0.975 9.87479e-17 0)
)
;

boundaryField
{
    top
    {
        type            fixedValue;
        value           uniform (1 0 0);
    }
    bottom
    {
        type            fixedValue;
        value           uniform (0 0 0);
    }
    inlet
    {
        type            zeroGradient;
    }
    outlet
    {
        type            zeroGradient;
    }
    frontAndBack
    {
        type            empty;
    }
}


// ************************************************************************* //
