/*--------------------------------*- C++ -*----------------------------------*\
| =========                 |                                                 |
| \\      /  F ield         | OpenFOAM: The Open Source CFD Toolbox           |
|  \\    /   O peration     | Version:  4.1                                   |
|   \\  /    A nd           | Web:      www.OpenFOAM.org                      |
|    \\/     M anipulation  |                                                 |
\*---------------------------------------------------------------------------*/
FoamFile
{
    version     2.0;
    format      ascii;
    class       surfaceScalarField;
    location    "0.4";
    object      phi;
}
// * * * * * * * * * * * * * * * * * * * * * * * * * * * * * * * * * * * * * //

dimensions      [0 3 -1 0 0 0 0];

internalField   nonuniform List<scalar> 
760
(
-1.91471e-05
9.58631e-11
-1.9147e-05
-4.95345e-11
-1.91471e-05
8.81413e-11
-1.9147e-05
-7.03269e-11
-1.91471e-05
6.92265e-11
-1.9147e-05
-6.30916e-11
-1.91471e-05
5.67113e-11
-1.9147e-05
-4.68922e-11
-1.91471e-05
4.00329e-11
-1.91471e-05
-1.81129e-11
-1.91471e-05
1.74407e-11
-1.91471e-05
5.6875e-12
-1.91471e-05
-1.75838e-11
-1.91471e-05
3.08978e-11
-1.9147e-05
-5.88252e-11
-1.91471e-05
6.59753e-11
-1.9147e-05
-7.85032e-11
-1.91471e-05
9.63908e-11
-1.9147e-05
-1.19364e-10
1.32812e-10
-5.11087e-05
2.54619e-10
-5.11087e-05
-6.48956e-11
-5.11088e-05
2.10717e-10
-5.11087e-05
-1.37024e-10
-5.11088e-05
1.55733e-10
-5.11088e-05
-1.33602e-10
-5.11088e-05
1.23534e-10
-5.11088e-05
-9.79399e-11
-5.11088e-05
8.79516e-11
-5.11088e-05
-3.72404e-11
-5.11088e-05
3.69825e-11
-5.11088e-05
1.70938e-11
-5.11088e-05
-4.14322e-11
-5.11088e-05
7.58372e-11
-5.11088e-05
-1.27237e-10
-5.11088e-05
1.52243e-10
-5.11087e-05
-1.84254e-10
-5.11088e-05
2.02127e-10
-5.11087e-05
-2.57461e-10
2.88682e-10
-7.67388e-05
4.3169e-10
-7.67389e-05
-1.05312e-11
-7.6739e-05
3.16544e-10
-7.67389e-05
-1.59289e-10
-7.6739e-05
2.16592e-10
-7.67389e-05
-1.7168e-10
-7.6739e-05
1.63989e-10
-7.67389e-05
-1.27098e-10
-7.6739e-05
1.15339e-10
-7.6739e-05
-4.55487e-11
-7.6739e-05
4.77643e-11
-7.6739e-05
3.01978e-11
-7.6739e-05
-6.15091e-11
-7.6739e-05
1.12042e-10
-7.6739e-05
-1.74818e-10
-7.6739e-05
2.15224e-10
-7.67389e-05
-2.60901e-10
-7.6739e-05
2.65817e-10
-7.67389e-05
-3.32554e-10
3.85742e-10
-9.60382e-05
6.21065e-10
-9.60383e-05
1.0031e-10
-9.60383e-05
4.0108e-10
-9.60383e-05
-1.44467e-10
-9.60384e-05
2.53001e-10
-9.60384e-05
-1.79322e-10
-9.60384e-05
1.78647e-10
-9.60384e-05
-1.36849e-10
-9.60384e-05
1.21734e-10
-9.60384e-05
-4.34424e-11
-9.60384e-05
4.95526e-11
-9.60384e-05
4.53594e-11
-9.60384e-05
-7.74896e-11
-9.60384e-05
1.3853e-10
-9.60384e-05
-2.05114e-10
-9.60384e-05
2.54039e-10
-9.60384e-05
-3.05715e-10
-9.60384e-05
2.94031e-10
-9.60384e-05
-3.4305e-10
4.2492e-10
-0.000109007
8.12281e-10
-0.000109008
2.54421e-10
-0.000109008
4.6017e-10
-0.000109008
-9.91434e-11
-0.000109008
2.64901e-10
-0.000109008
-1.60169e-10
-0.000109008
1.6992e-10
-0.000109008
-1.28467e-10
-0.000109008
1.09868e-10
-0.000109008
-3.20668e-11
-0.000109008
4.35018e-11
-0.000109008
6.16977e-11
-0.000109008
-8.86478e-11
-0.000109008
1.55114e-10
-0.000109008
-2.18929e-10
-0.000109008
2.69936e-10
-0.000109008
-3.21045e-10
-0.000109008
2.90253e-10
-0.000109008
-2.94662e-10
4.1099e-10
-0.000115648
9.92726e-10
-0.000115648
4.36808e-10
-0.000115648
4.92076e-10
-0.000115648
-3.05315e-11
-0.000115648
2.53946e-10
-0.000115648
-1.18944e-10
-0.000115648
1.41047e-10
-0.000115648
-1.04315e-10
-0.000115648
8.31732e-11
-0.000115648
-1.29801e-11
-0.000115648
3.11327e-11
-0.000115648
7.81345e-11
-0.000115648
-9.45666e-11
-0.000115648
1.61853e-10
-0.000115648
-2.17508e-10
-0.000115648
2.64809e-10
-0.000115648
-3.0968e-10
-0.000115648
2.58466e-10
-0.000115648
-1.95583e-10
3.52194e-10
-0.000115959
1.14847e-09
-0.000115959
6.31246e-10
-0.000115959
4.96758e-10
-0.000115959
5.37646e-11
-0.000115959
2.22647e-10
-0.000115959
-6.1102e-11
-0.000115959
9.60432e-11
-0.000115959
-6.75802e-11
-0.000115959
4.55958e-11
-0.000115959
1.1736e-11
-0.000115959
1.44101e-11
-0.000115959
9.3206e-11
-0.000115959
-9.50017e-11
-0.000115959
1.58836e-10
-0.000115959
-2.02335e-10
-0.000115959
2.40999e-10
-0.000115959
-2.7506e-10
-0.000115959
2.03208e-10
-0.000115959
-5.69688e-11
2.59278e-10
-0.000109942
1.26558e-09
-0.000109942
8.20782e-10
-0.000109942
4.75627e-10
-0.000109942
1.45986e-10
-0.000109942
1.74509e-10
-0.000109942
7.50248e-12
-0.000109942
3.95522e-11
-0.000109942
-2.2083e-11
-0.000109942
1.31138e-12
-0.000109942
3.9607e-11
-0.000109942
-4.53128e-12
-0.000109942
1.05417e-10
-0.000109942
-8.9859e-11
-0.000109942
1.46484e-10
-0.000109942
-1.75201e-10
-0.000109942
2.01347e-10
-0.000109942
-2.21307e-10
-0.000109942
1.29418e-10
-0.000109942
1.0751e-10
1.44126e-10
-9.75971e-05
1.33166e-09
-9.75972e-05
9.88627e-10
-9.75972e-05
4.31274e-10
-9.75973e-05
2.38473e-10
-9.75972e-05
1.13878e-10
-9.75973e-05
8.08836e-11
-9.75972e-05
-2.33683e-11
-9.75973e-05
2.79737e-11
-9.75972e-05
-4.55061e-11
-9.75972e-05
6.79493e-11
-9.75972e-05
-2.35999e-11
-9.75972e-05
1.1343e-10
-9.75973e-05
-7.92687e-11
-9.75972e-05
1.25671e-10
-9.75973e-05
-1.38255e-10
-9.75972e-05
1.49219e-10
-9.75973e-05
-1.53174e-10
-9.75972e-05
4.25412e-11
-9.75974e-05
2.82369e-10
1.85629e-11
-7.89247e-05
1.33754e-09
-7.89248e-05
1.11928e-09
-7.89247e-05
3.67249e-10
-7.89248e-05
3.23964e-10
-7.89247e-05
4.57309e-11
-7.89248e-05
1.53164e-10
-7.89247e-05
-8.74857e-11
-7.89248e-05
7.82715e-11
-7.89247e-05
-9.0883e-11
-7.89248e-05
9.41025e-11
-7.89248e-05
-4.09072e-11
-7.89248e-05
1.16227e-10
-7.89248e-05
-6.36856e-11
-7.89247e-05
9.78068e-11
-7.89248e-05
-9.40412e-11
-7.89247e-05
8.8503e-11
-7.89248e-05
-7.59567e-11
-7.89247e-05
-5.13195e-11
-7.89249e-05
4.51332e-10
-1.06625e-10
-5.39248e-05
1.27882e-09
-5.39248e-05
1.19981e-09
-5.39248e-05
2.87908e-10
-5.39248e-05
3.95873e-10
-5.39248e-05
-2.45522e-11
-5.39248e-05
2.188e-10
-5.39248e-05
-1.47639e-10
-5.39248e-05
1.24646e-10
-5.39248e-05
-1.31218e-10
-5.39248e-05
1.15652e-10
-5.39248e-05
-5.49179e-11
-5.39248e-05
1.13235e-10
-5.39248e-05
-4.39935e-11
-5.39248e-05
6.48493e-11
-5.39248e-05
-4.55228e-11
-5.39247e-05
2.35811e-11
-5.39248e-05
4.6265e-12
-5.39247e-05
-1.45313e-10
-5.39249e-05
5.98598e-10
-2.22305e-10
-2.25974e-05
1.15711e-09
-2.25974e-05
1.22117e-09
-2.25973e-05
1.98403e-10
-2.25974e-05
4.48556e-10
-2.25973e-05
-9.14356e-11
-2.25973e-05
2.72789e-10
-2.25973e-05
-1.98981e-10
-2.25973e-05
1.63338e-10
-2.25973e-05
-1.63415e-10
-2.25973e-05
1.30636e-10
-2.25973e-05
-6.45556e-11
-2.25973e-05
1.04409e-10
-2.25973e-05
-2.15797e-11
-2.25973e-05
2.92685e-11
-2.25973e-05
3.92165e-12
-2.25973e-05
-4.07415e-11
-2.25973e-05
8.2587e-11
-2.25973e-05
-2.31927e-10
-2.25974e-05
7.10231e-10
-3.21188e-10
1.50576e-05
9.80863e-10
1.50577e-05
1.1795e-09
1.50578e-05
1.04811e-10
1.50577e-05
4.77561e-10
1.50578e-05
-1.49473e-10
1.50578e-05
3.10836e-10
1.50578e-05
-2.37214e-10
1.50578e-05
1.91192e-10
1.50578e-05
-1.84985e-10
1.50578e-05
1.37713e-10
1.50578e-05
-6.92508e-11
1.50578e-05
9.02916e-11
1.50577e-05
1.64383e-12
1.50578e-05
-6.04479e-12
1.50577e-05
5.05319e-11
1.50578e-05
-9.93614e-11
1.50578e-05
1.51838e-10
1.50578e-05
-3.03325e-10
1.50578e-05
7.75472e-10
-3.97587e-10
5.90405e-05
7.65497e-10
5.90406e-05
1.07703e-09
5.90407e-05
1.4362e-11
5.90407e-05
4.79848e-10
5.90408e-05
-1.93528e-10
5.90408e-05
3.29473e-10
5.90408e-05
-2.58795e-10
5.90408e-05
2.05793e-10
5.90408e-05
-1.94096e-10
5.90408e-05
1.36278e-10
5.90408e-05
-6.89244e-11
5.90408e-05
7.20246e-11
5.90407e-05
2.32919e-11
5.90408e-05
-3.79101e-11
5.90407e-05
9.02399e-11
5.90408e-05
-1.47049e-10
5.90408e-05
2.06403e-10
5.90408e-05
-3.5194e-10
5.90408e-05
7.87783e-10
-4.46847e-10
0.000109352
5.32674e-10
0.000109352
9.22418e-10
0.000109352
-6.43852e-11
0.000109352
4.53929e-10
0.000109352
-2.18992e-10
0.000109352
3.26117e-10
0.000109352
-2.61114e-10
0.000109352
2.05527e-10
0.000109352
-1.89605e-10
0.000109352
1.26495e-10
0.000109352
-6.39209e-11
0.000109352
5.13214e-11
0.000109352
4.06301e-11
0.000109352
-6.3013e-11
0.000109352
1.18788e-10
0.000109352
-1.78675e-10
0.000109352
2.40645e-10
0.000109352
-3.71249e-10
0.000109352
7.454e-10
-4.64647e-10
0.000165992
3.08681e-10
0.000165992
7.30134e-10
0.000165992
-1.21638e-10
0.000165992
3.9992e-10
0.000165992
-2.21951e-10
0.000165992
2.99077e-10
0.000165992
-2.42615e-10
0.000165992
1.89557e-10
0.000165992
-1.71047e-10
0.000165992
1.09222e-10
0.000165992
-5.48915e-11
0.000165992
3.04075e-11
0.000165992
5.08073e-11
0.000165992
-7.80649e-11
0.000165992
1.31907e-10
0.000165992
-1.89443e-10
0.000165992
2.4949e-10
0.000165992
-3.5656e-10
0.000165992
6.51274e-10
-4.46464e-10
0.000228961
1.21843e-10
0.000228961
5.18667e-10
0.000228961
-1.47168e-10
0.000228961
3.19337e-10
0.000228961
-1.99348e-10
0.000228961
2.47572e-10
0.000228961
-2.02786e-10
0.000228961
1.57753e-10
0.000228961
-1.38603e-10
0.000228961
8.56348e-11
0.000228961
-4.27294e-11
0.000228961
1.1876e-11
0.000228961
5.12232e-11
0.000228961
-7.99966e-11
0.000228961
1.25493e-10
0.000228961
-1.75007e-10
0.000228961
2.28539e-10
0.000228961
-3.0553e-10
0.000228962
5.12421e-10
-3.87416e-10
0.000298261
2.34274e-13
0.000298261
3.07059e-10
0.000298261
-1.31532e-10
0.000298261
2.14286e-10
0.000298261
-1.49187e-10
0.000298261
1.7153e-10
0.000298261
-1.42009e-10
0.000298261
1.10901e-10
0.000298261
-9.29868e-11
0.000298261
5.77219e-11
0.000298261
-2.84175e-11
0.000298261
-1.03399e-12
0.000298261
3.96949e-11
0.000298261
-6.57697e-11
0.000298261
9.61305e-11
0.000298261
-1.32186e-10
0.000298261
1.74314e-10
0.000298261
-2.1881e-10
0.000298261
3.38037e-10
-2.83447e-10
0.000373891
-3.18331e-11
0.000373891
1.13469e-10
0.000373891
-6.73965e-11
0.000373891
8.85307e-11
0.000373891
-6.9178e-11
0.000373891
7.25118e-11
0.000373891
-6.1808e-11
0.000373891
4.87359e-11
0.000373891
-3.68792e-11
0.000373891
2.53323e-11
0.000373891
-1.3407e-11
0.000373891
-5.20413e-12
0.000373891
1.53896e-11
0.000373891
-3.2884e-11
0.000373891
4.06268e-11
0.000373891
-5.83544e-11
0.000373891
8.42042e-11
0.000373891
-9.63376e-11
0.000373891
1.40529e-10
-1.31136e-10
0.000455853
0.000455853
0.000455853
0.000455853
0.000455853
0.000455853
0.000455853
0.000455853
0.000455853
0.000455853
0.000455853
0.000455853
0.000455853
0.000455853
0.000455853
0.000455853
0.000455853
0.000455853
0.000455853
)
;

boundaryField
{
    top
    {
        type            calculated;
        value           uniform 0;
    }
    bottom
    {
        type            calculated;
        value           uniform 0;
    }
    inlet
    {
        type            calculated;
        value           nonuniform List<scalar> 
20
(
1.9147e-05
5.11086e-05
7.67386e-05
9.6038e-05
0.000109007
0.000115647
0.000115959
0.000109942
9.7597e-05
7.89246e-05
5.39248e-05
2.25975e-05
-1.50574e-05
-5.90403e-05
-0.000109351
-0.000165992
-0.000228961
-0.00029826
-0.000373891
-0.000455853
)
;
    }
    outlet
    {
        type            calculated;
        value           nonuniform List<scalar> 
20
(
-1.91471e-05
-5.11089e-05
-7.6739e-05
-9.60384e-05
-0.000109008
-0.000115648
-0.000115959
-0.000109942
-9.75972e-05
-7.89248e-05
-5.39248e-05
-2.25973e-05
1.50578e-05
5.90408e-05
0.000109352
0.000165992
0.000228961
0.000298261
0.000373891
0.000455853
)
;
    }
    frontAndBack
    {
        type            empty;
        value           nonuniform 0();
    }
}


// ************************************************************************* //
