/*--------------------------------*- C++ -*----------------------------------*\
| =========                 |                                                 |
| \\      /  F ield         | OpenFOAM: The Open Source CFD Toolbox           |
|  \\    /   O peration     | Version:  4.1                                   |
|   \\  /    A nd           | Web:      www.OpenFOAM.org                      |
|    \\/     M anipulation  |                                                 |
\*---------------------------------------------------------------------------*/
FoamFile
{
    version     2.0;
    format      ascii;
    class       volVectorField;
    location    "0.4";
    object      U;
}
// * * * * * * * * * * * * * * * * * * * * * * * * * * * * * * * * * * * * * //

dimensions      [0 1 -1 0 0 0 0];

internalField   nonuniform List<vector> 
400
(
(-0.38294 4.43906e-08 0)
(-0.38294 -3.0731e-08 0)
(-0.382942 4.33384e-08 0)
(-0.38294 -3.91269e-08 0)
(-0.382942 3.50786e-08 0)
(-0.38294 -3.32748e-08 0)
(-0.382943 2.99116e-08 0)
(-0.382939 -2.36363e-08 0)
(-0.382943 2.06984e-08 0)
(-0.382939 -9.55234e-09 0)
(-0.382944 7.37901e-09 0)
(-0.382939 2.41976e-09 0)
(-0.382944 -9.40559e-09 0)
(-0.382939 1.68412e-08 0)
(-0.382944 -2.97725e-08 0)
(-0.382939 3.40648e-08 0)
(-0.382943 -4.02249e-08 0)
(-0.38294 4.75226e-08 0)
(-0.382942 -6.34796e-08 0)
(-0.382941 6.84861e-08 0)
(-1.02217 1.67146e-07 0)
(-1.02217 -6.89493e-08 0)
(-1.02218 1.48658e-07 0)
(-1.02217 -1.08028e-07 0)
(-1.02218 1.15857e-07 0)
(-1.02217 -1.0108e-07 0)
(-1.02218 9.2562e-08 0)
(-1.02217 -7.48838e-08 0)
(-1.02218 6.61188e-08 0)
(-1.02217 -2.89185e-08 0)
(-1.02218 2.87267e-08 0)
(-1.02217 1.1488e-08 0)
(-1.02218 -2.88179e-08 0)
(-1.02217 5.40713e-08 0)
(-1.02218 -9.43945e-08 0)
(-1.02217 1.10671e-07 0)
(-1.02218 -1.34031e-07 0)
(-1.02217 1.54305e-07 0)
(-1.02218 -1.94723e-07 0)
(-1.02218 2.15443e-07 0)
(-1.53477 3.35815e-07 0)
(-1.53478 -5.08681e-08 0)
(-1.53478 2.64292e-07 0)
(-1.53477 -1.56051e-07 0)
(-1.53479 1.88024e-07 0)
(-1.53477 -1.58032e-07 0)
(-1.53479 1.48301e-07 0)
(-1.53477 -1.1566e-07 0)
(-1.53479 1.05093e-07 0)
(-1.53477 -4.41915e-08 0)
(-1.53479 4.36052e-08 0)
(-1.53477 2.14389e-08 0)
(-1.53479 -5.19657e-08 0)
(-1.53477 9.44287e-08 0)
(-1.53479 -1.5318e-07 0)
(-1.53477 1.87198e-07 0)
(-1.53479 -2.2711e-07 0)
(-1.53477 2.40646e-07 0)
(-1.53478 -3.07484e-07 0)
(-1.53478 3.47814e-07 0)
(-1.92076 5.24282e-07 0)
(-1.92076 3.14593e-08 0)
(-1.92077 3.65015e-07 0)
(-1.92076 -1.60581e-07 0)
(-1.92078 2.42308e-07 0)
(-1.92076 -1.82929e-07 0)
(-1.92078 1.77526e-07 0)
(-1.92075 -1.36985e-07 0)
(-1.92078 1.23364e-07 0)
(-1.92075 -4.69817e-08 0)
(-1.92078 5.04227e-08 0)
(-1.92075 3.79696e-08 0)
(-1.92079 -7.07604e-08 0)
(-1.92075 1.28473e-07 0)
(-1.92078 -1.94519e-07 0)
(-1.92075 2.40825e-07 0)
(-1.92078 -2.91277e-07 0)
(-1.92076 2.88446e-07 0)
(-1.92077 -3.52594e-07 0)
(-1.92077 4.19059e-07 0)
(-2.18015 7.1782e-07 0)
(-2.18015 1.67863e-07 0)
(-2.18016 4.37819e-07 0)
(-2.18015 -1.29096e-07 0)
(-2.18017 2.65725e-07 0)
(-2.18014 -1.766e-07 0)
(-2.18017 1.80028e-07 0)
(-2.18014 -1.37328e-07 0)
(-2.18017 1.20234e-07 0)
(-2.18013 -4.00578e-08 0)
(-2.18018 4.83212e-08 0)
(-2.18013 5.35882e-08 0)
(-2.18018 -8.4554e-08 0)
(-2.18013 1.49594e-07 0)
(-2.18018 -2.16516e-07 0)
(-2.18014 2.68011e-07 0)
(-2.18017 -3.21004e-07 0)
(-2.18014 3.00124e-07 0)
(-2.18016 -3.32778e-07 0)
(-2.18015 4.30851e-07 0)
(-2.31295 9.06784e-07 0)
(-2.31295 3.40143e-07 0)
(-2.31296 4.83406e-07 0)
(-2.31295 -7.02393e-08 0)
(-2.31297 2.65552e-07 0)
(-2.31294 -1.45017e-07 0)
(-2.31297 1.60177e-07 0)
(-2.31293 -1.20151e-07 0)
(-2.31298 9.99775e-08 0)
(-2.31293 -2.41013e-08 0)
(-2.31298 3.85697e-08 0)
(-2.31293 7.04839e-08 0)
(-2.31298 -9.31686e-08 0)
(-2.31293 1.6123e-07 0)
(-2.31298 -2.22341e-07 0)
(-2.31293 2.72663e-07 0)
(-2.31297 -3.21859e-07 0)
(-2.31294 2.80548e-07 0)
(-2.31297 -2.56175e-07 0)
(-2.31295 3.91505e-07 0)
(-2.31917 1.07836e-06 0)
(-2.31918 5.3263e-07 0)
(-2.31919 5.01435e-07 0)
(-2.31917 8.0542e-09 0)
(-2.3192 2.4361e-07 0)
(-2.31916 -9.40338e-08 0)
(-2.3192 1.221e-07 0)
(-2.31916 -8.87351e-08 0)
(-2.31921 6.67999e-08 0)
(-2.31915 -1.49805e-09 0)
(-2.31921 2.33916e-08 0)
(-2.31915 8.66987e-08 0)
(-2.31921 -9.64382e-08 0)
(-2.31915 1.6306e-07 0)
(-2.31921 -2.13671e-07 0)
(-2.31916 2.57492e-07 0)
(-2.3192 -2.97748e-07 0)
(-2.31916 2.3556e-07 0)
(-2.31919 -1.34036e-07 0)
(-2.31918 3.12498e-07 0)
(-2.19884 1.21821e-06 0)
(-2.19884 7.28707e-07 0)
(-2.19885 4.92682e-07 0)
(-2.19883 9.81806e-08 0)
(-2.19886 2.02903e-07 0)
(-2.19882 -2.93118e-08 0)
(-2.19887 7.01205e-08 0)
(-2.19882 -4.65944e-08 0)
(-2.19887 2.48038e-08 0)
(-2.19881 2.55264e-08 0)
(-2.19887 4.94891e-09 0)
(-2.19881 1.00758e-07 0)
(-2.19887 -9.41337e-08 0)
(-2.19881 1.55279e-07 0)
(-2.19887 -1.92063e-07 0)
(-2.19882 2.24977e-07 0)
(-2.19886 -2.52392e-07 0)
(-2.19882 1.69661e-07 0)
(-2.19885 2.12125e-08 0)
(-2.19884 2.05331e-07 0)
(-1.95194 1.31269e-06 0)
(-1.95194 9.11337e-07 0)
(-1.95195 4.59149e-07 0)
(-1.95193 1.92372e-07 0)
(-1.95196 1.47327e-07 0)
(-1.95192 4.3242e-08 0)
(-1.95197 9.09029e-09 0)
(-1.95192 2.27004e-09 0)
(-1.95198 -2.18279e-08 0)
(-1.95191 5.43793e-08 0)
(-1.95198 -1.46615e-08 0)
(-1.95191 1.11201e-07 0)
(-1.95198 -8.62344e-08 0)
(-1.95191 1.3847e-07 0)
(-1.95198 -1.59447e-07 0)
(-1.95192 1.78155e-07 0)
(-1.95197 -1.90088e-07 0)
(-1.95193 8.78211e-08 0)
(-1.95196 1.94901e-07 0)
(-1.95194 8.20136e-08 0)
(-1.57849 1.35057e-06 0)
(-1.57849 1.06412e-06 0)
(-1.5785 4.03966e-07 0)
(-1.57848 2.83124e-07 0)
(-1.57851 8.15862e-08 0)
(-1.57847 1.17634e-07 0)
(-1.57852 -5.57778e-08 0)
(-1.57847 5.35402e-08 0)
(-1.57853 -6.89677e-08 0)
(-1.57846 8.23465e-08 0)
(-1.57853 -3.33758e-08 0)
(-1.57846 1.16816e-07 0)
(-1.57853 -7.29981e-08 0)
(-1.57846 1.13756e-07 0)
(-1.57853 -1.1814e-07 0)
(-1.57847 1.20626e-07 0)
(-1.57852 -1.15882e-07 0)
(-1.57848 -4.22873e-09 0)
(-1.57851 3.70849e-07 0)
(-1.57849 -4.59351e-08 0)
(-1.0785 1.32472e-06 0)
(-1.07849 1.17251e-06 0)
(-1.07851 3.31126e-07 0)
(-1.07848 3.63435e-07 0)
(-1.07851 1.09321e-08 0)
(-1.07847 1.88076e-07 0)
(-1.07852 -1.1921e-07 0)
(-1.07847 1.02904e-07 0)
(-1.07853 -1.12778e-07 0)
(-1.07846 1.06826e-07 0)
(-1.07853 -4.94351e-08 0)
(-1.07846 1.16776e-07 0)
(-1.07853 -5.50747e-08 0)
(-1.07846 8.28176e-08 0)
(-1.07853 -7.0895e-08 0)
(-1.07847 5.65444e-08 0)
(-1.07852 -3.53356e-08 0)
(-1.07848 -1.00001e-07 0)
(-1.07851 5.32664e-07 0)
(-1.07849 -1.68416e-07 0)
(-0.451951 1.23343e-06 0)
(-0.451941 1.22519e-06 0)
(-0.451957 2.45372e-07 0)
(-0.451932 4.27122e-07 0)
(-0.451965 -5.91252e-08 0)
(-0.451924 2.49225e-07 0)
(-0.451972 -1.76131e-07 0)
(-0.451917 1.4634e-07 0)
(-0.451977 -1.49869e-07 0)
(-0.451913 1.2557e-07 0)
(-0.45198 -6.14962e-08 0)
(-0.451913 1.10752e-07 0)
(-0.451979 -3.35897e-08 0)
(-0.451915 4.78775e-08 0)
(-0.451975 -2.08854e-08 0)
(-0.451921 -9.46381e-09 0)
(-0.451967 4.56288e-08 0)
(-0.45193 -1.92262e-07 0)
(-0.451956 6.65125e-07 0)
(-0.451943 -2.77209e-07 0)
(0.301148 1.08161e-06 0)
(0.30116 1.21542e-06 0)
(0.301144 1.52272e-07 0)
(0.301169 4.69071e-07 0)
(0.301137 -1.23017e-07 0)
(0.301177 2.96367e-07 0)
(0.301131 -2.21904e-07 0)
(0.301183 1.80342e-07 0)
(0.301126 -1.77415e-07 0)
(0.301187 1.36874e-07 0)
(0.301124 -6.87164e-08 0)
(0.301187 9.89925e-08 0)
(0.301125 -1.01967e-08 0)
(0.301185 1.16385e-08 0)
(0.301129 2.8299e-08 0)
(0.301179 -7.2384e-08 0)
(0.301137 1.20893e-07 0)
(0.30117 -2.73199e-07 0)
(0.301147 7.55578e-07 0)
(0.301159 -3.65927e-07 0)
(1.18081 8.81245e-07 0)
(1.18082 1.14219e-06 0)
(1.1808 5.83831e-08 0)
(1.18083 4.85464e-07 0)
(1.1808 -1.75396e-07 0)
(1.18084 3.25585e-07 0)
(1.18079 -2.52569e-07 0)
(1.18084 2.02109e-07 0)
(1.18079 -1.93243e-07 0)
(1.18084 1.39738e-07 0)
(1.18079 -7.07868e-08 0)
(1.18084 8.23417e-08 0)
(1.18079 1.29253e-08 0)
(1.18084 -2.28385e-08 0)
(1.18079 7.27144e-08 0)
(1.18084 -1.27002e-07 0)
(1.1808 1.84367e-07 0)
(1.18083 -3.34936e-07 0)
(1.18081 7.95214e-07 0)
(1.18082 -4.29594e-07 0)
(2.18703 6.50958e-07 0)
(2.18704 1.01108e-06 0)
(2.18703 -2.85373e-08 0)
(2.18705 4.74153e-07 0)
(2.18702 -2.114e-07 0)
(2.18706 3.33918e-07 0)
(2.18702 -2.65107e-07 0)
(2.18706 2.0966e-07 0)
(2.18702 -1.95878e-07 0)
(2.18707 1.33937e-07 0)
(2.18701 -6.78443e-08 0)
(2.18707 6.22419e-08 0)
(2.18702 3.32324e-08 0)
(2.18706 -5.23292e-08 0)
(2.18702 1.08221e-07 0)
(2.18706 -1.68125e-07 0)
(2.18703 2.30225e-07 0)
(2.18705 -3.70322e-07 0)
(2.18703 7.7998e-07 0)
(2.18704 -4.64041e-07 0)
(3.31983 4.14965e-07 0)
(3.31984 8.33898e-07 0)
(3.31983 -9.94454e-08 0)
(3.31985 4.34425e-07 0)
(3.31983 -2.26884e-07 0)
(3.31986 3.19259e-07 0)
(3.31982 -2.57468e-07 0)
(3.31986 2.01816e-07 0)
(3.31982 -1.84505e-07 0)
(3.31986 1.20015e-07 0)
(3.31982 -6.0421e-08 0)
(3.31986 4.06262e-08 0)
(3.31982 4.78944e-08 0)
(3.31986 -7.35814e-08 0)
(3.31982 1.30545e-07 0)
(3.31986 -1.90799e-07 0)
(3.31983 2.53151e-07 0)
(3.31985 -3.73697e-07 0)
(3.31984 7.10683e-07 0)
(3.31984 -4.65006e-07 0)
(4.57922 2.02057e-07 0)
(4.57923 6.26381e-07 0)
(4.57922 -1.42826e-07 0)
(4.57924 3.66358e-07 0)
(4.57922 -2.17495e-07 0)
(4.57924 2.79488e-07 0)
(4.57921 -2.28082e-07 0)
(4.57924 1.77798e-07 0)
(4.57921 -1.58538e-07 0)
(4.57925 9.96784e-08 0)
(4.57921 -4.90891e-08 0)
(4.57925 2.03224e-08 0)
(4.57921 5.37155e-08 0)
(4.57924 -8.2728e-08 0)
(4.57922 1.35261e-07 0)
(4.57924 -1.90308e-07 0)
(4.57922 2.47934e-07 0)
(4.57923 -3.41011e-07 0)
(4.57923 5.90822e-07 0)
(4.57923 -4.27074e-07 0)
(5.96521 4.07641e-08 0)
(5.96522 4.07926e-07 0)
(5.96521 -1.48949e-07 0)
(5.96522 2.69178e-07 0)
(5.96521 -1.79666e-07 0)
(5.96523 2.12823e-07 0)
(5.96521 -1.75067e-07 0)
(5.96523 1.35794e-07 0)
(5.96521 -1.17441e-07 0)
(5.96523 6.97805e-08 0)
(5.96521 -3.55721e-08 0)
(5.96523 2.27457e-09 0)
(5.96521 4.8284e-08 0)
(5.96523 -7.71072e-08 0)
(5.96521 1.15095e-07 0)
(5.96523 -1.58414e-07 0)
(5.96521 2.06924e-07 0)
(5.96522 -2.66368e-07 0)
(5.96522 4.28902e-07 0)
(5.96522 -3.39899e-07 0)
(7.47782 -3.33439e-08 0)
(7.47782 2.00391e-07 0)
(7.47782 -1.05603e-07 0)
(7.47783 1.51657e-07 0)
(7.47782 -1.12091e-07 0)
(7.47783 1.22451e-07 0)
(7.47782 -1.02786e-07 0)
(7.47783 8.10606e-08 0)
(7.47782 -6.39663e-08 0)
(7.47783 4.28776e-08 0)
(7.47781 -1.93227e-08 0)
(7.47783 -4.77858e-09 0)
(7.47781 2.88415e-08 0)
(7.47783 -5.15911e-08 0)
(7.47782 7.17187e-08 0)
(7.47783 -9.90826e-08 0)
(7.47782 1.32929e-07 0)
(7.47782 -1.60184e-07 0)
(7.47782 2.35217e-07 0)
(7.47782 -2.12027e-07 0)
(9.11706 -2.31342e-08 0)
(9.11706 5.21298e-08 0)
(9.11706 -3.64747e-08 0)
(9.11706 4.3901e-08 0)
(9.11706 -3.56363e-08 0)
(9.11706 3.67697e-08 0)
(9.11706 -3.16756e-08 0)
(9.11706 2.40098e-08 0)
(9.11706 -1.99679e-08 0)
(9.11706 1.16381e-08 0)
(9.11706 -7.10807e-09 0)
(9.11706 -3.71139e-09 0)
(9.11706 8.6655e-09 0)
(9.11706 -1.71323e-08 0)
(9.11706 2.21919e-08 0)
(9.11706 -3.15573e-08 0)
(9.11706 4.3886e-08 0)
(9.11706 -4.88943e-08 0)
(9.11706 7.06416e-08 0)
(9.11706 -6.60642e-08 0)
)
;

boundaryField
{
    top
    {
        type            fixedValue;
        value           uniform (10 0 0);
    }
    bottom
    {
        type            fixedValue;
        value           uniform (0 0 0);
    }
    inlet
    {
        type            zeroGradient;
    }
    outlet
    {
        type            zeroGradient;
    }
    frontAndBack
    {
        type            empty;
    }
}


// ************************************************************************* //
