/*--------------------------------*- C++ -*----------------------------------*\
| =========                 |                                                 |
| \\      /  F ield         | OpenFOAM: The Open Source CFD Toolbox           |
|  \\    /   O peration     | Version:  4.1                                   |
|   \\  /    A nd           | Web:      www.OpenFOAM.org                      |
|    \\/     M anipulation  |                                                 |
\*---------------------------------------------------------------------------*/
FoamFile
{
    version     2.0;
    format      ascii;
    class       volScalarField;
    location    "1.3";
    object      p;
}
// * * * * * * * * * * * * * * * * * * * * * * * * * * * * * * * * * * * * * //

dimensions      [0 2 -2 0 0 0 0];

internalField   nonuniform List<scalar> 
400
(
1.21043e-07
1.33395e-07
1.15193e-07
1.21835e-07
1.08469e-07
1.11741e-07
1.0146e-07
1.02171e-07
9.40774e-08
9.28934e-08
8.64798e-08
8.37662e-08
7.87879e-08
7.46832e-08
7.10979e-08
6.55587e-08
6.35255e-08
5.64699e-08
5.66351e-08
5.45189e-08
1.20606e-07
1.32947e-07
1.15159e-07
1.21827e-07
1.0847e-07
1.1174e-07
1.0146e-07
1.02171e-07
9.4078e-08
9.2893e-08
8.64801e-08
8.3766e-08
7.87879e-08
7.46833e-08
7.10977e-08
6.55586e-08
6.35207e-08
5.6473e-08
5.63359e-08
5.42019e-08
1.2036e-07
1.3263e-07
1.15119e-07
1.21825e-07
1.08465e-07
1.11743e-07
1.01458e-07
1.02173e-07
9.40763e-08
9.28943e-08
8.64792e-08
8.37665e-08
7.87877e-08
7.46831e-08
7.10981e-08
6.55574e-08
6.35182e-08
5.64704e-08
5.6101e-08
5.39853e-08
1.20284e-07
1.32482e-07
1.15081e-07
1.21826e-07
1.08459e-07
1.11747e-07
1.01454e-07
1.02175e-07
9.40744e-08
9.28957e-08
8.64782e-08
8.37672e-08
7.87875e-08
7.46829e-08
7.10986e-08
6.55561e-08
6.35167e-08
5.64629e-08
5.59658e-08
5.38748e-08
1.20309e-07
1.32451e-07
1.15045e-07
1.21826e-07
1.08455e-07
1.1175e-07
1.01452e-07
1.02177e-07
9.40728e-08
9.28969e-08
8.64774e-08
8.37677e-08
7.87873e-08
7.46828e-08
7.1099e-08
6.55551e-08
6.35157e-08
5.6453e-08
5.59085e-08
5.38364e-08
1.20401e-07
1.32498e-07
1.15009e-07
1.21826e-07
1.08451e-07
1.11752e-07
1.0145e-07
1.02179e-07
9.40716e-08
9.28978e-08
8.64768e-08
8.3768e-08
7.87872e-08
7.46827e-08
7.10994e-08
6.55543e-08
6.35151e-08
5.64417e-08
5.59137e-08
5.38543e-08
1.2054e-07
1.32601e-07
1.14972e-07
1.21826e-07
1.08448e-07
1.11754e-07
1.01448e-07
1.0218e-07
9.40706e-08
9.28985e-08
8.64763e-08
8.37683e-08
7.87871e-08
7.46826e-08
7.10997e-08
6.55537e-08
6.35149e-08
5.64301e-08
5.59713e-08
5.39189e-08
1.20704e-07
1.32734e-07
1.14934e-07
1.21825e-07
1.08446e-07
1.11755e-07
1.01447e-07
1.02181e-07
9.40699e-08
9.28991e-08
8.64759e-08
8.37686e-08
7.8787e-08
7.46825e-08
7.11e-08
6.55533e-08
6.35149e-08
5.6419e-08
5.60687e-08
5.40175e-08
1.20869e-07
1.32875e-07
1.14895e-07
1.21823e-07
1.08444e-07
1.11756e-07
1.01447e-07
1.02182e-07
9.40694e-08
9.28994e-08
8.64756e-08
8.37687e-08
7.8787e-08
7.46825e-08
7.11002e-08
6.55531e-08
6.35151e-08
5.64094e-08
5.61909e-08
5.41346e-08
1.21015e-07
1.33001e-07
1.14854e-07
1.2182e-07
1.08442e-07
1.11757e-07
1.01446e-07
1.02182e-07
9.40692e-08
9.28996e-08
8.64755e-08
8.37688e-08
7.8787e-08
7.46824e-08
7.11003e-08
6.5553e-08
6.35152e-08
5.64019e-08
5.63218e-08
5.42544e-08
1.21123e-07
1.33093e-07
1.14814e-07
1.21817e-07
1.08442e-07
1.11757e-07
1.01446e-07
1.02182e-07
9.40692e-08
9.28996e-08
8.64756e-08
8.37687e-08
7.8787e-08
7.46824e-08
7.11004e-08
6.55532e-08
6.3515e-08
5.63968e-08
5.64454e-08
5.43615e-08
1.2118e-07
1.33138e-07
1.14773e-07
1.21811e-07
1.08441e-07
1.11756e-07
1.01447e-07
1.02182e-07
9.40695e-08
9.28993e-08
8.64757e-08
8.37686e-08
7.87871e-08
7.46824e-08
7.11004e-08
6.55534e-08
6.35144e-08
5.63944e-08
5.65472e-08
5.44422e-08
1.21177e-07
1.33126e-07
1.14733e-07
1.21805e-07
1.08442e-07
1.11755e-07
1.01448e-07
1.02181e-07
9.40701e-08
9.28989e-08
8.6476e-08
8.37684e-08
7.87872e-08
7.46825e-08
7.11003e-08
6.55539e-08
6.35133e-08
5.63944e-08
5.66149e-08
5.44848e-08
1.21111e-07
1.33057e-07
1.14696e-07
1.21797e-07
1.08443e-07
1.11753e-07
1.01449e-07
1.0218e-07
9.40709e-08
9.28983e-08
8.64765e-08
8.37682e-08
7.87873e-08
7.46825e-08
7.11002e-08
6.55544e-08
6.35115e-08
5.63966e-08
5.66397e-08
5.44817e-08
1.20986e-07
1.32935e-07
1.14663e-07
1.21789e-07
1.08444e-07
1.11751e-07
1.0145e-07
1.02179e-07
9.40719e-08
9.28975e-08
8.6477e-08
8.37678e-08
7.87874e-08
7.46826e-08
7.11e-08
6.5555e-08
6.35091e-08
5.64005e-08
5.66167e-08
5.44288e-08
1.20813e-07
1.32772e-07
1.14634e-07
1.2178e-07
1.08446e-07
1.11748e-07
1.01452e-07
1.02177e-07
9.40732e-08
9.28966e-08
8.64777e-08
8.37674e-08
7.87876e-08
7.46826e-08
7.10997e-08
6.55557e-08
6.3506e-08
5.64055e-08
5.65471e-08
5.43279e-08
1.20607e-07
1.32587e-07
1.14611e-07
1.2177e-07
1.08449e-07
1.11745e-07
1.01455e-07
1.02175e-07
9.40748e-08
9.28954e-08
8.64786e-08
8.37669e-08
7.87878e-08
7.46827e-08
7.10992e-08
6.55564e-08
6.35022e-08
5.6411e-08
5.64366e-08
5.41841e-08
1.20399e-07
1.32414e-07
1.14594e-07
1.21759e-07
1.08453e-07
1.11741e-07
1.01458e-07
1.02172e-07
9.40767e-08
9.28939e-08
8.64796e-08
8.37662e-08
7.87881e-08
7.46829e-08
7.10987e-08
6.55572e-08
6.34977e-08
5.64166e-08
5.62982e-08
5.40092e-08
1.20238e-07
1.32286e-07
1.14582e-07
1.21749e-07
1.08456e-07
1.11738e-07
1.01461e-07
1.0217e-07
9.40784e-08
9.28926e-08
8.64805e-08
8.37657e-08
7.87883e-08
7.4683e-08
7.10981e-08
6.55578e-08
6.3493e-08
5.64216e-08
5.61409e-08
5.3821e-08
1.2021e-07
1.32229e-07
1.14568e-07
1.21746e-07
1.08454e-07
1.11739e-07
1.0146e-07
1.02171e-07
9.40778e-08
9.28931e-08
8.64801e-08
8.37659e-08
7.87881e-08
7.4683e-08
7.10982e-08
6.55571e-08
6.34897e-08
5.6424e-08
5.59917e-08
5.36737e-08
)
;

boundaryField
{
    top
    {
        type            zeroGradient;
    }
    bottom
    {
        type            zeroGradient;
    }
    inlet
    {
        type            fixedValue;
        value           uniform 0;
    }
    outlet
    {
        type            fixedValue;
        value           uniform 0;
    }
    frontAndBack
    {
        type            empty;
    }
}


// ************************************************************************* //
