/*--------------------------------*- C++ -*----------------------------------*\
| =========                 |                                                 |
| \\      /  F ield         | OpenFOAM: The Open Source CFD Toolbox           |
|  \\    /   O peration     | Version:  4.1                                   |
|   \\  /    A nd           | Web:      www.OpenFOAM.org                      |
|    \\/     M anipulation  |                                                 |
\*---------------------------------------------------------------------------*/
FoamFile
{
    version     2.0;
    format      ascii;
    class       surfaceScalarField;
    location    "1.3";
    object      phi;
}
// * * * * * * * * * * * * * * * * * * * * * * * * * * * * * * * * * * * * * //

dimensions      [0 3 -1 0 0 0 0];

internalField   nonuniform List<scalar> 
760
(
1.24978e-06
-1.87989e-13
1.24978e-06
-1.27191e-13
1.24978e-06
6.72206e-16
1.24978e-06
-8.21486e-15
1.24978e-06
5.36313e-15
1.24978e-06
-4.57167e-15
1.24978e-06
3.66811e-15
1.24978e-06
-2.94724e-15
1.24978e-06
2.31362e-15
1.24978e-06
-1.75231e-15
1.24978e-06
1.24048e-15
1.24978e-06
-7.594e-16
1.24978e-06
2.92255e-16
1.24978e-06
1.73347e-16
1.24978e-06
-6.76455e-16
1.24978e-06
1.09019e-15
1.24978e-06
-2.67684e-15
1.24978e-06
4.04265e-15
1.24978e-06
-7.61932e-14
-1.14242e-13
3.74935e-06
-5.67256e-13
3.74935e-06
-4.46433e-13
3.74935e-06
-1.12766e-14
3.74935e-06
-2.01639e-14
3.74935e-06
1.11989e-14
3.74935e-06
-9.8954e-15
3.74935e-06
7.87305e-15
3.74935e-06
-6.33941e-15
3.74935e-06
4.97668e-15
3.74935e-06
-3.77018e-15
3.74935e-06
2.6688e-15
3.74935e-06
-1.63245e-15
3.74935e-06
6.24845e-16
3.74935e-06
3.75521e-16
3.74935e-06
-1.49506e-15
3.74935e-06
2.21293e-15
3.74935e-06
-7.38163e-15
3.74935e-06
1.10493e-14
3.74935e-06
-2.81822e-13
-3.68159e-13
6.24893e-06
-1.02514e-12
6.24893e-06
-8.81623e-13
6.24893e-06
-3.71055e-14
6.24893e-06
-3.1209e-14
6.24893e-06
1.43452e-14
6.24893e-06
-1.32932e-14
6.24893e-06
1.04608e-14
6.24893e-06
-8.44525e-15
6.24893e-06
6.62857e-15
6.24893e-06
-5.02159e-15
6.24893e-06
3.55272e-15
6.24893e-06
-2.1688e-15
6.24893e-06
8.21253e-16
6.24893e-06
5.09772e-16
6.24893e-06
-2.06515e-15
6.24893e-06
2.73612e-15
6.24893e-06
-1.26902e-14
6.24893e-06
1.91277e-14
6.24893e-06
-5.80021e-13
-7.03112e-13
8.74854e-06
-1.49269e-12
8.74854e-06
-1.35747e-12
8.74854e-06
-7.2086e-14
8.74854e-06
-4.08489e-14
8.74854e-06
1.51564e-14
8.74854e-06
-1.49534e-14
8.74854e-06
1.16024e-14
8.74854e-06
-9.39653e-15
8.74854e-06
7.37128e-15
8.74854e-06
-5.58224e-15
8.74854e-06
3.94458e-15
8.74854e-06
-2.39953e-15
8.74854e-06
8.92533e-16
8.74854e-06
5.86045e-16
8.74854e-06
-2.40663e-15
8.74854e-06
2.75637e-15
8.74854e-06
-1.81919e-14
8.74854e-06
2.76698e-14
8.74854e-06
-9.26714e-13
-1.07513e-12
1.12482e-05
-1.91051e-12
1.12482e-05
-1.80768e-12
1.12482e-05
-1.11164e-13
1.12482e-05
-4.85386e-14
1.12482e-05
1.40153e-14
1.12482e-05
-1.50791e-14
1.12482e-05
1.14832e-14
1.12482e-05
-9.3368e-15
1.12482e-05
7.31693e-15
1.12482e-05
-5.53627e-15
1.12482e-05
3.90365e-15
1.12482e-05
-2.36099e-15
1.12482e-05
8.53304e-16
1.12482e-05
6.12656e-16
1.12482e-05
-2.53931e-15
1.12482e-05
2.37046e-15
1.12482e-05
-2.34398e-14
1.12482e-05
3.60783e-14
1.12482e-05
-1.27956e-12
-1.44215e-12
1.37479e-05
-2.23312e-12
1.37479e-05
-2.17961e-12
1.37479e-05
-1.49392e-13
1.37479e-05
-5.37814e-14
1.37479e-05
1.13231e-14
1.37479e-05
-1.38893e-14
1.37479e-05
1.03014e-14
1.37479e-05
-8.42111e-15
1.37479e-05
6.5874e-15
1.37479e-05
-4.97601e-15
1.37479e-05
3.49567e-15
1.37479e-05
-2.09429e-15
1.37479e-05
7.21167e-16
1.37479e-05
5.96764e-16
1.37479e-05
-2.4844e-15
1.37479e-05
1.67308e-15
1.37479e-05
-2.79984e-14
1.37479e-05
4.37211e-14
1.37479e-05
-1.60026e-12
-1.76629e-12
1.62476e-05
-2.42914e-12
1.62476e-05
-2.43496e-12
1.62476e-05
-1.82355e-13
1.62476e-05
-5.61964e-14
1.62476e-05
7.48766e-15
1.62476e-05
-1.16179e-14
1.62476e-05
8.26686e-15
1.62476e-05
-6.81434e-15
1.62476e-05
5.31295e-15
1.62476e-05
-4.00066e-15
1.62476e-05
2.79182e-15
1.62476e-05
-1.64451e-15
1.62476e-05
5.16088e-16
1.62476e-05
5.44687e-16
1.62476e-05
-2.26519e-15
1.62476e-05
7.55609e-16
1.62476e-05
-3.14825e-14
1.62476e-05
4.99442e-14
1.62476e-05
-1.85725e-12
-2.0166e-12
1.87474e-05
-2.48298e-12
1.87474e-05
-2.55174e-12
1.87474e-05
-2.06555e-13
1.87474e-05
-5.55802e-14
1.87474e-05
2.91146e-15
1.87474e-05
-8.51157e-15
1.87474e-05
5.59672e-15
1.87474e-05
-4.68863e-15
1.87474e-05
3.63e-15
1.87474e-05
-2.71458e-15
1.87474e-05
1.86731e-15
1.87474e-05
-1.05951e-15
1.87474e-05
2.59569e-16
1.87474e-05
4.62336e-16
1.87474e-05
-1.90763e-15
1.87474e-05
-2.9531e-16
1.87474e-05
-3.35911e-14
1.87474e-05
5.41236e-14
1.87474e-05
-2.02736e-12
-2.17076e-12
2.12473e-05
-2.39407e-12
2.12473e-05
-2.52386e-12
2.12473e-05
-2.19705e-13
2.12473e-05
-5.195e-14
2.12473e-05
-2.01933e-15
2.12473e-05
-4.82769e-15
2.12473e-05
2.51333e-15
2.12473e-05
-2.22122e-15
2.12473e-05
1.67924e-15
2.12473e-05
-1.22561e-15
2.12473e-05
8.00003e-16
2.12473e-05
-3.88953e-16
2.12473e-05
-2.60847e-17
2.12473e-05
3.55604e-16
2.12473e-05
-1.44085e-15
2.12473e-05
-1.3981e-15
2.12473e-05
-3.41349e-14
2.12473e-05
5.57463e-14
2.12473e-05
-2.09705e-12
-2.21642e-12
2.37472e-05
-2.17609e-12
2.37472e-05
-2.36059e-12
2.37472e-05
-2.20904e-13
2.37472e-05
-4.55687e-14
2.37472e-05
-6.94317e-15
2.37472e-05
-8.32363e-16
2.37472e-05
-7.58824e-16
2.37472e-05
4.07869e-16
2.37472e-05
-3.96367e-16
2.37472e-05
3.56587e-16
2.37472e-05
-3.30983e-16
2.37472e-05
3.1684e-16
2.37472e-05
-3.18547e-16
2.37472e-05
2.30746e-16
2.37472e-05
-8.97389e-16
2.37472e-05
-2.47635e-15
2.37472e-05
-3.30555e-14
2.37472e-05
5.45023e-14
2.37472e-05
-2.06284e-12
-2.15167e-12
2.62472e-05
-1.8549e-12
2.62472e-05
-2.08446e-12
2.62472e-05
-2.10647e-13
2.62472e-05
-3.69458e-14
2.62472e-05
-1.15289e-14
2.62472e-05
3.20195e-15
2.62472e-05
-3.99574e-15
2.62472e-05
3.01801e-15
2.62472e-05
-2.45353e-15
2.62472e-05
1.92218e-15
2.62472e-05
-1.44653e-15
2.62472e-05
1.00784e-15
2.62472e-05
-5.96155e-16
2.62472e-05
9.47689e-17
2.62472e-05
-3.13309e-16
2.62472e-05
-3.45866e-15
2.62472e-05
-3.04342e-14
2.62472e-05
5.03644e-14
2.62472e-05
-1.93104e-12
-1.98487e-12
2.87473e-05
-1.46566e-12
2.87473e-05
-1.72842e-12
2.87473e-05
-1.90691e-13
2.87473e-05
-2.68135e-14
2.87473e-05
-1.54783e-14
2.87473e-05
6.9992e-15
2.87473e-05
-6.97649e-15
2.87473e-05
5.43026e-15
2.87473e-05
-4.35056e-15
2.87473e-05
3.36276e-15
2.87473e-05
-2.46888e-15
2.87473e-05
1.63534e-15
2.87473e-05
-8.38531e-16
2.87473e-05
-4.42924e-17
2.87473e-05
2.71924e-16
2.87473e-05
-4.27859e-15
2.87473e-05
-2.64906e-14
2.87473e-05
4.36423e-14
2.87473e-05
-1.71672e-12
-1.73361e-12
3.12474e-05
-1.04954e-12
3.12474e-05
-1.33226e-12
3.12474e-05
-1.63739e-13
3.12474e-05
-1.60802e-14
3.12474e-05
-1.85254e-14
3.12474e-05
1.02829e-14
3.12474e-05
-9.48555e-15
3.12474e-05
7.46933e-15
3.12474e-05
-5.94917e-15
3.12474e-05
4.5729e-15
3.12474e-05
-3.32285e-15
3.12474e-05
2.15277e-15
3.12474e-05
-1.02715e-15
3.12474e-05
-1.77176e-16
3.12474e-05
8.15837e-16
3.12474e-05
-4.87477e-15
3.12474e-05
-2.15693e-14
3.12474e-05
3.49831e-14
3.12474e-05
-1.44222e-12
-1.42316e-12
3.37476e-05
-6.49126e-13
3.37476e-05
-9.37779e-13
3.37476e-05
-1.33039e-13
3.37476e-05
-5.76269e-15
3.37476e-05
-2.04326e-14
3.37476e-05
1.27794e-14
3.37476e-05
-1.13149e-14
3.37476e-05
8.96566e-15
3.37476e-05
-7.11615e-15
3.37476e-05
5.45152e-15
3.37476e-05
-3.93684e-15
3.37476e-05
2.51651e-15
3.37476e-05
-1.14576e-15
3.37476e-05
-2.93226e-16
3.37476e-05
1.27349e-15
3.37476e-05
-5.19173e-15
3.37476e-05
-1.61158e-14
3.37476e-05
2.53299e-14
3.37476e-05
-1.1346e-12
-1.08388e-12
3.62479e-05
-3.04812e-13
3.62479e-05
-5.84693e-13
3.62479e-05
-1.01833e-13
3.62479e-05
3.09032e-15
3.62479e-05
-2.09849e-14
3.62479e-05
1.42215e-14
3.62479e-05
-1.22657e-14
3.62479e-05
9.75704e-15
3.62479e-05
-7.72483e-15
3.62479e-05
5.90305e-15
3.62479e-05
-4.24387e-15
3.62479e-05
2.68653e-15
3.62479e-05
-1.18073e-15
3.62479e-05
-3.80425e-16
3.62479e-05
1.59819e-15
3.62479e-05
-5.18106e-15
3.62479e-05
-1.06451e-14
3.62479e-05
1.58019e-14
3.62479e-05
-8.23465e-13
-7.48782e-13
3.87482e-05
-4.84398e-14
3.87482e-05
-3.03946e-13
3.87482e-05
-7.28821e-14
3.87482e-05
9.48252e-15
3.87482e-05
-1.99816e-14
3.87482e-05
1.4352e-14
3.87482e-05
-1.21499e-14
3.87482e-05
9.6902e-15
3.87482e-05
-7.65623e-15
3.87482e-05
5.83844e-15
3.87482e-05
-4.18216e-15
3.87482e-05
2.62682e-15
3.87482e-05
-1.12119e-15
3.87482e-05
-4.25512e-16
3.87482e-05
1.74246e-15
3.87482e-05
-4.80335e-15
3.87482e-05
-5.70223e-15
3.87482e-05
7.55957e-15
3.87482e-05
-5.37004e-13
-4.49403e-13
4.12485e-05
9.87271e-14
4.12485e-05
-1.15234e-13
4.12485e-05
-4.79136e-14
4.12485e-05
1.25396e-14
4.12485e-05
-1.72294e-14
4.12485e-05
1.2928e-14
4.12485e-05
-1.07917e-14
4.12485e-05
8.62247e-15
4.12485e-05
-6.80049e-15
4.12485e-05
5.17616e-15
4.12485e-05
-3.696e-15
4.12485e-05
2.30586e-15
4.12485e-05
-9.59173e-16
4.12485e-05
-4.14179e-16
4.12485e-05
1.65897e-15
4.12485e-05
-4.03048e-15
4.12485e-05
-1.82338e-15
4.12485e-05
1.58385e-15
4.12485e-05
-3.00219e-13
-2.13738e-13
4.37489e-05
1.35025e-13
4.37489e-05
-1.78361e-14
4.37489e-05
-2.74067e-14
4.37489e-05
1.15673e-14
4.37489e-05
-1.25352e-14
4.37489e-05
9.72308e-15
4.37489e-05
-8.02833e-15
4.37489e-05
6.42236e-15
4.37489e-05
-5.05715e-15
4.37489e-05
3.84252e-15
4.37489e-05
-2.73584e-15
4.37489e-05
1.69656e-15
4.37489e-05
-6.89397e-16
4.37489e-05
-3.31467e-16
4.37489e-05
1.30157e-15
4.37489e-05
-2.84827e-15
4.37489e-05
5.03736e-16
4.37489e-05
-1.46812e-15
4.37489e-05
-1.28935e-13
-6.00351e-14
4.62493e-05
7.55351e-14
4.62493e-05
6.73999e-15
4.62493e-05
-1.03722e-14
4.62493e-05
6.06251e-15
4.62493e-05
-5.69709e-15
4.62493e-05
4.52807e-15
4.62493e-05
-3.70808e-15
4.62493e-05
2.96865e-15
4.62493e-05
-2.33436e-15
4.62493e-05
1.77096e-15
4.62493e-05
-1.25778e-15
4.62493e-05
7.75946e-16
4.62493e-05
-3.08897e-16
4.62493e-05
-1.62139e-16
4.62493e-05
6.25918e-16
4.62493e-05
-1.25779e-15
4.62493e-05
8.6814e-16
4.62493e-05
-1.49474e-15
4.62493e-05
-3.05836e-14
2.69255e-15
4.87498e-05
4.87498e-05
4.87498e-05
4.87498e-05
4.87498e-05
4.87498e-05
4.87498e-05
4.87498e-05
4.87498e-05
4.87498e-05
4.87498e-05
4.87498e-05
4.87498e-05
4.87498e-05
4.87498e-05
4.87498e-05
4.87498e-05
4.87498e-05
4.87498e-05
)
;

boundaryField
{
    top
    {
        type            calculated;
        value           uniform 0;
    }
    bottom
    {
        type            calculated;
        value           uniform 0;
    }
    inlet
    {
        type            calculated;
        value           nonuniform List<scalar> 
20
(
-1.24978e-06
-3.74935e-06
-6.24893e-06
-8.74854e-06
-1.12482e-05
-1.37479e-05
-1.62476e-05
-1.87474e-05
-2.12473e-05
-2.37472e-05
-2.62472e-05
-2.87473e-05
-3.12474e-05
-3.37476e-05
-3.62479e-05
-3.87482e-05
-4.12485e-05
-4.37489e-05
-4.62493e-05
-4.87498e-05
)
;
    }
    outlet
    {
        type            calculated;
        value           nonuniform List<scalar> 
20
(
1.24978e-06
3.74935e-06
6.24893e-06
8.74854e-06
1.12482e-05
1.37479e-05
1.62476e-05
1.87474e-05
2.12473e-05
2.37472e-05
2.62472e-05
2.87473e-05
3.12474e-05
3.37476e-05
3.62479e-05
3.87482e-05
4.12485e-05
4.37489e-05
4.62493e-05
4.87498e-05
)
;
    }
    frontAndBack
    {
        type            empty;
        value           nonuniform 0();
    }
}


// ************************************************************************* //
