/*--------------------------------*- C++ -*----------------------------------*\
| =========                 |                                                 |
| \\      /  F ield         | OpenFOAM: The Open Source CFD Toolbox           |
|  \\    /   O peration     | Version:  4.1                                   |
|   \\  /    A nd           | Web:      www.OpenFOAM.org                      |
|    \\/     M anipulation  |                                                 |
\*---------------------------------------------------------------------------*/
FoamFile
{
    version     2.0;
    format      ascii;
    class       volVectorField;
    location    "1.3";
    object      U;
}
// * * * * * * * * * * * * * * * * * * * * * * * * * * * * * * * * * * * * * //

dimensions      [0 1 -1 0 0 0 0];

internalField   nonuniform List<vector> 
400
(
(0.0249956 -8.33768e-11 0)
(0.0249956 -5.07493e-11 0)
(0.0249956 1.48398e-12 0)
(0.0249956 -4.08109e-12 0)
(0.0249956 2.82476e-12 0)
(0.0249956 -2.38092e-12 0)
(0.0249956 1.91622e-12 0)
(0.0249956 -1.53867e-12 0)
(0.0249956 1.20817e-12 0)
(0.0249956 -9.15289e-13 0)
(0.0249956 6.4832e-13 0)
(0.0249956 -3.97451e-13 0)
(0.0249956 1.53918e-13 0)
(0.0249956 8.92766e-14 0)
(0.0249956 -3.48714e-13 0)
(0.0249956 5.76609e-13 0)
(0.0249956 -1.26154e-12 0)
(0.0249956 1.72283e-12 0)
(0.0249956 -2.8496e-11 0)
(0.0249956 -4.77791e-11 0)
(0.0749869 -3.51641e-10 0)
(0.0749869 -2.55885e-10 0)
(0.0749869 -2.10135e-12 0)
(0.0749869 -1.39276e-11 0)
(0.0749869 8.57882e-12 0)
(0.0749869 -7.40404e-12 0)
(0.0749869 5.92294e-12 0)
(0.0749869 -4.76288e-12 0)
(0.0749869 3.73918e-12 0)
(0.0749869 -2.83247e-12 0)
(0.0749869 2.00531e-12 0)
(0.0749869 -1.22747e-12 0)
(0.0749869 4.71729e-13 0)
(0.0749869 2.8047e-13 0)
(0.0749869 -1.10411e-12 0)
(0.0749869 1.72534e-12 0)
(0.0749869 -4.75522e-12 0)
(0.0749869 7.31705e-12 0)
(0.0749869 -1.56094e-10 0)
(0.0749869 -2.18911e-10 0)
(0.124979 -7.80111e-10 0)
(0.124979 -6.41668e-10 0)
(0.124979 -2.14658e-11 0)
(0.124979 -2.57265e-11 0)
(0.124979 1.32073e-11 0)
(0.124979 -1.1893e-11 0)
(0.124979 9.42131e-12 0)
(0.124979 -7.59441e-12 0)
(0.124979 5.96189e-12 0)
(0.124979 -4.51698e-12 0)
(0.124979 3.19723e-12 0)
(0.124979 -1.9547e-12 0)
(0.124979 7.45869e-13 0)
(0.124979 4.51844e-13 0)
(0.124979 -1.81607e-12 0)
(0.124979 2.57059e-12 0)
(0.124979 -9.87115e-12 0)
(0.124979 1.46576e-11 0)
(0.124979 -4.11975e-10 0)
(0.124979 -5.18114e-10 0)
(0.174971 -1.26166e-09 0)
(0.174971 -1.11521e-09 0)
(0.174971 -5.27447e-11 0)
(0.174971 -3.6422e-11 0)
(0.174971 1.52958e-11 0)
(0.174971 -1.4535e-11 0)
(0.174971 1.13729e-11 0)
(0.174971 -9.19381e-12 0)
(0.174971 7.21495e-12 0)
(0.174971 -5.46541e-12 0)
(0.174971 3.8652e-12 0)
(0.174971 -2.35664e-12 0)
(0.174971 8.86654e-13 0)
(0.174971 5.61366e-13 0)
(0.174971 -2.29061e-12 0)
(0.174971 2.86172e-12 0)
(0.174971 -1.54338e-11 0)
(0.174971 2.32946e-11 0)
(0.174971 -7.4534e-10 0)
(0.174971 -8.83843e-10 0)
(0.224964 -1.71937e-09 0)
(0.224964 -1.59488e-09 0)
(0.224964 -9.11635e-11 0)
(0.224964 -4.5264e-11 0)
(0.224964 1.50469e-11 0)
(0.224964 -1.53904e-11 0)
(0.224964 1.18479e-11 0)
(0.224964 -9.61184e-12 0)
(0.224964 7.53745e-12 0)
(0.224964 -5.70646e-12 0)
(0.224964 4.02917e-12 0)
(0.224964 -2.44561e-12 0)
(0.224964 8.99682e-13 0)
(0.224964 6.11376e-13 0)
(0.224964 -2.52494e-12 0)
(0.224964 2.65694e-12 0)
(0.224964 -2.0939e-11 0)
(0.224964 3.19201e-11 0)
(0.224964 -1.10615e-09 0)
(0.224964 -1.26447e-09 0)
(0.274957 -2.09917e-09 0)
(0.274957 -2.01754e-09 0)
(0.274957 -1.31057e-10 0)
(0.274957 -5.18203e-11 0)
(0.274957 1.30101e-11 0)
(0.274957 -1.47867e-11 0)
(0.274957 1.11342e-11 0)
(0.274957 -9.07435e-12 0)
(0.274957 7.10629e-12 0)
(0.274957 -5.37357e-12 0)
(0.274957 3.78344e-12 0)
(0.274957 -2.27964e-12 0)
(0.274957 8.0825e-13 0)
(0.274957 6.1458e-13 0)
(0.274957 -2.55621e-12 0)
(0.274957 2.08829e-12 0)
(0.274957 -2.59391e-11 0)
(0.274957 4.01093e-11 0)
(0.274957 -1.4517e-09 0)
(0.274958 -1.61861e-09 0)
(0.324952 -2.36422e-09 0)
(0.324952 -2.33866e-09 0)
(0.324952 -1.67682e-10 0)
(0.324952 -5.57173e-11 0)
(0.324952 9.63928e-12 0)
(0.324952 -1.29917e-11 0)
(0.324952 9.4692e-12 0)
(0.324952 -7.76816e-12 0)
(0.324952 6.06874e-12 0)
(0.324952 -4.57861e-12 0)
(0.324952 3.208e-12 0)
(0.324952 -1.90901e-12 0)
(0.324952 6.34122e-13 0)
(0.324952 5.78969e-13 0)
(0.324952 -2.41239e-12 0)
(0.324952 1.2578e-12 0)
(0.324952 -3.00434e-11 0)
(0.324952 4.72098e-11 0)
(0.324952 -1.74727e-09 0)
(0.324952 -1.91237e-09 0)
(0.374948 -2.49119e-09 0)
(0.374948 -2.52827e-09 0)
(0.374948 -1.97017e-10 0)
(0.374948 -5.66438e-11 0)
(0.374948 5.33514e-12 0)
(0.374948 -1.02406e-11 0)
(0.374948 7.0624e-12 0)
(0.374948 -5.85866e-12 0)
(0.374948 4.55571e-12 0)
(0.374948 -3.4216e-12 0)
(0.374948 2.37484e-12 0)
(0.374948 -1.3795e-12 0)
(0.374948 3.9785e-13 0)
(0.374948 5.10356e-13 0)
(0.374948 -2.11723e-12 0)
(0.374948 2.53081e-13 0)
(0.374948 -3.29007e-11 0)
(0.374948 5.25715e-11 0)
(0.374948 -1.96534e-09 0)
(0.374948 -2.11891e-09 0)
(0.424946 -2.47209e-09 0)
(0.424946 -2.57242e-09 0)
(0.424946 -2.16117e-10 0)
(0.424946 -5.44901e-11 0)
(0.424946 4.88179e-13 0)
(0.424946 -6.78068e-12 0)
(0.424946 4.13021e-12 0)
(0.424946 -3.51779e-12 0)
(0.424946 2.70366e-12 0)
(0.424946 -2.00708e-12 0)
(0.424946 1.35943e-12 0)
(0.424946 -7.39293e-13 0)
(0.424946 1.21197e-13 0)
(0.424946 4.1435e-13 0)
(0.424946 -1.69744e-12 0)
(0.424946 -8.43057e-13 0)
(0.424946 -3.42585e-11 0)
(0.424946 5.55964e-11 0)
(0.424946 -2.08736e-09 0)
(0.424946 -2.22062e-09 0)
(0.474944 -2.31379e-09 0)
(0.474944 -2.47298e-09 0)
(0.474944 -2.23359e-10 0)
(0.474944 -4.93912e-11 0)
(0.474944 -4.5263e-12 0)
(0.474944 -2.87385e-12 0)
(0.474944 8.96373e-13 0)
(0.474944 -9.24468e-13 0)
(0.474944 6.54689e-13 0)
(0.474944 -4.44042e-13 0)
(0.474944 2.40492e-13 0)
(0.474944 -3.85608e-14 0)
(0.474944 -1.73376e-13 0)
(0.474944 2.96918e-13 0)
(0.474944 -1.18373e-12 0)
(0.474944 -1.95173e-12 0)
(0.474944 -3.39886e-11 0)
(0.474944 5.58486e-11 0)
(0.474944 -2.10475e-09 0)
(0.474944 -2.21029e-09 0)
(0.524944 -2.03667e-09 0)
(0.524944 -2.24646e-09 0)
(0.524944 -2.1855e-10 0)
(0.524944 -4.17363e-11 0)
(0.524944 -9.36028e-12 0)
(0.524944 1.20955e-12 0)
(0.524944 -2.41386e-12 0)
(0.524944 1.74016e-12 0)
(0.524944 -1.44737e-12 0)
(0.524944 1.15717e-12 0)
(0.524944 -9.02412e-13 0)
(0.524944 6.72201e-13 0)
(0.524944 -4.63674e-13 0)
(0.524944 1.64625e-13 0)
(0.524944 -6.1049e-13 0)
(0.524944 -2.99899e-12 0)
(0.524944 -3.21017e-11 0)
(0.524944 5.31402e-11 0)
(0.524944 -2.0191e-09 0)
(0.524944 -2.09132e-09 0)
(0.574946 -1.67202e-09 0)
(0.574946 -1.9214e-09 0)
(0.574946 -2.02873e-10 0)
(0.574946 -3.21551e-11 0)
(0.574946 -1.36985e-11 0)
(0.574946 5.19428e-12 0)
(0.574946 -5.5772e-12 0)
(0.574946 4.29559e-12 0)
(0.574946 -3.45944e-12 0)
(0.574946 2.68697e-12 0)
(0.574946 -1.99047e-12 0)
(0.574946 1.34335e-12 0)
(0.574946 -7.28514e-13 0)
(0.574946 2.49325e-14 0)
(0.574946 -1.55675e-14 0)
(0.574946 -3.91586e-12 0)
(0.574946 -2.875e-11 0)
(0.574946 4.76037e-11 0)
(0.574946 -1.84142e-09 0)
(0.574946 -1.87699e-09 0)
(0.624948 -1.259e-09 0)
(0.624948 -1.53523e-09 0)
(0.624948 -1.78647e-10 0)
(0.624948 -2.14828e-11 0)
(0.624948 -1.72588e-11 0)
(0.624948 8.80285e-12 0)
(0.624948 -8.37453e-12 0)
(0.624948 6.56393e-12 0)
(0.624948 -5.24086e-12 0)
(0.624948 4.03789e-12 0)
(0.624948 -2.94679e-12 0)
(0.624948 1.92696e-12 0)
(0.624948 -9.48294e-13 0)
(0.624948 -1.13534e-13 0)
(0.624948 5.59885e-13 0)
(0.624948 -4.63826e-12 0)
(0.624948 -2.42202e-11 0)
(0.624948 3.9721e-11 0)
(0.624948 -1.59093e-09 0)
(0.624948 -1.58926e-09 0)
(0.674952 -8.40502e-10 0)
(0.674952 -1.12983e-09 0)
(0.674952 -1.48974e-10 0)
(0.674952 -1.06995e-11 0)
(0.674952 -1.97914e-11 0)
(0.674952 1.17598e-11 0)
(0.674952 -1.0594e-11 0)
(0.674952 8.3726e-12 0)
(0.674952 -6.65574e-12 0)
(0.674952 5.10655e-12 0)
(0.674952 -3.69787e-12 0)
(0.674952 2.37786e-12 0)
(0.674952 -1.10557e-12 0)
(0.674952 -2.40836e-13 0)
(0.674952 1.07204e-12 0)
(0.674952 -5.1077e-12 0)
(0.674952 -1.89144e-11 0)
(0.674952 3.03063e-11 0)
(0.674952 -1.29289e-09 0)
(0.674952 -1.25657e-09 0)
(0.724958 -4.59208e-10 0)
(0.724957 -7.47362e-10 0)
(0.724957 -1.17239e-10 0)
(0.724957 -8.50786e-13 0)
(0.724957 -2.10779e-11 0)
(0.724957 1.37988e-11 0)
(0.724957 -1.20358e-11 0)
(0.724957 9.55859e-12 0)
(0.724957 -7.57641e-12 0)
(0.724957 5.79631e-12 0)
(0.724957 -4.17561e-12 0)
(0.724957 2.65494e-12 0)
(0.724957 -1.18568e-12 0)
(0.724957 -3.45819e-13 0)
(0.724957 1.47561e-12 0)
(0.724957 -5.27312e-12 0)
(0.724957 -1.33195e-11 0)
(0.724957 2.04221e-11 0)
(0.724957 -9.76462e-10 0)
(0.724957 -9.11419e-10 0)
(0.774964 -1.52243e-10 0)
(0.774964 -4.24341e-10 0)
(0.774964 -8.65906e-11 0)
(0.774964 7.03077e-12 0)
(0.774964 -2.0919e-11 0)
(0.774964 1.46624e-11 0)
(0.774964 -1.25106e-11 0)
(0.774964 9.9674e-12 0)
(0.774964 -7.88253e-12 0)
(0.774964 6.01673e-12 0)
(0.774964 -4.31693e-12 0)
(0.774964 2.72093e-12 0)
(0.774964 -1.17662e-12 0)
(0.774964 -4.16061e-13 0)
(0.774964 1.72417e-12 0)
(0.774964 -5.0913e-12 0)
(0.774964 -7.97183e-12 0)
(0.774964 1.12499e-11 0)
(0.774964 -6.71188e-10 0)
(0.774964 -5.86772e-10 0)
(0.824971 5.16026e-11 0)
(0.824971 -1.87759e-10 0)
(0.824971 -5.92754e-11 0)
(0.824971 1.19459e-11 0)
(0.824971 -1.90677e-11 0)
(0.824971 1.40596e-11 0)
(0.824971 -1.18033e-11 0)
(0.824971 9.42425e-12 0)
(0.824971 -7.43857e-12 0)
(0.824971 5.66645e-12 0)
(0.824971 -4.05159e-12 0)
(0.824971 2.53494e-12 0)
(0.824971 -1.06606e-12 0)
(0.824971 -4.36451e-13 0)
(0.824971 1.76474e-12 0)
(0.824971 -4.51625e-12 0)
(0.824971 -3.42515e-12 0)
(0.824971 3.93751e-12 0)
(0.824971 -4.04422e-10 0)
(0.824971 -3.1352e-10 0)
(0.874979 1.39537e-10 0)
(0.874979 -4.67865e-11 0)
(0.874979 -3.62986e-11 0)
(0.874979 1.28855e-11 0)
(0.874979 -1.51966e-11 0)
(0.874979 1.16367e-11 0)
(0.874979 -9.64995e-12 0)
(0.874979 7.71632e-12 0)
(0.874979 -6.08023e-12 0)
(0.874979 4.62337e-12 0)
(0.874979 -3.29583e-12 0)
(0.874979 2.04901e-12 0)
(0.874979 -8.40811e-13 0)
(0.874979 -3.86875e-13 0)
(0.874979 1.53197e-12 0)
(0.874979 -3.50053e-12 0)
(0.874979 -2.73724e-13 0)
(0.874979 -6.94073e-13 0)
(0.874979 -1.97159e-10 0)
(0.874979 -1.16153e-10 0)
(0.924987 1.19892e-10 0)
(0.924987 7.80369e-12 0)
(0.924987 -1.7565e-11 0)
(0.924987 9.48051e-12 0)
(0.924987 -9.26877e-12 0)
(0.924987 7.31323e-12 0)
(0.924987 -6.00586e-12 0)
(0.924987 4.80719e-12 0)
(0.924987 -3.78216e-12 0)
(0.924987 2.87112e-12 0)
(0.924987 -2.04113e-12 0)
(0.924987 1.26173e-12 0)
(0.924987 -5.06253e-13 0)
(0.924987 -2.57335e-13 0)
(0.924987 9.99106e-13 0)
(0.924987 -2.07482e-12 0)
(0.924987 1.06237e-12 0)
(0.924987 -1.99391e-12 0)
(0.924987 -6.40849e-11 0)
(0.924987 -1.06094e-11 0)
(0.974996 4.46069e-11 0)
(0.974996 9.23679e-12 0)
(0.974996 -4.78024e-12 0)
(0.974996 3.30414e-12 0)
(0.974996 -2.94795e-12 0)
(0.974996 2.36431e-12 0)
(0.974996 -1.9303e-12 0)
(0.974996 1.54618e-12 0)
(0.974996 -1.21542e-12 0)
(0.974996 9.21816e-13 0)
(0.974996 -6.54367e-13 0)
(0.974996 4.03245e-13 0)
(0.974996 -1.59755e-13 0)
(0.974996 -8.5469e-14 0)
(0.974996 3.29813e-13 0)
(0.974996 -6.46752e-13 0)
(0.974996 5.736e-13 0)
(0.974996 -1.09858e-12 0)
(0.974996 -8.54557e-12 0)
(0.974996 9.47307e-12 0)
)
;

boundaryField
{
    top
    {
        type            fixedValue;
        value           uniform (1 0 0);
    }
    bottom
    {
        type            fixedValue;
        value           uniform (0 0 0);
    }
    inlet
    {
        type            zeroGradient;
    }
    outlet
    {
        type            zeroGradient;
    }
    frontAndBack
    {
        type            empty;
    }
}


// ************************************************************************* //
