/*--------------------------------*- C++ -*----------------------------------*\
| =========                 |                                                 |
| \\      /  F ield         | OpenFOAM: The Open Source CFD Toolbox           |
|  \\    /   O peration     | Version:  4.1                                   |
|   \\  /    A nd           | Web:      www.OpenFOAM.org                      |
|    \\/     M anipulation  |                                                 |
\*---------------------------------------------------------------------------*/
FoamFile
{
    version     2.0;
    format      ascii;
    class       surfaceScalarField;
    location    "1.1";
    object      phi;
}
// * * * * * * * * * * * * * * * * * * * * * * * * * * * * * * * * * * * * * //

dimensions      [0 3 -1 0 0 0 0];

internalField   nonuniform List<scalar> 
760
(
3.16603e-05
-2.28806e-11
3.16603e-05
-2.07183e-11
3.16603e-05
-5.71096e-12
3.16603e-05
-1.29047e-12
3.16603e-05
-1.15682e-12
3.16603e-05
-3.57177e-12
3.16603e-05
-1.37176e-12
3.16603e-05
-7.5613e-12
3.16603e-05
-1.79897e-12
3.16603e-05
-1.22608e-11
3.16603e-05
-3.15621e-12
3.16603e-05
-1.55392e-11
3.16603e-05
-6.11449e-12
3.16603e-05
-1.60613e-11
3.16603e-05
-9.79067e-12
3.16603e-05
-1.36795e-11
3.16603e-05
-1.25333e-11
3.16603e-05
-8.51957e-12
3.16603e-05
-1.60004e-11
-2.81602e-11
8.86482e-05
-6.23014e-11
8.86482e-05
-6.0237e-11
8.86482e-05
-1.52276e-11
8.86482e-05
-4.19789e-12
8.86482e-05
-1.79915e-12
8.86482e-05
-7.12956e-12
8.86482e-05
-2.45325e-12
8.86482e-05
-1.42096e-11
8.86482e-05
-4.23477e-12
8.86482e-05
-2.25008e-11
8.86482e-05
-7.96964e-12
8.86482e-05
-2.81603e-11
8.86482e-05
-1.45684e-11
8.86482e-05
-2.88591e-11
8.86482e-05
-2.18774e-11
8.86482e-05
-2.47463e-11
8.86482e-05
-2.63038e-11
8.86482e-05
-1.48717e-11
8.86482e-05
-4.10432e-11
-6.8916e-11
0.000139304
-1.03074e-10
0.000139304
-1.05445e-10
0.000139304
-2.73021e-11
0.000139304
-8.15673e-12
0.000139304
-2.42768e-12
0.000139304
-1.13284e-11
0.000139304
-3.97967e-12
0.000139304
-2.13759e-11
0.000139304
-8.29026e-12
0.000139304
-3.29173e-11
0.000139304
-1.57372e-11
0.000139304
-4.06978e-11
0.000139304
-2.69434e-11
0.000139304
-4.16511e-11
0.000139304
-3.79046e-11
0.000139304
-3.65741e-11
0.000139304
-4.26513e-11
0.000139304
-2.2211e-11
0.000139304
-7.02697e-11
-1.10244e-10
0.000183627
-1.3577e-10
0.000183627
-1.44032e-10
0.000183627
-3.87726e-11
0.000183627
-1.25161e-11
0.000183627
-3.02468e-12
0.000183627
-1.58131e-11
0.000183627
-6.10433e-12
0.000183627
-2.85676e-11
0.000183627
-1.38875e-11
0.000183627
-4.28933e-11
0.000183627
-2.59461e-11
0.000183627
-5.25221e-11
0.000183627
-4.21583e-11
0.000183627
-5.39135e-11
0.000183627
-5.63222e-11
0.000183627
-4.86996e-11
0.000183627
-5.98746e-11
0.000183627
-3.06588e-11
0.000183627
-9.64498e-11
-1.43557e-10
0.000221617
-1.5411e-10
0.000221617
-1.67237e-10
0.000221617
-4.69719e-11
0.000221617
-1.62658e-11
0.000221617
-3.40237e-12
0.000221617
-2.02742e-11
0.000221617
-8.49814e-12
0.000221617
-3.56224e-11
0.000221617
-2.01477e-11
0.000221617
-5.24467e-11
0.000221617
-3.71349e-11
0.000221617
-6.37661e-11
0.000221617
-5.83708e-11
0.000221617
-6.57854e-11
0.000221617
-7.52815e-11
0.000221617
-6.10829e-11
0.000221617
-7.65744e-11
0.000221617
-4.06235e-11
0.000221617
-1.15184e-10
-1.63928e-10
0.000253276
-1.54519e-10
0.000253276
-1.69396e-10
0.000253276
-4.95276e-11
0.000253276
-1.85195e-11
0.000253276
-3.30021e-12
0.000253276
-2.42061e-11
0.000253276
-1.07743e-11
0.000253276
-4.18281e-11
0.000253276
-2.62184e-11
0.000253276
-6.06437e-11
0.000253276
-4.789e-11
0.000253276
-7.33151e-11
0.000253276
-7.36584e-11
0.000253276
-7.60531e-11
0.000253276
-9.2616e-11
0.000253276
-7.24575e-11
0.000253276
-9.07675e-11
0.000253276
-5.15229e-11
0.000253276
-1.23369e-10
-1.67817e-10
0.000278603
-1.36514e-10
0.000278603
-1.48878e-10
0.000278603
-4.52497e-11
0.000278603
-1.87088e-11
0.000278603
-2.58139e-12
0.000278603
-2.73591e-11
0.000278603
-1.26826e-11
0.000278603
-4.68561e-11
0.000278603
-3.15317e-11
0.000278603
-6.70683e-11
0.000278603
-5.72841e-11
0.000278603
-8.06562e-11
0.000278603
-8.68012e-11
0.000278603
-8.41013e-11
0.000278603
-1.07022e-10
0.000278603
-8.20779e-11
0.000278603
-1.01363e-10
0.000278603
-6.29204e-11
0.000278603
-1.20269e-10
-1.54581e-10
0.000297598
-1.02158e-10
0.000297598
-1.07685e-10
0.000297598
-3.42981e-11
0.000297598
-1.67203e-11
0.000297598
-1.29735e-12
0.000297598
-2.96564e-11
0.000297598
-1.41639e-11
0.000297598
-5.06001e-11
0.000297598
-3.58577e-11
0.000297598
-7.16094e-11
0.000297598
-6.48953e-11
0.000297598
-8.56632e-11
0.000297598
-9.72239e-11
0.000297598
-8.97408e-11
0.000297598
-1.17919e-10
0.000297598
-8.95862e-11
0.000297598
-1.08012e-10
0.000297598
-7.43335e-11
0.000297598
-1.06935e-10
-1.25954e-10
0.000310262
-5.56545e-11
0.000310261
-5.10012e-11
0.000310261
-1.81669e-11
0.000310261
-1.2891e-11
0.000310261
3.67966e-13
0.000310261
-3.11015e-11
0.000310261
-1.51952e-11
0.000310261
-5.3019e-11
0.000310261
-3.90457e-11
0.000310261
-7.42287e-11
0.000310261
-7.04456e-11
0.000310261
-8.82897e-11
0.000310261
-1.04565e-10
0.000310261
-9.28481e-11
0.000310261
-1.25009e-10
0.000310261
-9.46441e-11
0.000310261
-1.10738e-10
0.000310261
-8.49382e-11
0.000310261
-8.5613e-11
-8.55929e-11
0.000316593
-2.64034e-12
0.000316593
1.37536e-11
0.000316593
6.0995e-13
0.000316593
-7.9374e-12
0.000316593
2.12605e-12
0.000316593
-3.17471e-11
0.000316593
-1.57839e-11
0.000316593
-5.41072e-11
0.000316593
-4.10075e-11
0.000316593
-7.49361e-11
0.000316593
-7.37689e-11
0.000316593
-8.85531e-11
0.000316593
-1.08626e-10
0.000316593
-9.33691e-11
0.000316593
-1.28196e-10
0.000316593
-9.69673e-11
0.000316593
-1.09848e-10
0.000316593
-9.36797e-11
0.000316593
-5.92982e-11
-3.8482e-11
0.000316593
5.04836e-11
0.000316593
7.79827e-11
0.000316593
1.89655e-11
0.000316593
-2.78757e-12
0.000316593
3.65189e-12
0.000316593
-3.16603e-11
0.000316593
-1.59363e-11
0.000316593
-5.38666e-11
0.000316593
-4.16775e-11
0.000316593
-7.37538e-11
0.000316593
-7.4757e-11
0.000316593
-8.64891e-11
0.000316593
-1.09307e-10
0.000316593
-9.12792e-11
0.000316593
-1.27508e-10
0.000316593
-9.63156e-11
0.000316593
-1.05793e-10
0.000316593
-9.94014e-11
0.000316593
-3.13493e-11
9.70901e-12
0.000310262
9.73e-11
0.000310261
1.33121e-10
0.000310261
3.39132e-11
0.000310261
1.63681e-12
0.000310261
4.66058e-12
0.000310261
-3.08936e-11
0.000310261
-1.56451e-11
0.000310261
-5.22952e-11
0.000310261
-4.10042e-11
0.000310261
-7.07044e-11
0.000310261
-7.33497e-11
0.000310261
-8.21426e-11
0.000310261
-1.06586e-10
0.000310261
-8.65852e-11
0.000310261
-1.23048e-10
0.000310261
-9.25288e-11
0.000310261
-9.90717e-11
0.000310261
-1.01038e-10
0.000310261
-5.13306e-12
5.33129e-11
0.000297598
1.32128e-10
0.000297598
1.71841e-10
0.000297598
4.31503e-11
0.000297598
4.63587e-12
0.000297598
4.9827e-12
0.000297598
-2.94612e-11
0.000297598
-1.48862e-11
0.000297598
-4.9383e-11
0.000297598
-3.89549e-11
0.000297598
-6.58129e-11
0.000297598
-6.95398e-11
0.000297598
-7.55736e-11
0.000297598
-1.00518e-10
0.000297598
-7.9344e-11
0.000297598
-1.14986e-10
0.000297598
-8.55743e-11
0.000297598
-9.01448e-11
0.000297598
-9.7817e-11
0.000297598
1.63204e-11
8.73412e-11
0.000278603
1.50703e-10
0.000278603
1.8911e-10
0.000278603
4.55319e-11
0.000278603
5.88324e-12
0.000278603
4.6015e-12
0.000278603
-2.73348e-11
0.000278603
-1.36374e-11
0.000278603
-4.51282e-11
0.000278603
-3.5547e-11
0.000278603
-5.91364e-11
0.000278603
-6.34088e-11
0.000278603
-6.69051e-11
0.000278603
-9.12731e-11
0.000278603
-6.97254e-11
0.000278603
-1.03574e-10
0.000278603
-7.56244e-11
0.000278603
-7.94079e-11
0.000278603
-8.94682e-11
0.000278603
3.06313e-11
1.08072e-10
0.000253276
1.50901e-10
0.000253276
1.83156e-10
0.000253276
4.13151e-11
0.000253276
5.49122e-12
0.000253276
3.68111e-12
0.000253276
-2.44428e-11
0.000253276
-1.18596e-11
0.000253276
-3.95283e-11
0.000253276
-3.08229e-11
0.000253276
-5.07502e-11
0.000253276
-5.50966e-11
0.000253276
-5.63033e-11
0.000253276
-7.9102e-11
0.000253276
-5.79862e-11
0.000253276
-8.9132e-11
0.000253276
-6.30394e-11
0.000253276
-6.71455e-11
0.000253276
-7.63256e-11
0.000253276
3.65038e-11
1.13608e-10
0.000221617
1.33165e-10
0.000221617
1.55866e-10
0.000221617
3.20881e-11
0.000221617
3.9154e-12
0.000221617
2.44958e-12
0.000221617
-2.07711e-11
0.000221617
-9.66377e-12
0.000221617
-3.27505e-11
0.000221617
-2.50871e-11
0.000221617
-4.10205e-11
0.000221617
-4.5094e-11
0.000221617
-4.43549e-11
0.000221617
-6.46671e-11
0.000221617
-4.49028e-11
0.000221617
-7.23923e-11
0.000221617
-4.87801e-11
0.000221617
-5.38748e-11
0.000221617
-5.96786e-11
0.000221617
3.38226e-11
1.04027e-10
0.000183627
1.01016e-10
0.000183627
1.13253e-10
0.000183627
2.04418e-11
0.000183627
1.76635e-12
0.000183627
1.17594e-12
0.000183627
-1.65291e-11
0.000183627
-7.31318e-12
0.000183627
-2.53025e-11
0.000183627
-1.8966e-11
0.000183627
-3.07578e-11
0.000183627
-3.4406e-11
0.000183627
-3.21516e-11
0.000183627
-4.9324e-11
0.000183627
-3.17848e-11
0.000183627
-5.48524e-11
0.000183627
-3.43887e-11
0.000183627
-4.06409e-11
0.000183627
-4.17578e-11
0.000183627
2.40297e-11
8.17335e-11
0.000139304
6.08267e-11
0.000139304
6.44233e-11
0.000139304
9.46454e-12
0.000139304
-1.9121e-14
0.000139304
1.9149e-13
0.000139304
-1.142e-11
0.000139304
-4.83765e-12
0.000139304
-1.699e-11
0.000139304
-1.2524e-11
0.000139304
-2.00376e-11
0.000139304
-2.29812e-11
0.000139304
-2.01928e-11
0.000139304
-3.29456e-11
0.000139304
-1.94643e-11
0.000139304
-3.64221e-11
0.000139304
-2.09477e-11
0.000139304
-2.71782e-11
0.000139304
-2.46824e-11
0.000139304
1.09541e-11
5.10494e-11
8.86482e-05
2.19762e-11
8.86482e-05
2.22103e-11
8.86482e-05
2.13338e-12
8.86482e-05
-1.04856e-12
8.86482e-05
-2.59534e-13
8.86482e-05
-6.19102e-12
8.86482e-05
-2.62798e-12
8.86482e-05
-8.92504e-12
8.86482e-05
-6.71518e-12
8.86482e-05
-1.02292e-11
8.86482e-05
-1.24104e-11
8.86482e-05
-9.95187e-12
8.86482e-05
-1.77364e-11
8.86482e-05
-9.39253e-12
8.86482e-05
-1.95361e-11
8.86482e-05
-1.00227e-11
8.86482e-05
-1.50763e-11
8.86482e-05
-1.10249e-11
8.86483e-05
1.78711e-14
1.90567e-11
3.16603e-05
3.16603e-05
3.16603e-05
3.16603e-05
3.16603e-05
3.16603e-05
3.16603e-05
3.16603e-05
3.16603e-05
3.16603e-05
3.16603e-05
3.16603e-05
3.16603e-05
3.16603e-05
3.16603e-05
3.16603e-05
3.16603e-05
3.16603e-05
3.16603e-05
)
;

boundaryField
{
    top
    {
        type            calculated;
        value           uniform 0;
    }
    bottom
    {
        type            calculated;
        value           uniform 0;
    }
    inlet
    {
        type            calculated;
        value           nonuniform List<scalar> 
20
(
-3.16603e-05
-8.86482e-05
-0.000139304
-0.000183627
-0.000221617
-0.000253276
-0.000278603
-0.000297598
-0.000310262
-0.000316593
-0.000316593
-0.000310262
-0.000297598
-0.000278603
-0.000253276
-0.000221617
-0.000183627
-0.000139304
-8.86482e-05
-3.16603e-05
)
;
    }
    outlet
    {
        type            calculated;
        value           nonuniform List<scalar> 
20
(
3.16603e-05
8.86483e-05
0.000139304
0.000183627
0.000221617
0.000253276
0.000278603
0.000297598
0.000310261
0.000316593
0.000316593
0.000310261
0.000297598
0.000278603
0.000253276
0.000221618
0.000183627
0.000139304
8.86483e-05
3.16603e-05
)
;
    }
    frontAndBack
    {
        type            empty;
        value           nonuniform 0();
    }
}


// ************************************************************************* //
