/*--------------------------------*- C++ -*----------------------------------*\
| =========                 |                                                 |
| \\      /  F ield         | OpenFOAM: The Open Source CFD Toolbox           |
|  \\    /   O peration     | Version:  4.1                                   |
|   \\  /    A nd           | Web:      www.OpenFOAM.org                      |
|    \\/     M anipulation  |                                                 |
\*---------------------------------------------------------------------------*/
FoamFile
{
    version     2.0;
    format      ascii;
    class       volVectorField;
    location    "1.1";
    object      U;
}
// * * * * * * * * * * * * * * * * * * * * * * * * * * * * * * * * * * * * * //

dimensions      [0 1 -1 0 0 0 0];

internalField   nonuniform List<vector> 
400
(
(0.633206 -1.06479e-08 0)
(0.633206 -9.01285e-09 0)
(0.633206 -2.25743e-09 0)
(0.633206 -5.33712e-10 0)
(0.633206 -5.17628e-10 0)
(0.633206 -1.58574e-09 0)
(0.633206 -6.06718e-10 0)
(0.633206 -3.38399e-09 0)
(0.633206 -7.16249e-10 0)
(0.633206 -5.51223e-09 0)
(0.633206 -1.22701e-09 0)
(0.633206 -7.00259e-09 0)
(0.633206 -2.48181e-09 0)
(0.633206 -7.23895e-09 0)
(0.633206 -4.11826e-09 0)
(0.633206 -6.12162e-09 0)
(0.633206 -5.4233e-09 0)
(0.633206 -3.80727e-09 0)
(0.633206 -6.94045e-09 0)
(0.633207 -1.29674e-08 0)
(1.77296 -4.13983e-08 0)
(1.77296 -3.84086e-08 0)
(1.77296 -9.81165e-09 0)
(1.77296 -2.71335e-09 0)
(1.77296 -1.58914e-09 0)
(1.77296 -5.7101e-09 0)
(1.77296 -2.18705e-09 0)
(1.77296 -1.1498e-08 0)
(1.77296 -3.42552e-09 0)
(1.77296 -1.82496e-08 0)
(1.77296 -6.14797e-09 0)
(1.77296 -2.29099e-08 0)
(1.77296 -1.11174e-08 0)
(1.77296 -2.36172e-08 0)
(1.77296 -1.67291e-08 0)
(1.77296 -2.03323e-08 0)
(1.77296 -2.02772e-08 0)
(1.77296 -1.28338e-08 0)
(1.77296 -2.82603e-08 0)
(1.77297 -4.80844e-08 0)
(2.78607 -8.28748e-08 0)
(2.78607 -8.22867e-08 0)
(2.78607 -2.08812e-08 0)
(2.78607 -6.14103e-09 0)
(2.78607 -2.13938e-09 0)
(2.78607 -9.36696e-09 0)
(2.78607 -3.27139e-09 0)
(2.78607 -1.80458e-08 0)
(2.78607 -6.28964e-09 0)
(2.78607 -2.80951e-08 0)
(2.78607 -1.18742e-08 0)
(2.78607 -3.48958e-08 0)
(2.78607 -2.08143e-08 0)
(2.78607 -3.5736e-08 0)
(2.78607 -3.00098e-08 0)
(2.78607 -3.10728e-08 0)
(2.78607 -3.46868e-08 0)
(2.78607 -1.89431e-08 0)
(2.78607 -5.56755e-08 0)
(2.78607 -8.99988e-08 0)
(3.67253 -1.21779e-07 0)
(3.67253 -1.26753e-07 0)
(3.67253 -3.32118e-08 0)
(3.67253 -1.04911e-08 0)
(3.67253 -2.7456e-09 0)
(3.67253 -1.35526e-08 0)
(3.67253 -5.06584e-09 0)
(3.67253 -2.48741e-08 0)
(3.67253 -1.1115e-08 0)
(3.67253 -3.77472e-08 0)
(3.67253 -2.08497e-08 0)
(3.67253 -4.64117e-08 0)
(3.67253 -3.45081e-08 0)
(3.67253 -4.75768e-08 0)
(3.67253 -4.70139e-08 0)
(3.67253 -4.24343e-08 0)
(3.67253 -5.11833e-08 0)
(3.67253 -2.6175e-08 0)
(3.67253 -8.42349e-08 0)
(3.67253 -1.28753e-07 0)
(4.43235 -1.48708e-07 0)
(4.43235 -1.59731e-07 0)
(4.43235 -4.38103e-08 0)
(4.43235 -1.46937e-08 0)
(4.43235 -3.2722e-09 0)
(4.43235 -1.80306e-08 0)
(4.43235 -7.28467e-09 0)
(4.43235 -3.2016e-08 0)
(4.43235 -1.69833e-08 0)
(4.43235 -4.75585e-08 0)
(4.43235 -3.14896e-08 0)
(4.43235 -5.80104e-08 0)
(4.43235 -5.01956e-08 0)
(4.43235 -5.96997e-08 0)
(4.43235 -6.57331e-08 0)
(4.43235 -5.47091e-08 0)
(4.43235 -6.82562e-08 0)
(4.43235 -3.51517e-08 0)
(4.43235 -1.07552e-07 0)
(4.43235 -1.56827e-07 0)
(5.06553 -1.58552e-07 0)
(5.06552 -1.73367e-07 0)
(5.06553 -4.96794e-08 0)
(5.06552 -1.78042e-08 0)
(5.06553 -3.4487e-09 0)
(5.06552 -2.22146e-08 0)
(5.06553 -9.61245e-09 0)
(5.06552 -3.86327e-08 0)
(5.06553 -2.31368e-08 0)
(5.06552 -5.64299e-08 0)
(5.06553 -4.24484e-08 0)
(5.06552 -6.84171e-08 0)
(5.06553 -6.594e-08 0)
(5.06552 -7.07826e-08 0)
(5.06553 -8.38948e-08 0)
(5.06552 -6.65838e-08 0)
(5.06553 -8.37656e-08 0)
(5.06552 -4.5412e-08 0)
(5.06553 -1.21285e-07 0)
(5.06552 -1.69353e-07 0)
(5.57206 -1.49552e-07 0)
(5.57206 -1.64199e-07 0)
(5.57206 -4.89953e-08 0)
(5.57206 -1.90563e-08 0)
(5.57206 -3.0455e-09 0)
(5.57206 -2.57441e-08 0)
(5.57206 -1.16892e-08 0)
(5.57206 -4.42414e-08 0)
(5.57206 -2.88089e-08 0)
(5.57206 -6.37392e-08 0)
(5.57206 -5.25004e-08 0)
(5.57206 -7.68672e-08 0)
(5.57206 -8.01396e-08 0)
(5.57206 -7.9942e-08 0)
(5.57206 -9.97673e-08 0)
(5.57206 -7.70715e-08 0)
(5.57206 -9.61858e-08 0)
(5.57206 -5.6497e-08 0)
(5.57206 -1.23698e-07 0)
(5.57206 -1.64528e-07 0)
(5.95196 -1.22622e-07 0)
(5.95196 -1.32531e-07 0)
(5.95196 -4.12126e-08 0)
(5.95196 -1.8092e-08 0)
(5.95196 -2.02159e-09 0)
(5.95196 -2.84579e-08 0)
(5.95196 -1.33783e-08 0)
(5.95196 -4.86334e-08 0)
(5.95196 -3.3629e-08 0)
(5.95196 -6.92397e-08 0)
(5.95196 -6.10082e-08 0)
(5.95196 -8.30691e-08 0)
(5.95196 -9.19386e-08 0)
(5.95196 -8.6815e-08 0)
(5.95196 -1.12449e-07 0)
(5.95196 -8.56662e-08 0)
(5.95196 -1.04819e-07 0)
(5.95196 -6.79922e-08 0)
(5.95196 -1.15098e-07 0)
(5.95196 -1.42996e-07 0)
(6.20523 -8.10335e-08 0)
(6.20523 -8.21335e-08 0)
(6.20523 -2.71952e-08 0)
(6.20523 -1.50217e-08 0)
(6.20523 -4.89045e-10 0)
(6.20523 -3.03114e-08 0)
(6.20523 -1.46222e-08 0)
(6.20523 -5.17201e-08 0)
(6.20523 -3.73793e-08 0)
(6.20523 -7.28335e-08 0)
(6.20523 -6.75846e-08 0)
(6.20523 -8.69044e-08 0)
(6.20523 -1.00824e-07 0)
(6.20523 -9.1206e-08 0)
(6.20523 -1.21454e-07 0)
(6.20523 -9.19782e-08 0)
(6.20523 -1.09469e-07 0)
(6.20523 -7.91933e-08 0)
(6.20523 -9.72014e-08 0)
(6.20523 -1.07543e-07 0)
(6.33187 -2.98561e-08 0)
(6.33186 -1.95358e-08 0)
(6.33186 -9.05422e-09 0)
(6.33186 -1.04029e-08 0)
(6.33186 1.29976e-09 0)
(6.33186 -3.13377e-08 0)
(6.33186 -1.54198e-08 0)
(6.33186 -5.34816e-08 0)
(6.33186 -3.99484e-08 0)
(6.33186 -7.45117e-08 0)
(6.33186 -7.20177e-08 0)
(6.33186 -8.83663e-08 0)
(6.33186 -1.06527e-07 0)
(6.33186 -9.30367e-08 0)
(6.33186 -1.26596e-07 0)
(6.33186 -9.57048e-08 0)
(6.33186 -1.10316e-07 0)
(6.33186 -8.9131e-08 0)
(6.33186 -7.27132e-08 0)
(6.33186 -6.26225e-08 0)
(6.33187 2.47146e-08 0)
(6.33186 4.69715e-08 0)
(6.33186 1.02688e-08 0)
(6.33186 -5.10731e-09 0)
(6.33186 3.02097e-09 0)
(6.33186 -3.16025e-08 0)
(6.33186 -1.57811e-08 0)
(6.33186 -5.39169e-08 0)
(6.33186 -4.12614e-08 0)
(6.33186 -7.42899e-08 0)
(6.33186 -7.4172e-08 0)
(6.33186 -8.74812e-08 0)
(6.33186 -1.08899e-07 0)
(6.33186 -9.22678e-08 0)
(6.33186 -1.2784e-07 0)
(6.33186 -9.65787e-08 0)
(6.33186 -1.07756e-07 0)
(6.33186 -9.66482e-08 0)
(6.33186 -4.48842e-08 0)
(6.33186 -1.37142e-08 0)
(6.20523 7.60983e-08 0)
(6.20523 1.08518e-07 0)
(6.20523 2.75891e-08 0)
(6.20523 -1.15861e-10 0)
(6.20523 4.34879e-09 0)
(6.20523 -3.11711e-08 0)
(6.20523 -1.5709e-08 0)
(6.20523 -5.30259e-08 0)
(6.20523 -4.12612e-08 0)
(6.20523 -7.21902e-08 0)
(6.20523 -7.39642e-08 0)
(6.20523 -8.42894e-08 0)
(6.20523 -1.07878e-07 0)
(6.20523 -8.88899e-08 0)
(6.20523 -1.25254e-07 0)
(6.20523 -9.43937e-08 0)
(6.20523 -1.02286e-07 0)
(6.20523 -1.00584e-07 0)
(6.20523 -1.71426e-08 0)
(6.20523 3.33611e-08 0)
(5.95197 1.18069e-07 0)
(5.95196 1.56876e-07 0)
(5.95196 4.01223e-08 0)
(5.95196 3.71317e-09 0)
(5.95196 5.04019e-09 0)
(5.95196 -3.00805e-08 0)
(5.95196 -1.51896e-08 0)
(5.95196 -5.08018e-08 0)
(5.95196 -3.99063e-08 0)
(5.95196 -6.82352e-08 0)
(5.95196 -7.13607e-08 0)
(5.95196 -7.88425e-08 0)
(5.95196 -1.03482e-07 0)
(5.95196 -8.29344e-08 0)
(5.95196 -1.18977e-07 0)
(5.95196 -8.90482e-08 0)
(5.95196 -9.44011e-08 0)
(5.95196 -9.99707e-08 0)
(5.95196 7.2403e-09 0)
(5.95196 7.31263e-08 0)
(5.57206 1.45505e-07 0)
(5.57206 1.85644e-07 0)
(5.57206 4.60508e-08 0)
(5.57206 5.84288e-09 0)
(5.57206 4.99782e-09 0)
(5.57206 -2.83211e-08 0)
(5.57206 -1.41936e-08 0)
(5.57206 -4.72317e-08 0)
(5.57206 -3.71796e-08 0)
(5.57206 -6.24555e-08 0)
(5.57206 -6.63871e-08 0)
(5.57206 -7.12183e-08 0)
(5.57206 -9.58113e-08 0)
(5.57206 -7.44983e-08 0)
(5.57206 -1.09207e-07 0)
(5.57206 -8.05947e-08 0)
(5.57206 -8.45292e-08 0)
(5.57206 -9.42375e-08 0)
(5.57206 2.54939e-08 0)
(5.57206 1.01104e-07 0)
(5.06553 1.55075e-07 0)
(5.06552 1.91235e-07 0)
(5.06553 4.48968e-08 0)
(5.06553 6.16345e-09 0)
(5.06553 4.28591e-09 0)
(5.06553 -2.58486e-08 0)
(5.06553 -1.27086e-08 0)
(5.06553 -4.23301e-08 0)
(5.06553 -3.31382e-08 0)
(5.06553 -5.49468e-08 0)
(5.06553 -5.91886e-08 0)
(5.06553 -6.1603e-08 0)
(5.06553 -8.51139e-08 0)
(5.06553 -6.38447e-08 0)
(5.06553 -9.62708e-08 0)
(5.06552 -6.93502e-08 0)
(5.06553 -7.30466e-08 0)
(5.06552 -8.34386e-08 0)
(5.06553 3.56605e-08 0)
(5.06553 1.14367e-07 0)
(4.43235 1.45811e-07 0)
(4.43235 1.73598e-07 0)
(4.43235 3.76177e-08 0)
(4.43235 4.99417e-09 0)
(4.43235 3.12617e-09 0)
(4.43235 -2.26009e-08 0)
(4.43235 -1.07383e-08 0)
(4.43235 -3.61518e-08 0)
(4.43235 -2.79118e-08 0)
(4.43235 -4.58864e-08 0)
(4.43235 -5.00291e-08 0)
(4.43235 -5.03138e-08 0)
(4.43235 -7.17947e-08 0)
(4.43235 -5.14225e-08 0)
(4.43235 -8.06442e-08 0)
(4.43235 -5.59113e-08 0)
(4.43235 -6.03041e-08 0)
(4.43235 -6.83473e-08 0)
(4.43235 3.69553e-08 0)
(4.43235 1.11946e-07 0)
(3.67253 1.19443e-07 0)
(3.67253 1.36473e-07 0)
(3.67253 2.63867e-08 0)
(3.67253 2.92335e-09 0)
(3.67253 1.76628e-09 0)
(3.67253 -1.86099e-08 0)
(3.67253 -8.47538e-09 0)
(3.67253 -2.89644e-08 0)
(3.67253 -2.19477e-08 0)
(3.67253 -3.58098e-08 0)
(3.67253 -3.9592e-08 0)
(3.67253 -3.81812e-08 0)
(3.67253 -5.67505e-08 0)
(3.67253 -3.83016e-08 0)
(3.67253 -6.33156e-08 0)
(3.67253 -4.15661e-08 0)
(3.67253 -4.69866e-08 0)
(3.67253 -5.07507e-08 0)
(3.67253 2.99124e-08 0)
(3.67253 9.48371e-08 0)
(2.78607 8.10065e-08 0)
(2.78607 8.81686e-08 0)
(2.78607 1.42908e-08 0)
(2.78607 6.00795e-10 0)
(2.78607 5.63931e-10 0)
(2.78607 -1.42163e-08 0)
(2.78607 -6.15192e-09 0)
(2.78607 -2.14175e-08 0)
(2.78607 -1.59143e-08 0)
(2.78607 -2.56487e-08 0)
(2.78607 -2.90307e-08 0)
(2.78607 -2.63469e-08 0)
(2.78607 -4.16082e-08 0)
(2.78607 -2.5757e-08 0)
(2.78607 -4.61227e-08 0)
(2.78607 -2.78352e-08 0)
(2.78607 -3.43487e-08 0)
(2.78607 -3.31964e-08 0)
(2.78607 1.70344e-08 0)
(2.78607 6.65934e-08 0)
(1.77296 4.00693e-08 0)
(1.77296 4.1097e-08 0)
(1.77296 4.79299e-09 0)
(1.77296 -9.9196e-10 0)
(1.77296 -2.82391e-10 0)
(1.77296 -9.2202e-09 0)
(1.77296 -4.05041e-09 0)
(1.77296 -1.35222e-08 0)
(1.77296 -1.01962e-08 0)
(1.77296 -1.58456e-08 0)
(1.77296 -1.86048e-08 0)
(1.77296 -1.58412e-08 0)
(1.77296 -2.64929e-08 0)
(1.77296 -1.52487e-08 0)
(1.77296 -2.91747e-08 0)
(1.77296 -1.63755e-08 0)
(1.77296 -2.22231e-08 0)
(1.77296 -1.83213e-08 0)
(1.77296 3.92848e-09 0)
(1.77297 3.38864e-08 0)
(0.633206 1.02489e-08 0)
(0.633206 9.62688e-09 0)
(0.633206 6.12474e-10 0)
(0.633206 -4.70163e-10 0)
(0.633206 -1.40468e-10 0)
(0.633206 -2.72996e-09 0)
(0.633206 -1.10939e-09 0)
(0.633206 -3.92354e-09 0)
(0.633206 -2.90664e-09 0)
(0.633206 -4.46059e-09 0)
(0.633206 -5.45156e-09 0)
(0.633206 -4.259e-09 0)
(0.633206 -7.81528e-09 0)
(0.633206 -3.97183e-09 0)
(0.633206 -8.61731e-09 0)
(0.633206 -4.26562e-09 0)
(0.633206 -6.68882e-09 0)
(0.633206 -4.66054e-09 0)
(0.633206 -1.27926e-10 0)
(0.633207 9.06683e-09 0)
)
;

boundaryField
{
    top
    {
        type            fixedValue;
        value           uniform (0 0 0);
    }
    bottom
    {
        type            fixedValue;
        value           uniform (0 0 0);
    }
    inlet
    {
        type            zeroGradient;
    }
    outlet
    {
        type            zeroGradient;
    }
    frontAndBack
    {
        type            empty;
    }
}


// ************************************************************************* //
