/*--------------------------------*- C++ -*----------------------------------*\
| =========                 |                                                 |
| \\      /  F ield         | OpenFOAM: The Open Source CFD Toolbox           |
|  \\    /   O peration     | Version:  4.1                                   |
|   \\  /    A nd           | Web:      www.OpenFOAM.org                      |
|    \\/     M anipulation  |                                                 |
\*---------------------------------------------------------------------------*/
FoamFile
{
    version     2.0;
    format      ascii;
    class       volScalarField;
    location    "0.1";
    object      p;
}
// * * * * * * * * * * * * * * * * * * * * * * * * * * * * * * * * * * * * * //

dimensions      [0 2 -2 0 0 0 0];

internalField   nonuniform List<scalar> 
400
(
-98.8213
-93.7067
-88.6855
-83.5748
-78.5344
-73.4512
-68.3874
-63.33
-58.2465
-53.204
-48.112
-43.0725
-37.9821
-32.9378
-27.8541
-22.8025
-17.7257
-12.6681
-7.59616
-2.53537
-98.8212
-93.7067
-88.6855
-83.5748
-78.5345
-73.4512
-68.3874
-63.3299
-58.2465
-53.2039
-48.112
-43.0724
-37.9821
-32.9378
-27.8541
-22.8025
-17.7257
-12.6681
-7.59616
-2.53537
-98.8212
-93.7067
-88.6855
-83.5748
-78.5345
-73.4512
-68.3874
-63.3299
-58.2465
-53.204
-48.112
-43.0725
-37.9821
-32.9378
-27.8541
-22.8025
-17.7257
-12.6681
-7.59616
-2.53538
-98.8212
-93.7067
-88.6856
-83.5749
-78.5345
-73.4512
-68.3874
-63.3299
-58.2465
-53.204
-48.112
-43.0725
-37.9821
-32.9378
-27.8541
-22.8025
-17.7257
-12.6681
-7.59616
-2.53538
-98.8211
-93.7067
-88.6857
-83.5749
-78.5346
-73.4512
-68.3874
-63.3299
-58.2465
-53.204
-48.112
-43.0725
-37.9821
-32.9378
-27.8541
-22.8025
-17.7257
-12.6681
-7.59615
-2.53538
-98.8212
-93.7067
-88.6858
-83.5749
-78.5346
-73.4512
-68.3874
-63.3299
-58.2465
-53.204
-48.112
-43.0725
-37.9821
-32.9378
-27.854
-22.8025
-17.7257
-12.6681
-7.59615
-2.53539
-98.8212
-93.7068
-88.6858
-83.5749
-78.5346
-73.4512
-68.3874
-63.3299
-58.2465
-53.204
-48.1119
-43.0725
-37.9821
-32.9378
-27.854
-22.8025
-17.7257
-12.6681
-7.59615
-2.53539
-98.8212
-93.7068
-88.6859
-83.5749
-78.5346
-73.4511
-68.3874
-63.3299
-58.2465
-53.204
-48.1119
-43.0725
-37.9821
-32.9378
-27.854
-22.8025
-17.7257
-12.6681
-7.59615
-2.53539
-98.8212
-93.7069
-88.686
-83.5749
-78.5346
-73.4511
-68.3874
-63.3299
-58.2465
-53.204
-48.1119
-43.0725
-37.9821
-32.9378
-27.854
-22.8025
-17.7257
-12.6681
-7.59615
-2.53539
-98.8212
-93.707
-88.6861
-83.5749
-78.5346
-73.4511
-68.3874
-63.3299
-58.2465
-53.204
-48.1119
-43.0725
-37.9821
-32.9378
-27.854
-22.8025
-17.7257
-12.6681
-7.59615
-2.53539
-98.8212
-93.7071
-88.6861
-83.575
-78.5346
-73.4511
-68.3874
-63.3299
-58.2465
-53.204
-48.1119
-43.0725
-37.9821
-32.9378
-27.854
-22.8025
-17.7257
-12.6681
-7.59615
-2.53539
-98.8212
-93.7071
-88.6862
-83.575
-78.5346
-73.4511
-68.3874
-63.3299
-58.2465
-53.204
-48.1119
-43.0725
-37.9821
-32.9378
-27.854
-22.8025
-17.7257
-12.6681
-7.59616
-2.53539
-98.8212
-93.7072
-88.6863
-83.575
-78.5346
-73.4511
-68.3874
-63.3299
-58.2465
-53.204
-48.1119
-43.0725
-37.9821
-32.9378
-27.854
-22.8025
-17.7257
-12.6681
-7.59616
-2.53538
-98.8212
-93.7072
-88.6863
-83.575
-78.5346
-73.4511
-68.3874
-63.3299
-58.2465
-53.204
-48.1119
-43.0725
-37.9821
-32.9378
-27.854
-22.8025
-17.7257
-12.6681
-7.59616
-2.53538
-98.8212
-93.7072
-88.6863
-83.5751
-78.5346
-73.4511
-68.3874
-63.3299
-58.2465
-53.204
-48.1119
-43.0725
-37.9821
-32.9378
-27.8541
-22.8025
-17.7257
-12.6681
-7.59616
-2.53538
-98.8212
-93.7072
-88.6864
-83.5751
-78.5346
-73.4512
-68.3874
-63.3299
-58.2465
-53.204
-48.1119
-43.0725
-37.9821
-32.9378
-27.8541
-22.8025
-17.7257
-12.6681
-7.59617
-2.53537
-98.8212
-93.7072
-88.6864
-83.5752
-78.5346
-73.4512
-68.3874
-63.3299
-58.2465
-53.204
-48.112
-43.0725
-37.9821
-32.9378
-27.8541
-22.8025
-17.7257
-12.6681
-7.59617
-2.53536
-98.8212
-93.7072
-88.6864
-83.5752
-78.5346
-73.4512
-68.3874
-63.33
-58.2465
-53.204
-48.112
-43.0725
-37.9821
-32.9378
-27.8541
-22.8025
-17.7257
-12.6681
-7.59618
-2.53536
-98.8211
-93.7072
-88.6864
-83.5753
-78.5347
-73.4512
-68.3874
-63.33
-58.2465
-53.204
-48.112
-43.0725
-37.9821
-32.9378
-27.8541
-22.8025
-17.7257
-12.6681
-7.59618
-2.53535
-98.8211
-93.7072
-88.6865
-83.5753
-78.5347
-73.4513
-68.3874
-63.33
-58.2465
-53.204
-48.112
-43.0725
-37.9821
-32.9378
-27.8541
-22.8025
-17.7257
-12.6681
-7.59618
-2.53535
)
;

boundaryField
{
    top
    {
        type            zeroGradient;
    }
    bottom
    {
        type            zeroGradient;
    }
    inlet
    {
        type            fixedValue;
        value           uniform -101.325;
    }
    outlet
    {
        type            fixedValue;
        value           uniform 0;
    }
    frontAndBack
    {
        type            empty;
    }
}


// ************************************************************************* //
