/*--------------------------------*- C++ -*----------------------------------*\
| =========                 |                                                 |
| \\      /  F ield         | OpenFOAM: The Open Source CFD Toolbox           |
|  \\    /   O peration     | Version:  4.1                                   |
|   \\  /    A nd           | Web:      www.OpenFOAM.org                      |
|    \\/     M anipulation  |                                                 |
\*---------------------------------------------------------------------------*/
FoamFile
{
    version     2.0;
    format      ascii;
    class       surfaceScalarField;
    location    "0.1";
    object      phi;
}
// * * * * * * * * * * * * * * * * * * * * * * * * * * * * * * * * * * * * * //

dimensions      [0 3 -1 0 0 0 0];

internalField   nonuniform List<scalar> 
760
(
-1.82302e-05
5.41185e-08
-1.82013e-05
-2.88216e-08
-1.8225e-05
2.36236e-08
-1.81923e-05
-3.26953e-08
-1.8199e-05
6.75047e-09
-1.8192e-05
-7.04754e-09
-1.81856e-05
-6.34281e-09
-1.81967e-05
1.10969e-08
-1.81803e-05
-1.64279e-08
-1.81988e-05
1.84977e-08
-1.81798e-05
-1.8984e-08
-1.81976e-05
1.7825e-08
-1.81819e-05
-1.57459e-08
-1.81951e-05
1.31695e-08
-1.81846e-05
-1.05119e-08
-1.81926e-05
8.07806e-09
-1.81866e-05
-6.06787e-09
-1.8191e-05
4.42338e-09
-1.81877e-05
-3.30613e-09
2.84681e-09
-4.83982e-05
1.4468e-07
-4.8369e-05
-5.80738e-08
-4.83825e-05
3.70857e-08
-4.83305e-05
-8.4694e-08
-4.83253e-05
1.56057e-09
-4.83161e-05
-1.6146e-08
-4.83027e-05
-1.98129e-08
-4.83184e-05
2.68577e-08
-4.82961e-05
-3.87454e-08
-4.83196e-05
4.1965e-08
-4.82963e-05
-4.22775e-08
-4.83175e-05
3.89905e-08
-4.82992e-05
-3.39596e-08
-4.83141e-05
2.80326e-08
-4.83025e-05
-2.21167e-08
-4.83112e-05
1.68161e-08
-4.83048e-05
-1.2549e-08
-4.83094e-05
9.06447e-09
-4.83061e-05
-6.58148e-09
5.45671e-09
-7.24288e-05
2.41011e-07
-7.24167e-05
-7.02085e-08
-7.2401e-05
2.14426e-08
-7.23478e-05
-1.37915e-07
-7.23248e-05
-2.14447e-08
-7.23173e-05
-2.36469e-08
-7.23006e-05
-3.64595e-08
-7.23137e-05
3.99226e-08
-7.2296e-05
-5.6412e-08
-7.23127e-05
5.86114e-08
-7.2297e-05
-5.7918e-08
-7.23104e-05
5.23954e-08
-7.22994e-05
-4.49444e-08
-7.2308e-05
3.65781e-08
-7.23016e-05
-2.85028e-08
-7.23062e-05
2.14379e-08
-7.23028e-05
-1.59249e-08
-7.23052e-05
1.14635e-08
-7.23039e-05
-7.92728e-09
6.20405e-09
-9.04493e-05
3.34264e-07
-9.04509e-05
-6.86713e-08
-9.04089e-05
-2.05529e-08
-9.03578e-05
-1.88969e-07
-9.03214e-05
-5.78318e-08
-9.03152e-05
-2.98715e-08
-9.02978e-05
-5.38358e-08
-9.03069e-05
4.90301e-08
-9.02951e-05
-6.82395e-08
-9.03043e-05
6.78687e-08
-9.02965e-05
-6.57522e-08
-9.03024e-05
5.82667e-08
-9.02982e-05
-4.9169e-08
-9.0301e-05
3.94082e-08
-9.02992e-05
-3.03007e-08
-9.03003e-05
2.25385e-08
-9.02995e-05
-1.67019e-08
-9.03001e-05
1.21075e-08
-9.03004e-05
-7.71643e-09
5.4863e-09
-0.000102549
4.15679e-07
-0.000102561
-5.64709e-08
-0.000102498
-8.36138e-08
-0.000102452
-2.34636e-07
-0.000102407
-1.02634e-07
-0.000102402
-3.52396e-08
-0.000102386
-6.97273e-08
-0.00010239
5.33085e-08
-0.000102385
-7.35574e-08
-0.000102387
6.96904e-08
-0.000102387
-6.61044e-08
-0.000102386
5.72099e-08
-0.000102387
-4.73795e-08
-0.000102385
3.73038e-08
-0.000102387
-2.8239e-08
-0.000102386
2.07493e-08
-0.000102387
-1.53816e-08
-0.000102386
1.14203e-08
-0.000102388
-6.29581e-09
3.66772e-09
-0.000108781
4.77685e-07
-0.000108801
-3.61029e-08
-0.000108725
-1.60551e-07
-0.000108687
-2.72077e-07
-0.000108639
-1.50781e-07
-0.000108634
-4.01191e-08
-0.000108621
-8.23532e-08
-0.00010862
5.23777e-08
-0.000108622
-7.22631e-08
-0.000108617
6.45405e-08
-0.000108623
-5.97247e-08
-0.000108616
5.01496e-08
-0.000108623
-4.05348e-08
-0.000108617
3.11664e-08
-0.000108622
-2.30999e-08
-0.000108618
1.67088e-08
-0.000108621
-1.24519e-08
-0.000108619
9.7608e-09
-0.000108621
-3.99822e-09
1.07274e-09
-0.00010916
5.14662e-07
-0.000109187
-9.68038e-09
-0.000109104
-2.43081e-07
-0.000109077
-2.98922e-07
-0.000109031
-1.97436e-07
-0.000109026
-4.46891e-08
-0.000109018
-9.04736e-08
-0.000109012
4.63801e-08
-0.000109019
-6.47936e-08
-0.000109008
5.33305e-08
-0.00010902
-4.77103e-08
-0.000109008
3.82475e-08
-0.000109019
-2.97363e-08
-0.00010901
2.19643e-08
-0.000109017
-1.56822e-08
-0.000109012
1.10408e-08
-0.000109016
-8.37671e-09
-0.000109013
7.42237e-09
-0.000109016
-1.14798e-09
-2.01453e-09
-0.00010366
5.2344e-07
-0.00010369
2.08503e-08
-0.00010361
-3.22692e-07
-0.000103596
-3.13332e-07
-0.000103555
-2.38278e-07
-0.000103551
-4.88536e-08
-0.000103548
-9.34355e-08
-0.000103538
3.59593e-08
-0.00010355
-5.20607e-08
-0.000103534
3.73346e-08
-0.000103551
-3.14164e-08
-0.000103535
2.28225e-08
-0.000103549
-1.61633e-08
-0.000103538
1.06868e-08
-0.000103546
-6.772e-09
-0.00010354
4.33809e-09
-0.000103545
-3.58636e-09
-0.000103542
4.64116e-09
-0.000103545
1.94572e-09
-5.3443e-09
-9.22136e-05
5.03535e-07
-9.22463e-05
5.34867e-08
-9.21775e-05
-3.91469e-07
-9.21767e-05
-3.14085e-07
-9.21453e-05
-2.69734e-07
-9.21419e-05
-5.22222e-08
-9.21442e-05
-9.11645e-08
-9.21304e-05
2.21934e-08
-9.21471e-05
-3.53606e-08
-9.21279e-05
1.80917e-08
-9.21469e-05
-1.23676e-08
-9.21294e-05
5.27684e-09
-9.21445e-05
-1.01929e-09
-9.21321e-05
-1.69153e-09
-9.21418e-05
2.87899e-09
-9.21346e-05
-2.84764e-09
-9.21397e-05
1.52747e-09
-9.21367e-05
1.61082e-09
-9.21397e-05
5.00385e-09
-8.69098e-09
-7.4725e-05
4.57138e-07
-7.47575e-05
8.60186e-08
-7.47061e-05
-4.42835e-07
-7.47195e-05
-3.00698e-07
-7.47001e-05
-2.89172e-07
-7.46981e-05
-5.41683e-08
-7.47052e-05
-8.41113e-08
-7.46895e-05
6.48958e-09
-7.47086e-05
-1.62639e-08
-7.46878e-05
-2.69684e-09
-7.4708e-05
7.82877e-09
-7.46898e-05
-1.29679e-08
-7.47053e-05
1.45132e-08
-7.46927e-05
-1.4238e-08
-7.47024e-05
1.25676e-08
-7.46953e-05
-1.00111e-08
-7.47003e-05
6.61441e-09
-7.46972e-05
-1.50026e-09
-7.47e-05
7.79538e-09
-1.18415e-08
-5.1073e-05
3.88872e-07
-5.1103e-05
1.16001e-07
-5.10737e-05
-4.72121e-07
-5.11008e-05
-2.73598e-07
-5.1095e-05
-2.95045e-07
-5.10952e-05
-5.396e-08
-5.11061e-05
-7.31627e-08
-5.10901e-05
-9.55194e-09
-5.11098e-05
3.50337e-09
-5.10893e-05
-2.32716e-08
-5.1109e-05
2.75608e-08
-5.10914e-05
-3.05258e-08
-5.11062e-05
2.93062e-08
-5.10944e-05
-2.60801e-08
-5.11035e-05
2.16469e-08
-5.10968e-05
-1.66945e-08
-5.11015e-05
1.13643e-08
-5.10985e-05
-4.53448e-09
-5.11009e-05
1.01507e-08
-1.45854e-08
-2.11258e-05
3.05354e-07
-2.11507e-05
1.40876e-07
-2.11459e-05
-4.76942e-07
-2.11852e-05
-2.34303e-07
-2.11933e-05
-2.86983e-07
-2.11963e-05
-5.09509e-08
-2.12099e-05
-5.95284e-08
-2.11952e-05
-2.42938e-08
-2.12138e-05
2.21827e-08
-2.11952e-05
-4.19162e-08
-2.12129e-05
4.52842e-08
-2.11974e-05
-4.60926e-08
-2.12104e-05
4.23125e-08
-2.12e-05
-3.64171e-08
-2.12079e-05
2.95289e-08
-2.12021e-05
-2.24846e-08
-2.12063e-05
1.55022e-08
-2.12035e-05
-7.33639e-09
-2.12053e-05
1.19632e-08
-1.67111e-08
1.5247e-05
2.1464e-07
1.52297e-05
1.58171e-07
1.52101e-05
-4.57271e-07
1.51614e-05
-1.85596e-07
1.51402e-05
-2.65821e-07
1.5134e-05
-4.48023e-08
1.51191e-05
-4.46171e-08
1.5131e-05
-3.62183e-08
1.51151e-05
3.80923e-08
1.51303e-05
-5.70389e-08
1.5116e-05
5.95715e-08
1.51283e-05
-5.84717e-08
1.51181e-05
5.25752e-08
1.51262e-05
-4.45194e-08
1.512e-05
3.56789e-08
1.51246e-05
-2.70059e-08
1.51213e-05
1.87791e-08
1.51237e-05
-9.74854e-09
1.51225e-05
1.31754e-08
-1.80129e-08
5.81615e-05
1.25562e-07
5.81539e-05
1.65761e-07
5.81119e-05
-4.15267e-07
5.80579e-05
-1.31593e-07
5.80256e-05
-2.33528e-07
5.80165e-05
-3.56953e-08
5.80018e-05
-2.99056e-08
5.80097e-05
-4.40761e-08
5.7998e-05
4.97257e-08
5.80082e-05
-6.72432e-08
5.79987e-05
6.91504e-08
5.80068e-05
-6.65906e-08
5.80001e-05
5.92297e-08
5.80053e-05
-4.97226e-08
5.80014e-05
3.9606e-08
5.80043e-05
-2.99091e-08
5.80021e-05
2.09593e-08
5.8004e-05
-1.16075e-08
5.80034e-05
1.37497e-08
-1.83105e-08
0.000107708
4.68169e-08
0.000107711
1.62259e-07
0.000107651
-3.54979e-07
0.000107597
-7.75646e-08
0.000107556
-1.93057e-07
0.000107545
-2.44759e-08
0.000107532
-1.68e-08
0.000107535
-4.70294e-08
0.000107529
5.58721e-08
0.000107533
-7.14298e-08
0.000107529
7.29802e-08
0.000107532
-6.95524e-08
0.00010753
6.15332e-08
0.000107532
-5.14395e-08
0.00010753
4.08642e-08
0.000107531
-3.0866e-08
0.00010753
2.18094e-08
0.000107531
-1.27353e-08
0.000107532
1.36349e-08
-1.74808e-08
0.00016394
-1.36648e-08
0.000163955
1.47076e-07
0.000163882
-2.81723e-07
0.000163834
-2.96428e-08
0.000163789
-1.48019e-07
0.000163777
-1.26936e-08
0.000163767
-6.49633e-09
0.000163764
-4.47327e-08
0.000163765
5.56776e-08
0.000163762
-6.88257e-08
0.000163765
7.0257e-08
0.000163762
-6.66269e-08
0.000163765
5.88476e-08
0.000163762
-4.91416e-08
0.000163764
3.90339e-08
0.000163763
-2.95513e-08
0.000163763
2.10795e-08
0.000163764
-1.29168e-08
0.000163765
1.27364e-08
-1.54896e-08
0.000226872
-4.94342e-08
0.000226899
1.2042e-07
0.000226819
-2.01526e-07
0.000226783
5.76403e-09
0.000226738
-1.0224e-07
0.000226727
-2.47641e-09
0.000226721
1.73071e-10
0.000226713
-3.73797e-08
0.00022672
4.87285e-08
0.000226711
-5.90419e-08
0.00022672
6.04614e-08
0.000226711
-5.72815e-08
0.000226719
5.06555e-08
0.000226712
-4.23619e-08
0.000226718
3.37168e-08
0.000226714
-2.56332e-08
0.000226716
1.84872e-08
0.000226715
-1.18678e-08
0.000226717
1.09055e-08
-1.24083e-08
0.000296478
-5.60707e-08
0.000296515
8.30075e-08
0.000296434
-1.20643e-07
0.000296417
2.27418e-08
0.000296374
-5.92141e-08
0.000296368
3.77462e-09
0.000296365
2.89722e-09
0.000296353
-2.56876e-08
0.000296367
3.51237e-08
0.00029635
-4.21183e-08
0.000296367
4.34033e-08
0.000296351
-4.12151e-08
0.000296365
3.65799e-08
0.000296354
-3.07022e-08
0.000296363
2.45344e-08
0.000296356
-1.87639e-08
0.000296361
1.37038e-08
0.000296358
-9.20225e-09
0.000296361
7.95021e-09
-8.3967e-09
0.000372689
-3.137e-08
0.000372737
3.55807e-08
0.000372661
-4.52101e-08
0.000372667
1.6681e-08
0.00037263
-2.15766e-08
0.00037263
3.84281e-09
0.00037263
1.9968e-09
0.000372616
-1.07994e-08
0.000372635
1.5503e-08
0.000372612
-1.85395e-08
0.000372636
1.92671e-08
0.000372613
-1.83898e-08
0.000372633
1.64125e-08
0.000372616
-1.38508e-08
0.00037263
1.11325e-08
0.000372619
-8.57819e-09
0.000372627
6.34694e-09
0.000372622
-4.43208e-09
0.000372626
3.65628e-09
-3.6115e-09
0.000455422
0.000455457
0.000455412
0.000455429
0.000455407
0.000455411
0.000455413
0.000455402
0.000455418
0.000455399
0.000455418
0.0004554
0.000455416
0.000455403
0.000455414
0.000455405
0.000455411
0.000455407
0.000455411
)
;

boundaryField
{
    top
    {
        type            calculated;
        value           uniform 0;
    }
    bottom
    {
        type            calculated;
        value           uniform 0;
    }
    inlet
    {
        type            calculated;
        value           nonuniform List<scalar> 
20
(
1.81761e-05
4.83077e-05
7.23324e-05
9.03561e-05
0.000102467
0.000108719
0.000109123
0.000103651
9.22335e-05
7.47714e-05
5.11413e-05
2.12094e-05
-1.51563e-05
-5.80725e-05
-0.000107629
-0.000163879
-0.000226837
-0.000296471
-0.000372714
-0.000455453
)
;
    }
    outlet
    {
        type            calculated;
        value           nonuniform List<scalar> 
20
(
-1.81905e-05
-4.83087e-05
-7.23046e-05
-9.02996e-05
-0.000102386
-0.000108619
-0.000109013
-0.000103542
-9.21364e-05
-7.46969e-05
-5.10981e-05
-2.12031e-05
1.51238e-05
5.80037e-05
0.000107531
0.000163763
0.000226714
0.000296357
0.000372622
0.000455407
)
;
    }
    frontAndBack
    {
        type            empty;
        value           nonuniform 0();
    }
}


// ************************************************************************* //
