/*--------------------------------*- C++ -*----------------------------------*\
| =========                 |                                                 |
| \\      /  F ield         | OpenFOAM: The Open Source CFD Toolbox           |
|  \\    /   O peration     | Version:  4.1                                   |
|   \\  /    A nd           | Web:      www.OpenFOAM.org                      |
|    \\/     M anipulation  |                                                 |
\*---------------------------------------------------------------------------*/
FoamFile
{
    version     2.0;
    format      ascii;
    class       volVectorField;
    location    "0.1";
    object      U;
}
// * * * * * * * * * * * * * * * * * * * * * * * * * * * * * * * * * * * * * //

dimensions      [0 1 -1 0 0 0 0];

internalField   nonuniform List<vector> 
400
(
(-0.363979 2.54222e-05 0)
(-0.364371 -1.53472e-05 0)
(-0.364462 1.38824e-05 0)
(-0.363859 -1.55209e-05 0)
(-0.364311 4.83379e-06 0)
(-0.363391 -3.54348e-06 0)
(-0.364336 -2.72305e-06 0)
(-0.363235 5.5345e-06 0)
(-0.364344 -8.26359e-06 0)
(-0.363256 9.4518e-06 0)
(-0.36426 -9.77372e-06 0)
(-0.363372 9.2383e-06 0)
(-0.364124 -8.20244e-06 0)
(-0.363512 6.88527e-06 0)
(-0.36399 -5.51536e-06 0)
(-0.363631 4.25688e-06 0)
(-0.36389 -3.19949e-06 0)
(-0.363711 2.33109e-06 0)
(-0.363823 -1.77701e-06 0)
(-0.36377 1.52975e-06 0)
(-0.966846 9.55157e-05 0)
(-0.967787 -4.51156e-05 0)
(-0.968154 3.54719e-05 0)
(-0.966116 -5.67332e-05 0)
(-0.967824 7.54891e-06 0)
(-0.964798 -1.16611e-05 0)
(-0.967915 -1.20854e-05 0)
(-0.964417 1.89188e-05 0)
(-0.967876 -2.76963e-05 0)
(-0.96456 3.06932e-05 0)
(-0.967562 -3.12521e-05 0)
(-0.964955 2.91168e-05 0)
(-0.967123 -2.55605e-05 0)
(-0.96539 2.12553e-05 0)
(-0.966723 -1.68773e-05 0)
(-0.965737 1.29004e-05 0)
(-0.966437 -9.65389e-06 0)
(-0.965961 6.99403e-06 0)
(-0.966259 -5.16903e-06 0)
(-0.966114 4.39614e-06 0)
(-1.44734 0.000190909 0)
(-1.44852 -6.67533e-05 0)
(-1.44933 3.53618e-05 0)
(-1.44568 -0.000110347 0)
(-1.44895 -6.35589e-06 0)
(-1.44365 -2.00261e-05 0)
(-1.44911 -2.74896e-05 0)
(-1.44314 3.38512e-05 0)
(-1.44896 -4.83347e-05 0)
(-1.44347 5.14135e-05 0)
(-1.44838 -5.1357e-05 0)
(-1.44417 4.69677e-05 0)
(-1.44763 -4.06345e-05 0)
(-1.4449 3.33286e-05 0)
(-1.44697 -2.61487e-05 0)
(-1.44545 1.9787e-05 0)
(-1.44652 -1.47287e-05 0)
(-1.4458 1.05976e-05 0)
(-1.44625 -7.57165e-06 0)
(-1.44603 6.13476e-06 0)
(-1.80781 0.000289338 0)
(-1.80887 -7.24617e-05 0)
(-1.81035 6.65798e-06 0)
(-1.80498 -0.000164316 0)
(-1.81006 -3.67747e-05 0)
(-1.80241 -2.70454e-05 0)
(-1.81027 -4.52063e-05 0)
(-1.80187 4.55715e-05 0)
(-1.80996 -6.38781e-05 0)
(-1.80243 6.51151e-05 0)
(-1.80908 -6.3774e-05 0)
(-1.80345 5.71692e-05 0)
(-1.80803 -4.86816e-05 0)
(-1.80444 3.93487e-05 0)
(-1.80714 -3.0478e-05 0)
(-1.80518 2.28047e-05 0)
(-1.80655 -1.69109e-05 0)
(-1.80564 1.21771e-05 0)
(-1.80621 -8.17185e-06 0)
(-1.80593 6.17397e-06 0)
(-2.05003 0.000379058 0)
(-2.05063 -6.51235e-05 0)
(-2.053 -4.75186e-05 0)
(-2.04589 -0.000213656 0)
(-2.05293 -7.86818e-05 0)
(-2.04298 -3.27404e-05 0)
(-2.05317 -6.24066e-05 0)
(-2.0425 5.25007e-05 0)
(-2.05267 -7.26386e-05 0)
(-2.04332 7.06912e-05 0)
(-2.05149 -6.78133e-05 0)
(-2.04464 5.94527e-05 0)
(-2.05016 -4.97405e-05 0)
(-2.04588 3.95428e-05 0)
(-2.04908 -3.01868e-05 0)
(-2.04677 2.23226e-05 0)
(-2.04837 -1.65304e-05 0)
(-2.04731 1.20672e-05 0)
(-2.04798 -7.27978e-06 0)
(-2.04765 4.82361e-06 0)
(-2.17507 0.000452264 0)
(-2.17488 -4.82636e-05 0)
(-2.17836 -0.000119656 0)
(-2.16959 -0.000255776 0)
(-2.17862 -0.000126428 0)
(-2.16655 -3.7755e-05 0)
(-2.17888 -7.70262e-05 0)
(-2.1662 5.41727e-05 0)
(-2.17818 -7.4552e-05 0)
(-2.16729 6.87903e-05 0)
(-2.17672 -6.45004e-05 0)
(-2.16887 5.50687e-05 0)
(-2.17514 -4.51087e-05 0)
(-2.17031 3.51407e-05 0)
(-2.1739 -2.63512e-05 0)
(-2.17133 1.92214e-05 0)
(-2.1731 -1.42655e-05 0)
(-2.17193 1.07983e-05 0)
(-2.17267 -5.32836e-06 0)
(-2.17231 2.53079e-06 0)
(-2.18315 0.000502771 0)
(-2.18197 -2.44525e-05 0)
(-2.18669 -0.000201606 0)
(-2.17645 -0.000288389 0)
(-2.18737 -0.000174966 0)
(-2.17347 -4.24365e-05 0)
(-2.18765 -8.76212e-05 0)
(-2.1733 5.06005e-05 0)
(-2.18674 -6.99776e-05 0)
(-2.17463 6.03124e-05 0)
(-2.18504 -5.49707e-05 0)
(-2.17644 4.52539e-05 0)
(-2.18327 -3.59818e-05 0)
(-2.17804 2.72101e-05 0)
(-2.1819 -1.98625e-05 0)
(-2.17915 1.42063e-05 0)
(-2.18104 -1.06446e-05 0)
(-2.1798 8.73015e-06 0)
(-2.18058 -2.67331e-06 0)
(-2.1802 -3.80368e-07 0)
(-2.0737 0.000526102 0)
(-2.07139 4.41941e-06 0)
(-2.0774 -0.000284803 0)
(-2.06599 -0.000309376 0)
(-2.07858 -0.000219692 0)
(-2.06323 -4.68408e-05 0)
(-2.07888 -9.32495e-05 0)
(-2.06327 4.21802e-05 0)
(-2.07779 -5.95976e-05 0)
(-2.06482 4.63555e-05 0)
(-2.0759 -4.04534e-05 0)
(-2.0668 3.12475e-05 0)
(-2.07399 -2.34961e-05 0)
(-2.06851 1.67232e-05 0)
(-2.07254 -1.15054e-05 0)
(-2.06968 7.87732e-06 0)
(-2.07163 -6.10821e-06 0)
(-2.07036 6.1178e-06 0)
(-2.07116 3.71379e-07 0)
(-2.07077 -3.64929e-06 0)
(-1.84536 0.000520351 0)
(-1.8419 3.64855e-05 0)
(-1.84914 -0.000360867 0)
(-1.83692 -0.000317156 0)
(-1.85087 -0.000256623 0)
(-1.83455 -5.07189e-05 0)
(-1.8512 -9.35482e-05 0)
(-1.83479 2.97777e-05 0)
(-1.84998 -4.45194e-05 0)
(-1.8365 2.83272e-05 0)
(-1.84795 -2.2386e-05 0)
(-1.83859 1.4405e-05 0)
(-1.84596 -8.83584e-06 0)
(-1.84037 4.65426e-06 0)
(-1.84447 -2.041e-06 0)
(-1.84157 7.99655e-07 0)
(-1.84354 -1.06202e-06 0)
(-1.84226 3.16721e-06 0)
(-1.84305 3.51048e-06 0)
(-1.84267 -7.04371e-06 0)
(-1.49612 0.000486385 0)
(-1.49159 6.96746e-05 0)
(-1.4999 -0.00042238 0)
(-1.48731 -0.000310838 0)
(-1.50219 -0.000282614 0)
(-1.48542 -5.35436e-05 0)
(-1.50258 -8.87201e-05 0)
(-1.48586 1.46618e-05 0)
(-1.50128 -2.6202e-05 0)
(-1.48766 7.8708e-06 0)
(-1.49919 -2.35326e-06 0)
(-1.4898 -3.84802e-06 0)
(-1.49717 6.79685e-06 0)
(-1.49159 -8.03806e-06 0)
(-1.49567 7.80065e-06 0)
(-1.49279 -6.49749e-06 0)
(-1.49474 4.12262e-06 0)
(-1.49348 5.53003e-08 0)
(-1.49425 6.48498e-06 0)
(-1.49388 -1.03466e-05 0)
(-1.02352 0.00042769 0)
(-1.01811 0.000101647 0)
(-1.02719 -0.000463591 0)
(-1.01472 -0.000290355 0)
(-1.03004 -0.000295542 0)
(-1.01337 -5.45985e-05 0)
(-1.03051 -7.94592e-05 0)
(-1.01396 -1.62663e-06 0)
(-1.0292 -6.32564e-06 0)
(-1.01579 -1.32557e-05 0)
(-1.02712 1.80143e-05 0)
(-1.01791 -2.20931e-05 0)
(-1.02513 2.22372e-05 0)
(-1.01967 -2.04456e-05 0)
(-1.02366 1.73417e-05 0)
(-1.02085 -1.35315e-05 0)
(-1.02275 9.1152e-06 0)
(-1.02152 -3.05726e-06 0)
(-1.02226 9.0923e-06 0)
(-1.0219 -1.33473e-05 0)
(-0.424879 0.000350001 0)
(-0.418859 0.000129851 0)
(-0.428355 -0.000480909 0)
(-0.416444 -0.000256636 0)
(-0.431689 -0.000294428 0)
(-0.41565 -5.31437e-05 0)
(-0.432271 -6.68433e-05 0)
(-0.416349 -1.74286e-05 0)
(-0.431012 1.33363e-05 0)
(-0.418134 -3.32891e-05 0)
(-0.42901 3.71209e-05 0)
(-0.420174 -3.89738e-05 0)
(-0.427098 3.63911e-05 0)
(-0.421862 -3.17288e-05 0)
(-0.425685 2.59638e-05 0)
(-0.422993 -1.98672e-05 0)
(-0.424814 1.36243e-05 0)
(-0.423644 -6.01489e-06 0)
(-0.424337 1.11959e-05 0)
(-0.424002 -1.58339e-05 0)
(0.302432 0.000260807 0)
(0.308748 0.000151676 0)
(0.299257 -0.000473131 0)
(0.310182 -0.000211808 0)
(0.295546 -0.000279499 0)
(0.310452 -4.86309e-05 0)
(0.294839 -5.22132e-05 0)
(0.309702 -3.11249e-05 0)
(0.295985 3.10332e-05 0)
(0.308027 -5.05506e-05 0)
(0.297846 5.34638e-05 0)
(0.306125 -5.32291e-05 0)
(0.299631 4.82508e-05 0)
(0.304547 -4.11199e-05 0)
(0.300954 3.31051e-05 0)
(0.303486 -2.51109e-05 0)
(0.301774 1.73895e-05 0)
(0.30287 -8.66105e-06 0)
(0.302235 1.27193e-05 0)
(0.302536 -1.75938e-05 0)
(1.16075 0.000168715 0)
(1.16701 0.000164729 0)
(1.15796 -0.000441413 0)
(1.16756 -0.000159321 0)
(1.15404 -0.000252182 0)
(1.16738 -4.09316e-05 0)
(1.15321 -3.70413e-05 0)
(1.16664 -4.12983e-05 0)
(1.1542 4.51494e-05 0)
(1.16513 -6.35306e-05 0)
(1.15586 6.56852e-05 0)
(1.16342 -6.37212e-05 0)
(1.15747 5.69058e-05 0)
(1.16199 -4.79239e-05 0)
(1.15868 3.82558e-05 0)
(1.16101 -2.89032e-05 0)
(1.15944 2.01721e-05 0)
(1.16044 -1.08366e-05 0)
(1.15987 1.36235e-05 0)
(1.16013 -1.84275e-05 0)
(2.15187 8.26113e-05 0)
(2.15774 0.000167217 0)
(2.14952 -0.000389031 0)
(2.15755 -0.000103899 0)
(2.1456 -0.00021501 0)
(2.15704 -3.05251e-05 0)
(2.14469 -2.2794e-05 0)
(2.15636 -4.6892e-05 0)
(2.14548 5.43263e-05 0)
(2.15508 -7.09898e-05 0)
(2.1469 7.26435e-05 0)
(2.1536 -6.94834e-05 0)
(2.14831 6.15707e-05 0)
(2.15234 -5.15322e-05 0)
(2.14938 4.0962e-05 0)
(2.15147 -3.09175e-05 0)
(2.15005 2.17477e-05 0)
(2.15095 -1.23796e-05 0)
(2.15046 1.38761e-05 0)
(2.15067 -1.81769e-05 0)
(3.27688 1.08947e-05 0)
(3.28203 0.000158146 0)
(3.27499 -0.000320817 0)
(3.28132 -5.12893e-05 0)
(3.27131 -0.000171344 0)
(3.28063 -1.86116e-05 0)
(3.27038 -1.07961e-05 0)
(3.28006 -4.7307e-05 0)
(3.27096 5.7529e-05 0)
(3.27903 -7.19962e-05 0)
(3.27211 7.34255e-05 0)
(3.27781 -6.97142e-05 0)
(3.27328 6.15685e-05 0)
(3.27675 -5.14004e-05 0)
(3.27419 4.08035e-05 0)
(3.27601 -3.08384e-05 0)
(3.27477 2.18854e-05 0)
(3.27556 -1.3106e-05 0)
(3.27514 1.3412e-05 0)
(3.27531 -1.6758e-05 0)
(4.53602 -3.87208e-05 0)
(4.54019 0.000136975 0)
(4.53458 -0.000242105 0)
(4.53921 -8.01612e-06 0)
(4.53141 -0.0001248 0)
(4.53849 -7.05696e-06 0)
(4.53054 -2.1403e-06 0)
(4.53807 -4.23309e-05 0)
(4.53092 5.39357e-05 0)
(4.53731 -6.57635e-05 0)
(4.53178 6.7166e-05 0)
(4.53637 -6.35979e-05 0)
(4.5327 5.61647e-05 0)
(4.53553 -4.69038e-05 0)
(4.53342 3.72738e-05 0)
(4.53493 -2.82674e-05 0)
(4.5339 2.02715e-05 0)
(4.53455 -1.27413e-05 0)
(4.53422 1.20793e-05 0)
(4.53434 -1.4162e-05 0)
(5.9287 -5.95578e-05 0)
(5.93173 0.000103209 0)
(5.92769 -0.000158852 0)
(5.93071 1.85945e-05 0)
(5.92525 -7.89433e-05 0)
(5.9301 1.58101e-06 0)
(5.92454 2.5114e-06 0)
(5.92984 -3.22116e-05 0)
(5.92475 4.3017e-05 0)
(5.92934 -5.16788e-05 0)
(5.92533 5.30409e-05 0)
(5.9287 -5.02526e-05 0)
(5.92597 4.44921e-05 0)
(5.92809 -3.72598e-05 0)
(5.9265 2.9702e-05 0)
(5.92765 -2.26373e-05 0)
(5.92686 1.64306e-05 0)
(5.92736 -1.08137e-05 0)
(5.92712 9.60587e-06 0)
(5.9272 -1.04634e-05 0)
(7.45355 -4.87041e-05 0)
(7.45535 5.94456e-05 0)
(7.45293 -7.92747e-05 0)
(7.45455 2.38447e-05 0)
(7.45142 -3.8025e-05 0)
(7.45415 5.03739e-06 0)
(7.45096 3.10828e-06 0)
(7.45403 -1.83252e-05 0)
(7.45104 2.57679e-05 0)
(7.45378 -3.07571e-05 0)
(7.45135 3.18179e-05 0)
(7.45341 -3.02751e-05 0)
(7.45172 2.69343e-05 0)
(7.45306 -2.26546e-05 0)
(7.45204 1.81478e-05 0)
(7.45278 -1.39326e-05 0)
(7.45227 1.02444e-05 0)
(7.4526 -7.04088e-06 0)
(7.45244 5.90243e-06 0)
(7.45249 -5.96628e-06 0)
(9.10859 -1.78442e-05 0)
(9.10915 1.77672e-05 0)
(9.10836 -2.12675e-05 0)
(9.10881 1.00722e-05 0)
(9.10786 -9.83712e-06 0)
(9.10868 2.49128e-06 0)
(9.10771 1.26472e-06 0)
(9.10867 -5.40972e-06 0)
(9.10771 7.9382e-06 0)
(9.1086 -9.4654e-06 0)
(9.1078 9.86991e-06 0)
(9.1085 -9.41909e-06 0)
(9.10791 8.42164e-06 0)
(9.10838 -7.12576e-06 0)
(9.10802 5.73552e-06 0)
(9.10829 -4.42311e-06 0)
(9.1081 3.28982e-06 0)
(9.10822 -2.32141e-06 0)
(9.10816 1.88547e-06 0)
(9.10818 -1.80768e-06 0)
)
;

boundaryField
{
    top
    {
        type            fixedValue;
        value           uniform (10 0 0);
    }
    bottom
    {
        type            fixedValue;
        value           uniform (0 0 0);
    }
    inlet
    {
        type            zeroGradient;
    }
    outlet
    {
        type            zeroGradient;
    }
    frontAndBack
    {
        type            empty;
    }
}


// ************************************************************************* //
