/*--------------------------------*- C++ -*----------------------------------*\
| =========                 |                                                 |
| \\      /  F ield         | OpenFOAM: The Open Source CFD Toolbox           |
|  \\    /   O peration     | Version:  4.1                                   |
|   \\  /    A nd           | Web:      www.OpenFOAM.org                      |
|    \\/     M anipulation  |                                                 |
\*---------------------------------------------------------------------------*/
FoamFile
{
    version     2.0;
    format      ascii;
    class       surfaceScalarField;
    location    "4.5";
    object      phi;
}
// * * * * * * * * * * * * * * * * * * * * * * * * * * * * * * * * * * * * * //

dimensions      [0 3 -1 0 0 0 0];

internalField   nonuniform List<scalar> 
760
(
-1.91641e-05
-1.56539e-12
-1.91641e-05
-2.33185e-13
-1.91641e-05
-7.38711e-12
-1.91641e-05
-2.96296e-12
-1.91641e-05
-1.22084e-11
-1.91641e-05
-4.94206e-12
-1.91641e-05
-1.57972e-11
-1.91641e-05
-6.24631e-12
-1.91641e-05
-1.75942e-11
-1.91641e-05
-6.9459e-12
-1.91641e-05
-1.75536e-11
-1.91641e-05
-7.07515e-12
-1.91641e-05
-1.58071e-11
-1.91641e-05
-6.75968e-12
-1.91641e-05
-1.26414e-11
-1.91641e-05
-6.03098e-12
-1.91641e-05
-8.59825e-12
-1.91641e-05
-4.76309e-12
-1.91641e-05
-4.05285e-12
-3.29584e-12
-5.11594e-05
-4.27666e-12
-5.11594e-05
-3.28079e-12
-5.11594e-05
-1.6734e-11
-5.11594e-05
-1.06883e-11
-5.11594e-05
-2.71276e-11
-5.11594e-05
-1.59238e-11
-5.11594e-05
-3.46489e-11
-5.11594e-05
-1.91818e-11
-5.11594e-05
-3.82802e-11
-5.11594e-05
-2.05482e-11
-5.11594e-05
-3.80081e-11
-5.11594e-05
-2.01497e-11
-5.11594e-05
-3.41349e-11
-5.11594e-05
-1.83248e-11
-5.11594e-05
-2.72778e-11
-5.11594e-05
-1.52886e-11
-5.11594e-05
-1.85702e-11
-5.11594e-05
-1.11376e-11
-5.11594e-05
-8.69153e-12
-6.61093e-12
-7.68219e-05
-7.68104e-12
-7.68219e-05
-8.27864e-12
-7.68219e-05
-2.71291e-11
-7.68219e-05
-2.14992e-11
-7.68219e-05
-4.32922e-11
-7.68219e-05
-3.0763e-11
-7.68219e-05
-5.47258e-11
-7.68219e-05
-3.63384e-11
-7.68219e-05
-6.00646e-11
-7.68219e-05
-3.83062e-11
-7.68219e-05
-5.93677e-11
-7.68219e-05
-3.69223e-11
-7.68219e-05
-5.3154e-11
-7.68219e-05
-3.27916e-11
-7.68219e-05
-4.24086e-11
-7.68219e-05
-2.642e-11
-7.68219e-05
-2.88361e-11
-7.68219e-05
-1.83252e-11
-7.68219e-05
-1.33425e-11
-9.78699e-12
-9.61516e-05
-1.14212e-11
-9.61516e-05
-1.46501e-11
-9.61516e-05
-3.77438e-11
-9.61516e-05
-3.46244e-11
-9.61516e-05
-5.96676e-11
-9.61516e-05
-4.85158e-11
-9.61516e-05
-7.49035e-11
-9.61516e-05
-5.67222e-11
-9.61516e-05
-8.18451e-11
-9.61516e-05
-5.92704e-11
-9.61516e-05
-8.06598e-11
-9.61516e-05
-5.65654e-11
-9.61516e-05
-7.20957e-11
-9.61516e-05
-4.95158e-11
-9.61516e-05
-5.75179e-11
-9.61516e-05
-3.89982e-11
-9.61516e-05
-3.91509e-11
-9.61516e-05
-2.61454e-11
-9.61516e-05
-1.80118e-11
-1.29159e-11
-0.000109148
-1.48983e-11
-0.000109148
-2.08997e-11
-0.000109148
-4.70686e-11
-0.000109148
-4.71932e-11
-0.000109148
-7.39162e-11
-0.000109148
-6.53961e-11
-0.000109148
-9.23312e-11
-0.000109148
-7.60397e-11
-0.000109148
-1.00559e-10
-0.000109148
-7.90766e-11
-0.000109148
-9.88865e-11
-0.000109148
-7.50518e-11
-0.000109148
-8.8268e-11
-0.000109148
-6.51548e-11
-0.000109148
-7.04091e-11
-0.000109148
-5.06192e-11
-0.000109148
-4.79542e-11
-0.000109148
-3.32418e-11
-0.000109148
-2.19037e-11
-1.55766e-11
-0.000115812
-1.7979e-11
-0.000115813
-2.66561e-11
-0.000115813
-5.48822e-11
-0.000115813
-5.86266e-11
-0.000115813
-8.57311e-11
-0.000115813
-8.06961e-11
-0.000115813
-1.06667e-10
-0.000115813
-9.35246e-11
-0.000115813
-1.15863e-10
-0.000115813
-9.69776e-11
-0.000115813
-1.1373e-10
-0.000115813
-9.17225e-11
-0.000115813
-1.01399e-10
-0.000115813
-7.91948e-11
-0.000115813
-8.08699e-11
-0.000115813
-6.09553e-11
-0.000115813
-5.50994e-11
-0.000115813
-3.94682e-11
-0.000115813
-2.49876e-11
-1.77406e-11
-0.000116144
-2.06018e-11
-0.000116144
-3.15998e-11
-0.000116144
-6.10008e-11
-0.000116144
-6.83254e-11
-0.000116144
-9.48049e-11
-0.000116144
-9.3631e-11
-0.000116144
-1.17532e-10
-0.000116144
-1.08291e-10
-0.000116144
-1.27349e-10
-0.000116144
-1.12078e-10
-0.000116144
-1.24787e-10
-0.000116144
-1.0576e-10
-0.000116144
-1.11117e-10
-0.000116144
-9.09678e-11
-0.000116144
-8.85814e-11
-0.000116144
-6.95439e-11
-0.000116144
-6.034e-11
-0.000116144
-4.45731e-11
-0.000116144
-2.71536e-11
-1.93053e-11
-0.000110142
-2.27485e-11
-0.000110142
-3.55748e-11
-0.000110142
-6.53807e-11
-0.000110142
-7.59829e-11
-0.000110142
-1.01057e-10
-0.000110142
-1.03794e-10
-0.000110142
-1.24832e-10
-0.000110142
-1.19876e-10
-0.000110142
-1.34919e-10
-0.000110142
-1.23909e-10
-0.000110142
-1.31958e-10
-0.000110142
-1.16732e-10
-0.000110142
-1.17331e-10
-0.000110142
-1.00122e-10
-0.000110142
-9.34595e-11
-0.000110142
-7.61438e-11
-0.000110142
-6.36023e-11
-0.000110142
-4.84225e-11
-0.000110142
-2.8384e-11
-2.02152e-11
-9.78078e-05
-2.44053e-11
-9.78078e-05
-3.84869e-11
-9.78078e-05
-6.80032e-11
-9.78078e-05
-8.14082e-11
-9.78078e-05
-1.04474e-10
-9.78078e-05
-1.10928e-10
-9.78078e-05
-1.28564e-10
-9.78078e-05
-1.27981e-10
-9.78078e-05
-1.38583e-10
-9.78078e-05
-1.32163e-10
-9.78078e-05
-1.35265e-10
-9.78078e-05
-1.24356e-10
-9.78078e-05
-1.20065e-10
-9.78078e-05
-1.06422e-10
-9.78078e-05
-9.55213e-11
-9.78078e-05
-8.05939e-11
-9.78078e-05
-6.48964e-11
-9.78078e-05
-5.09196e-11
-9.78078e-05
-2.87107e-11
-2.04506e-11
-7.91406e-05
-2.55414e-11
-7.91406e-05
-4.02695e-11
-7.91406e-05
-6.88424e-11
-7.91406e-05
-8.44595e-11
-7.91406e-05
-1.05053e-10
-7.91406e-05
-1.14838e-10
-7.91406e-05
-1.28754e-10
-7.91406e-05
-1.32381e-10
-7.91406e-05
-1.38392e-10
-7.91406e-05
-1.36606e-10
-7.91406e-05
-1.34772e-10
-7.91406e-05
-1.28411e-10
-7.91406e-05
-1.1939e-10
-7.91406e-05
-1.09686e-10
-7.91406e-05
-9.48304e-11
-7.91406e-05
-8.27664e-11
-7.91406e-05
-6.42763e-11
-7.91406e-05
-5.19849e-11
-7.91406e-05
-2.81868e-11
-2.00253e-11
-5.41406e-05
-2.61119e-11
-5.41406e-05
-4.08811e-11
-5.41406e-05
-6.78821e-11
-5.41406e-05
-8.50477e-11
-5.41406e-05
-1.02831e-10
-5.41406e-05
-1.15403e-10
-5.41406e-05
-1.2548e-10
-5.41406e-05
-1.32935e-10
-5.41406e-05
-1.34457e-10
-5.41406e-05
-1.37092e-10
-5.41406e-05
-1.30613e-10
-5.41406e-05
-1.28762e-10
-5.41406e-05
-1.15444e-10
-5.41406e-05
-1.09804e-10
-5.41406e-05
-9.15105e-11
-5.41406e-05
-8.25872e-11
-5.41406e-05
-6.18451e-11
-5.41406e-05
-5.1574e-11
-5.41406e-05
-2.68839e-11
-1.89923e-11
-2.28078e-05
-2.60615e-11
-2.28078e-05
-4.03013e-11
-2.28078e-05
-6.51318e-11
-2.28078e-05
-8.3133e-11
-2.28078e-05
-9.78912e-11
-2.28078e-05
-1.12578e-10
-2.28078e-05
-1.18886e-10
-2.28078e-05
-1.29593e-10
-2.28078e-05
-1.26962e-10
-2.28078e-05
-1.33571e-10
-2.28078e-05
-1.22991e-10
-2.28078e-05
-1.25361e-10
-2.28078e-05
-1.0843e-10
-2.28078e-05
-1.06742e-10
-2.28078e-05
-8.57392e-11
-2.28078e-05
-8.00412e-11
-2.28078e-05
-5.77458e-11
-2.28078e-05
-4.9687e-11
-2.28078e-05
-2.48807e-11
-1.74344e-11
1.48578e-05
-2.53328e-11
1.48578e-05
-3.85264e-11
1.48578e-05
-6.06392e-11
1.48578e-05
-7.87241e-11
1.48578e-05
-9.03709e-11
1.48578e-05
-1.06387e-10
1.48578e-05
-1.09178e-10
1.48578e-05
-1.22388e-10
1.48578e-05
-1.1616e-10
1.48578e-05
-1.26082e-10
1.48578e-05
-1.12175e-10
1.48578e-05
-1.18251e-10
1.48578e-05
-9.86054e-11
1.48578e-05
-1.00545e-10
1.48578e-05
-7.77389e-11
1.48578e-05
-7.5173e-11
1.48578e-05
-5.21483e-11
1.48578e-05
-4.63711e-11
1.48578e-05
-2.22525e-11
-1.54645e-11
5.88562e-05
-2.38647e-11
5.88562e-05
-3.55538e-11
5.88562e-05
-5.44828e-11
5.88562e-05
-7.18585e-11
5.88562e-05
-8.04404e-11
5.88562e-05
-9.69031e-11
5.88563e-05
-9.65994e-11
5.88562e-05
-1.11409e-10
5.88563e-05
-1.02334e-10
5.88562e-05
-1.14721e-10
5.88563e-05
-9.84633e-11
5.88562e-05
-1.07528e-10
5.88563e-05
-8.62497e-11
5.88562e-05
-9.1308e-11
5.88563e-05
-6.77451e-11
5.88562e-05
-6.80661e-11
5.88563e-05
-4.5223e-11
5.88562e-05
-4.17073e-11
5.88562e-05
-1.90625e-11
-1.31787e-11
0.000109187
-2.16185e-11
0.000109187
-3.14128e-11
0.000109187
-4.68097e-11
0.000109187
-6.26578e-11
0.000109187
-6.83564e-11
0.000109187
-8.43036e-11
0.000109187
-8.14914e-11
0.000109187
-9.68646e-11
0.000109188
-8.5871e-11
0.000109187
-9.97039e-11
0.000109188
-8.22464e-11
0.000109187
-9.3398e-11
0.000109188
-7.17201e-11
0.000109187
-7.92117e-11
0.000109188
-5.60526e-11
0.000109187
-5.88685e-11
0.000109188
-3.71712e-11
0.000109187
-3.58191e-11
0.000109187
-1.53777e-11
-1.06767e-11
0.000165852
-1.86151e-11
0.000165852
-2.6218e-11
0.000165852
-3.79179e-11
0.000165852
-5.14378e-11
0.000165852
-5.45968e-11
0.000165852
-6.90194e-11
0.000165852
-6.44696e-11
0.000165852
-7.92426e-11
0.000165852
-6.74528e-11
0.000165852
-8.15289e-11
0.000165852
-6.42051e-11
0.000165852
-7.63254e-11
0.000165852
-5.56332e-11
0.000165852
-6.46496e-11
0.000165852
-4.31645e-11
0.000165852
-4.78829e-11
0.000165852
-2.83339e-11
0.000165852
-2.89184e-11
0.000165852
-1.13443e-11
-8.05466e-12
0.000228848
-1.47614e-11
0.000228848
-1.99025e-11
0.000228848
-2.78437e-11
0.000228848
-3.82454e-11
0.000228848
-3.92453e-11
0.000228848
-5.11379e-11
0.000228848
-4.56639e-11
0.000228848
-5.86591e-11
0.000228848
-4.72358e-11
0.000228848
-6.03259e-11
0.000228848
-4.45043e-11
0.000228848
-5.64419e-11
0.000228848
-3.81464e-11
0.000228848
-4.77426e-11
0.000228848
-2.92181e-11
0.000228848
-3.52159e-11
0.000228848
-1.88109e-11
0.000228848
-2.10981e-11
0.000228848
-7.00377e-12
-5.36711e-12
0.000298178
-1.05074e-11
0.000298178
-1.34479e-11
0.000298178
-1.81928e-11
0.000298178
-2.51123e-11
0.000298178
-2.49446e-11
0.000298178
-3.33959e-11
0.000298178
-2.84677e-11
0.000298178
-3.82256e-11
0.000298178
-2.8996e-11
0.000298178
-3.92641e-11
0.000298178
-2.6931e-11
0.000298178
-3.66886e-11
0.000298178
-2.272e-11
0.000298178
-3.09677e-11
0.000298178
-1.70605e-11
0.000298178
-2.27237e-11
0.000298178
-1.06217e-11
0.000298178
-1.34849e-11
0.000298178
-3.44143e-12
-3.00821e-12
0.000373841
-5.63331e-12
0.000373841
-6.54681e-12
0.000373841
-8.53359e-12
0.000373841
-1.17509e-11
0.000373841
-1.11487e-11
0.000373841
-1.55049e-11
0.000373841
-1.22549e-11
0.000373841
-1.77111e-11
0.000373841
-1.20899e-11
0.000373841
-1.81836e-11
0.000373841
-1.08829e-11
0.000373841
-1.69776e-11
0.000373841
-8.8486e-12
0.000373841
-1.42988e-11
0.000373841
-6.30963e-12
0.000373841
-1.04234e-11
0.000373841
-3.56887e-12
0.000373841
-6.12659e-12
0.000373841
-6.02303e-13
-1.07589e-12
0.000455836
0.000455836
0.000455836
0.000455836
0.000455836
0.000455836
0.000455836
0.000455836
0.000455836
0.000455836
0.000455836
0.000455836
0.000455836
0.000455836
0.000455836
0.000455836
0.000455836
0.000455836
0.000455836
)
;

boundaryField
{
    top
    {
        type            calculated;
        value           uniform 0;
    }
    bottom
    {
        type            calculated;
        value           uniform 0;
    }
    inlet
    {
        type            calculated;
        value           nonuniform List<scalar> 
20
(
1.91641e-05
5.11594e-05
7.68219e-05
9.61516e-05
0.000109148
0.000115812
0.000116144
0.000110142
9.78078e-05
7.91406e-05
5.41406e-05
2.28078e-05
-1.48578e-05
-5.88562e-05
-0.000109187
-0.000165852
-0.000228848
-0.000298178
-0.000373841
-0.000455836
)
;
    }
    outlet
    {
        type            calculated;
        value           nonuniform List<scalar> 
20
(
-1.91641e-05
-5.11594e-05
-7.68219e-05
-9.61516e-05
-0.000109148
-0.000115813
-0.000116144
-0.000110142
-9.78078e-05
-7.91406e-05
-5.41406e-05
-2.28078e-05
1.48578e-05
5.88562e-05
0.000109188
0.000165852
0.000228848
0.000298178
0.000373841
0.000455836
)
;
    }
    frontAndBack
    {
        type            empty;
        value           nonuniform 0();
    }
}


// ************************************************************************* //
