/*--------------------------------*- C++ -*----------------------------------*\
| =========                 |                                                 |
| \\      /  F ield         | OpenFOAM: The Open Source CFD Toolbox           |
|  \\    /   O peration     | Version:  4.1                                   |
|   \\  /    A nd           | Web:      www.OpenFOAM.org                      |
|    \\/     M anipulation  |                                                 |
\*---------------------------------------------------------------------------*/
FoamFile
{
    version     2.0;
    format      ascii;
    class       volVectorField;
    location    "4.5";
    object      U;
}
// * * * * * * * * * * * * * * * * * * * * * * * * * * * * * * * * * * * * * //

dimensions      [0 1 -1 0 0 0 0];

internalField   nonuniform List<vector> 
400
(
(-0.383281 -7.44492e-10 0)
(-0.383281 -2.29255e-13 0)
(-0.383281 -3.65632e-09 0)
(-0.383281 -1.29724e-09 0)
(-0.383281 -6.07793e-09 0)
(-0.383281 -2.25141e-09 0)
(-0.383281 -7.8916e-09 0)
(-0.383281 -2.89052e-09 0)
(-0.383281 -8.80801e-09 0)
(-0.383281 -3.25067e-09 0)
(-0.383281 -8.80507e-09 0)
(-0.383281 -3.34641e-09 0)
(-0.383281 -7.94153e-09 0)
(-0.383281 -3.23694e-09 0)
(-0.383281 -6.35721e-09 0)
(-0.383281 -2.92938e-09 0)
(-0.383281 -4.32844e-09 0)
(-0.383281 -2.36101e-09 0)
(-0.383281 -2.05137e-09 0)
(-0.383281 -1.68502e-09 0)
(-1.02319 -2.78614e-09 0)
(-1.02319 -1.32155e-09 0)
(-1.02319 -1.18487e-08 0)
(-1.02319 -6.09504e-09 0)
(-1.02319 -1.93955e-08 0)
(-1.02319 -9.52102e-09 0)
(-1.02319 -2.49414e-08 0)
(-1.02319 -1.17113e-08 0)
(-1.02319 -2.76717e-08 0)
(-1.02319 -1.27551e-08 0)
(-1.02319 -2.7551e-08 0)
(-1.02319 -1.2725e-08 0)
(-1.02319 -2.47839e-08 0)
(-1.02319 -1.18395e-08 0)
(-1.02319 -1.98124e-08 0)
(-1.02319 -1.01953e-08 0)
(-1.02319 -1.34804e-08 0)
(-1.02319 -7.74094e-09 0)
(-1.02319 -6.3355e-09 0)
(-1.02319 -4.97795e-09 0)
(-1.53644 -5.88888e-09 0)
(-1.53644 -5.48635e-09 0)
(-1.53644 -2.18575e-08 0)
(-1.53644 -1.56358e-08 0)
(-1.53644 -3.51511e-08 0)
(-1.53644 -2.27938e-08 0)
(-1.53644 -4.46645e-08 0)
(-1.53644 -2.71682e-08 0)
(-1.53644 -4.9184e-08 0)
(-1.53644 -2.88525e-08 0)
(-1.53644 -4.87244e-08 0)
(-1.53644 -2.80335e-08 0)
(-1.53644 -4.36925e-08 0)
(-1.53644 -2.51758e-08 0)
(-1.53644 -3.48875e-08 0)
(-1.53644 -2.06242e-08 0)
(-1.53644 -2.37359e-08 0)
(-1.53644 -1.46493e-08 0)
(-1.53644 -1.10521e-08 0)
(-1.53644 -8.24975e-09 0)
(-1.92303 -9.52811e-09 0)
(-1.92303 -1.13116e-08 0)
(-1.92303 -3.24936e-08 0)
(-1.92303 -2.78545e-08 0)
(-1.92303 -5.16051e-08 0)
(-1.92303 -3.93946e-08 0)
(-1.92303 -6.50043e-08 0)
(-1.92303 -4.62697e-08 0)
(-1.92303 -7.11855e-08 0)
(-1.92303 -4.8539e-08 0)
(-1.92303 -7.02569e-08 0)
(-1.92303 -4.65317e-08 0)
(-1.92303 -6.28518e-08 0)
(-1.92303 -4.10022e-08 0)
(-1.92303 -5.01465e-08 0)
(-1.92303 -3.26345e-08 0)
(-1.92303 -3.41184e-08 0)
(-1.92303 -2.22289e-08 0)
(-1.92303 -1.57489e-08 0)
(-1.92303 -1.14027e-08 0)
(-2.18297 -1.32017e-08 0)
(-2.18297 -1.77873e-08 0)
(-2.18297 -4.26195e-08 0)
(-2.18297 -4.0977e-08 0)
(-2.18297 -6.71447e-08 0)
(-2.18297 -5.7064e-08 0)
(-2.18297 -8.40753e-08 0)
(-2.18297 -6.65126e-08 0)
(-2.18297 -9.17136e-08 0)
(-2.18297 -6.93166e-08 0)
(-2.18297 -9.02853e-08 0)
(-2.18297 -6.59529e-08 0)
(-2.18297 -8.06446e-08 0)
(-2.18297 -5.7474e-08 0)
(-2.18297 -6.43331e-08 0)
(-2.18297 -4.49363e-08 0)
(-2.18297 -4.38036e-08 0)
(-2.18297 -2.97947e-08 0)
(-2.18297 -2.0083e-08 0)
(-2.18297 -1.43237e-08 0)
(-2.31625 -1.652e-08 0)
(-2.31625 -2.39098e-08 0)
(-2.31625 -5.12921e-08 0)
(-2.31625 -5.31975e-08 0)
(-2.31625 -8.03345e-08 0)
(-2.31625 -7.34399e-08 0)
(-2.31625 -1.00147e-07 0)
(-2.31625 -8.5235e-08 0)
(-2.31625 -1.08924e-07 0)
(-2.31625 -8.84942e-08 0)
(-2.31625 -1.07016e-07 0)
(-2.31625 -8.38276e-08 0)
(-2.31625 -9.54705e-08 0)
(-2.31625 -7.25564e-08 0)
(-2.31625 -7.61508e-08 0)
(-2.31625 -5.60854e-08 0)
(-2.31625 -5.18785e-08 0)
(-2.31625 -3.65489e-08 0)
(-2.31625 -2.36163e-08 0)
(-2.31625 -1.67663e-08 0)
(-2.32287 -1.93825e-08 0)
(-2.32288 -2.93082e-08 0)
(-2.32288 -5.82852e-08 0)
(-2.32288 -6.38527e-08 0)
(-2.32288 -9.08196e-08 0)
(-2.32288 -8.7672e-08 0)
(-2.32288 -1.12794e-07 0)
(-2.32288 -1.01489e-07 0)
(-2.32288 -1.22367e-07 0)
(-2.32288 -1.05124e-07 0)
(-2.32288 -1.20011e-07 0)
(-2.32288 -9.92982e-08 0)
(-2.32288 -1.06935e-07 0)
(-2.32288 -8.55572e-08 0)
(-2.32288 -8.52703e-08 0)
(-2.32288 -6.56116e-08 0)
(-2.32288 -5.80964e-08 0)
(-2.32288 -4.22482e-08 0)
(-2.32288 -2.62477e-08 0)
(-2.32288 -1.86425e-08 0)
(-2.20284 -2.17713e-08 0)
(-2.20284 -3.37936e-08 0)
(-2.20284 -6.35443e-08 0)
(-2.20284 -7.25832e-08 0)
(-2.20284 -9.84963e-08 0)
(-2.20284 -9.92905e-08 0)
(-2.20284 -1.2189e-07 0)
(-2.20284 -1.14743e-07 0)
(-2.20284 -1.31907e-07 0)
(-2.20284 -1.18669e-07 0)
(-2.20284 -1.29136e-07 0)
(-2.20284 -1.11876e-07 0)
(-2.20284 -1.1491e-07 0)
(-2.20284 -9.60806e-08 0)
(-2.20284 -9.15729e-08 0)
(-2.20284 -7.32468e-08 0)
(-2.20284 -6.23543e-08 0)
(-2.20284 -4.67484e-08 0)
(-2.20284 -2.79436e-08 0)
(-2.20284 -1.98865e-08 0)
(-1.95616 -2.36773e-08 0)
(-1.95616 -3.72523e-08 0)
(-1.95616 -6.70507e-08 0)
(-1.95616 -7.91577e-08 0)
(-1.95616 -1.03333e-07 0)
(-1.95616 -1.07984e-07 0)
(-1.95616 -1.27405e-07 0)
(-1.95616 -1.24641e-07 0)
(-1.95616 -1.3752e-07 0)
(-1.95616 -1.28766e-07 0)
(-1.95616 -1.34368e-07 0)
(-1.95616 -1.21225e-07 0)
(-1.95616 -1.19375e-07 0)
(-1.95616 -1.03849e-07 0)
(-1.95616 -9.50352e-08 0)
(-1.95616 -7.88005e-08 0)
(-1.95616 -6.46264e-08 0)
(-1.95616 -4.99392e-08 0)
(-1.95616 -2.87133e-08 0)
(-1.95616 -2.04594e-08 0)
(-1.58281 -2.50801e-08 0)
(-1.58281 -3.96081e-08 0)
(-1.58281 -6.87842e-08 0)
(-1.58281 -8.34164e-08 0)
(-1.58281 -1.05326e-07 0)
(-1.58281 -1.13534e-07 0)
(-1.58281 -1.29354e-07 0)
(-1.58281 -1.30927e-07 0)
(-1.58281 -1.39238e-07 0)
(-1.58281 -1.35149e-07 0)
(-1.58281 -1.35754e-07 0)
(-1.58281 -1.27098e-07 0)
(-1.58281 -1.20383e-07 0)
(-1.58281 -1.08659e-07 0)
(-1.58281 -9.57015e-08 0)
(-1.58281 -8.21309e-08 0)
(-1.58281 -6.49474e-08 0)
(-1.58281 -5.17325e-08 0)
(-1.58281 -2.86019e-08 0)
(-1.58281 -2.03577e-08 0)
(-1.08281 -2.59419e-08 0)
(-1.08281 -4.08089e-08 0)
(-1.08281 -6.87223e-08 0)
(-1.08281 -8.52467e-08 0)
(-1.08281 -1.04492e-07 0)
(-1.08281 -1.15786e-07 0)
(-1.08281 -1.2779e-07 0)
(-1.08281 -1.33421e-07 0)
(-1.08281 -1.37146e-07 0)
(-1.08281 -1.37632e-07 0)
(-1.08281 -1.33395e-07 0)
(-1.08281 -1.29318e-07 0)
(-1.08281 -1.1804e-07 0)
(-1.08281 -1.10364e-07 0)
(-1.08281 -9.36677e-08 0)
(-1.08281 -8.31372e-08 0)
(-1.08281 -6.33989e-08 0)
(-1.08281 -5.20655e-08 0)
(-1.08281 -2.76748e-08 0)
(-1.08281 -1.96155e-08 0)
(-0.456156 -2.62123e-08 0)
(-0.456156 -4.0825e-08 0)
(-0.456156 -6.68593e-08 0)
(-0.456156 -8.45853e-08 0)
(-0.456156 -1.00889e-07 0)
(-0.456156 -1.14658e-07 0)
(-0.456156 -1.22822e-07 0)
(-0.456156 -1.3203e-07 0)
(-0.456156 -1.31391e-07 0)
(-0.456156 -1.36118e-07 0)
(-0.456156 -1.27461e-07 0)
(-0.456156 -1.27796e-07 0)
(-0.456156 -1.12518e-07 0)
(-0.456156 -1.08893e-07 0)
(-0.456156 -8.90862e-08 0)
(-0.456156 -8.17744e-08 0)
(-0.456156 -6.01061e-08 0)
(-0.456156 -5.09148e-08 0)
(-0.456156 -2.60091e-08 0)
(-0.456156 -1.83037e-08 0)
(0.297156 -2.58328e-08 0)
(0.297156 -3.96446e-08 0)
(0.297156 -6.32208e-08 0)
(0.297156 -8.14153e-08 0)
(0.297156 -9.46247e-08 0)
(0.297156 -1.10138e-07 0)
(0.297156 -1.14625e-07 0)
(0.297156 -1.26742e-07 0)
(0.297156 -1.22188e-07 0)
(0.297156 -1.30599e-07 0)
(0.297156 -1.18186e-07 0)
(0.297156 -1.22528e-07 0)
(0.297156 -1.04047e-07 0)
(0.297156 -1.04252e-07 0)
(0.297156 -8.21575e-08 0)
(0.297156 -7.80569e-08 0)
(0.297156 -5.52269e-08 0)
(0.297156 -4.83036e-08 0)
(0.297156 -2.36831e-08 0)
(0.297156 -1.65203e-08 0)
(1.17712 -2.47421e-08 0)
(1.17712 -3.72648e-08 0)
(1.17712 -5.78685e-08 0)
(1.17712 -7.57585e-08 0)
(1.17712 -8.58528e-08 0)
(1.17712 -1.02273e-07 0)
(1.17712 -1.03421e-07 0)
(1.17712 -1.17619e-07 0)
(1.17712 -1.09806e-07 0)
(1.17712 -1.21142e-07 0)
(1.17712 -1.05854e-07 0)
(1.17712 -1.13581e-07 0)
(1.17712 -9.28954e-08 0)
(1.17712 -9.65097e-08 0)
(1.17712 -7.31106e-08 0)
(1.17713 -7.20488e-08 0)
(1.17712 -4.8932e-08 0)
(1.17712 -4.42964e-08 0)
(1.17712 -2.07651e-08 0)
(1.17712 -1.43731e-08 0)
(2.18375 -2.28898e-08 0)
(2.18375 -3.3699e-08 0)
(2.18375 -5.09137e-08 0)
(2.18375 -6.76908e-08 0)
(2.18375 -7.47831e-08 0)
(2.18375 -9.11834e-08 0)
(2.18375 -8.94976e-08 0)
(2.18375 -1.04804e-07 0)
(2.18375 -9.45746e-08 0)
(2.18375 -1.07898e-07 0)
(2.18375 -9.08039e-08 0)
(2.18375 -1.01103e-07 0)
(2.18375 -7.93758e-08 0)
(2.18375 -8.57984e-08 0)
(2.18375 -6.22057e-08 0)
(2.18375 -6.38615e-08 0)
(2.18375 -4.14033e-08 0)
(2.18375 -3.89938e-08 0)
(2.18375 -1.73159e-08 0)
(2.18375 -1.19636e-08 0)
(3.31703 -2.02453e-08 0)
(3.31703 -2.89785e-08 0)
(3.31703 -4.25216e-08 0)
(3.31703 -5.7354e-08 0)
(3.31703 -6.16868e-08 0)
(3.31703 -7.70707e-08 0)
(3.31703 -7.32112e-08 0)
(3.31703 -8.8526e-08 0)
(3.31703 -7.68903e-08 0)
(3.31703 -9.11038e-08 0)
(3.31703 -7.3433e-08 0)
(3.31703 -8.53177e-08 0)
(3.31703 -6.38492e-08 0)
(3.31703 -7.23135e-08 0)
(3.31703 -4.97382e-08 0)
(3.31703 -5.36518e-08 0)
(3.31703 -3.28375e-08 0)
(3.31703 -3.25232e-08 0)
(3.31703 -1.34001e-08 0)
(3.31703 -9.37312e-09 0)
(4.57697 -1.6806e-08 0)
(4.57697 -2.31754e-08 0)
(4.57697 -3.29388e-08 0)
(4.57697 -4.50126e-08 0)
(4.57697 -4.69606e-08 0)
(4.57697 -6.03007e-08 0)
(4.57697 -5.50745e-08 0)
(4.57697 -6.92061e-08 0)
(4.57697 -5.73222e-08 0)
(4.57697 -7.11904e-08 0)
(4.57697 -5.43091e-08 0)
(4.57697 -6.66284e-08 0)
(4.57697 -4.68297e-08 0)
(4.57697 -5.63985e-08 0)
(4.57697 -3.61279e-08 0)
(4.57697 -4.16873e-08 0)
(4.57697 -2.3518e-08 0)
(4.57697 -2.50745e-08 0)
(4.57697 -9.13828e-09 0)
(4.57697 -6.68218e-09 0)
(5.96356 -1.27912e-08 0)
(5.96356 -1.67728e-08 0)
(5.96356 -2.30346e-08 0)
(5.96356 -3.1757e-08 0)
(5.96356 -3.20247e-08 0)
(5.96356 -4.23522e-08 0)
(5.96356 -3.69079e-08 0)
(5.96356 -4.85346e-08 0)
(5.96356 -3.78916e-08 0)
(5.96356 -4.98878e-08 0)
(5.96356 -3.54545e-08 0)
(5.96356 -4.66488e-08 0)
(5.96356 -3.01602e-08 0)
(5.96356 -3.9419e-08 0)
(5.96356 -2.28871e-08 0)
(5.96356 -2.90012e-08 0)
(5.96356 -1.45112e-08 0)
(5.96356 -1.7291e-08 0)
(5.96356 -5.09383e-09 0)
(5.96356 -4.11999e-09 0)
(7.47681 -8.20728e-09 0)
(7.47681 -1.00266e-08 0)
(7.47681 -1.32636e-08 0)
(7.47681 -1.83435e-08 0)
(7.47681 -1.77376e-08 0)
(7.47681 -2.42968e-08 0)
(7.47681 -1.98749e-08 0)
(7.47681 -2.77784e-08 0)
(7.47681 -1.99365e-08 0)
(7.47681 -2.85203e-08 0)
(7.47681 -1.82468e-08 0)
(7.47681 -2.66358e-08 0)
(7.47681 -1.51353e-08 0)
(7.47681 -2.24588e-08 0)
(7.47681 -1.11187e-08 0)
(7.47681 -1.64244e-08 0)
(7.47681 -6.65756e-09 0)
(7.47681 -9.69796e-09 0)
(7.47681 -1.75289e-09 0)
(7.47681 -1.9385e-09 0)
(9.11672 -2.91086e-09 0)
(9.11672 -3.35003e-09 0)
(9.11672 -4.32601e-09 0)
(9.11672 -5.95631e-09 0)
(9.11672 -5.59379e-09 0)
(9.11672 -7.84238e-09 0)
(9.11672 -6.10994e-09 0)
(9.11672 -8.94644e-09 0)
(9.11672 -5.99488e-09 0)
(9.11672 -9.17583e-09 0)
(9.11672 -5.36677e-09 0)
(9.11672 -8.56069e-09 0)
(9.11672 -4.33426e-09 0)
(9.11672 -7.20605e-09 0)
(9.11672 -3.06908e-09 0)
(9.11672 -5.24626e-09 0)
(9.11672 -1.70811e-09 0)
(9.11672 -3.0753e-09 0)
(9.11672 -2.52641e-10 0)
(9.11672 -5.05276e-10 0)
)
;

boundaryField
{
    top
    {
        type            fixedValue;
        value           uniform (10 0 0);
    }
    bottom
    {
        type            fixedValue;
        value           uniform (0 0 0);
    }
    inlet
    {
        type            zeroGradient;
    }
    outlet
    {
        type            zeroGradient;
    }
    frontAndBack
    {
        type            empty;
    }
}


// ************************************************************************* //
