/*--------------------------------*- C++ -*----------------------------------*\
| =========                 |                                                 |
| \\      /  F ield         | OpenFOAM: The Open Source CFD Toolbox           |
|  \\    /   O peration     | Version:  4.1                                   |
|   \\  /    A nd           | Web:      www.OpenFOAM.org                      |
|    \\/     M anipulation  |                                                 |
\*---------------------------------------------------------------------------*/
FoamFile
{
    version     2.0;
    format      ascii;
    class       surfaceScalarField;
    location    "2.2";
    object      phi;
}
// * * * * * * * * * * * * * * * * * * * * * * * * * * * * * * * * * * * * * //

dimensions      [0 3 -1 0 0 0 0];

internalField   nonuniform List<scalar> 
760
(
3.1664e-05
-8.63149e-13
3.1664e-05
4.2005e-13
3.1664e-05
-5.63881e-13
3.1664e-05
1.72964e-12
3.1664e-05
-4.05897e-12
3.1664e-05
4.09467e-12
3.1664e-05
-5.69359e-12
3.1664e-05
4.90624e-12
3.1664e-05
-7.01162e-12
3.1664e-05
4.18631e-12
3.1664e-05
-6.94354e-12
3.1664e-05
2.19427e-12
3.1664e-05
-6.37508e-12
3.1664e-05
-3.6323e-13
3.1664e-05
-5.78393e-12
3.1664e-05
-2.24671e-12
3.1664e-05
-4.78165e-12
3.1664e-05
-2.69449e-12
3.1664e-05
-2.33403e-12
-1.64336e-12
8.86592e-05
-1.60398e-12
8.86592e-05
9.99059e-13
8.86592e-05
-1.32528e-12
8.86592e-05
4.76073e-12
8.86592e-05
-8.52899e-12
8.86592e-05
1.03966e-11
8.86592e-05
-1.09333e-11
8.86591e-05
1.28931e-11
8.86592e-05
-1.16989e-11
8.86591e-05
1.23674e-11
8.86592e-05
-8.76366e-12
8.86591e-05
9.96888e-12
8.86592e-05
-4.49589e-12
8.86592e-05
7.26598e-12
8.86592e-05
-6.37557e-13
8.86592e-05
5.60173e-12
8.86592e-05
1.96202e-12
8.86592e-05
4.01183e-12
8.86592e-05
6.66822e-13
-3.08151e-12
0.000139322
-1.90205e-12
0.000139322
1.6914e-12
0.000139322
-2.02024e-12
0.000139322
7.98424e-12
0.000139322
-1.28255e-11
0.000139322
1.67495e-11
0.000139322
-1.56023e-11
0.000139322
2.09333e-11
0.000139322
-1.52351e-11
0.000139322
2.05693e-11
0.000139322
-8.81574e-12
0.000139322
1.7989e-11
0.000139322
-3.67757e-13
0.000139322
1.5632e-11
0.000139322
6.93509e-12
0.000139322
1.45509e-11
0.000139322
1.06795e-11
0.000139322
1.16389e-11
0.000139322
3.21571e-12
-6.12327e-12
0.000183651
-1.69823e-12
0.000183651
2.61756e-12
0.000183651
-2.60194e-12
0.000183651
1.0913e-11
0.000183651
-1.66474e-11
0.000183651
2.22863e-11
0.000183651
-1.96802e-11
0.000183651
2.79225e-11
0.000183651
-1.82338e-11
0.000183651
2.75713e-11
0.000183651
-8.68464e-12
0.000183651
2.47281e-11
0.000183651
3.43695e-12
0.000183651
2.26247e-11
0.000183651
1.36729e-11
0.000183651
2.20023e-11
0.000183651
1.82351e-11
0.000183651
1.80188e-11
0.000183651
4.65925e-12
-9.61656e-12
0.000221648
-9.89685e-13
0.000221648
3.88927e-12
0.000221648
-3.13691e-12
0.000221648
1.36417e-11
0.000221648
-2.01233e-11
0.000221648
2.70923e-11
0.000221648
-2.3404e-11
0.000221648
3.38992e-11
0.000221648
-2.10199e-11
0.000221648
3.33337e-11
0.000221648
-8.81604e-12
0.000221648
3.00139e-11
0.000221648
6.34204e-12
0.000221648
2.78882e-11
0.000221648
1.88867e-11
0.000221648
2.74364e-11
0.000221648
2.3943e-11
0.000221648
2.25834e-11
0.000221648
4.89353e-12
-1.34335e-11
0.000253312
1.71947e-13
0.000253312
5.5244e-12
0.000253312
-3.66133e-12
0.000253312
1.61711e-11
0.000253312
-2.31401e-11
0.000253312
3.11501e-11
0.000253312
-2.66463e-11
0.000253312
3.8854e-11
0.000253312
-2.34154e-11
0.000253312
3.79609e-11
0.000253312
-9.00341e-12
0.000253312
3.40988e-11
0.000253312
8.62028e-12
0.000253312
3.18333e-11
0.000253312
2.29688e-11
0.000253312
3.13907e-11
0.000253312
2.83197e-11
0.000253312
2.58346e-11
0.000253312
4.62706e-12
-1.69455e-11
0.000278643
1.66369e-12
0.000278643
7.45489e-12
0.000278643
-4.1993e-12
0.000278643
1.84762e-11
0.000278643
-2.5634e-11
0.000278643
3.44664e-11
0.000278643
-2.93452e-11
0.000278643
4.28027e-11
0.000278643
-2.53465e-11
0.000278643
4.15456e-11
0.000278643
-9.16042e-12
0.000278643
3.7162e-11
0.000278643
1.03995e-11
0.000278643
3.47219e-11
0.000278643
2.61232e-11
0.000278643
3.41913e-11
0.000278643
3.16505e-11
0.000278643
2.80475e-11
0.000278643
4.27485e-12
-1.97664e-11
0.000297641
3.31598e-12
0.000297641
9.52826e-12
0.000297641
-4.75551e-12
0.000297641
2.04825e-11
0.000297641
-2.75369e-11
0.000297641
3.70121e-11
0.000297641
-3.14266e-11
0.000297641
4.57225e-11
0.000297641
-2.67453e-11
0.000297641
4.41225e-11
0.000297641
-9.21927e-12
0.000297641
3.92965e-11
0.000297641
1.17665e-11
0.000297641
3.67014e-11
0.000297641
2.8479e-11
0.000297641
3.60365e-11
0.000297641
3.41144e-11
0.000297641
2.93953e-11
0.000297641
4.08348e-12
-2.16499e-11
0.000310307
4.94067e-12
0.000310307
1.15357e-11
0.000310307
-5.31845e-12
0.000310307
2.20834e-11
0.000310307
-2.87828e-11
0.000310307
3.87282e-11
0.000310307
-3.281e-11
0.000310307
4.75588e-11
0.000310307
-2.75496e-11
0.000310307
4.56711e-11
0.000310307
-9.12777e-12
0.000310307
4.05178e-11
0.000310307
1.27725e-11
0.000310307
3.7819e-11
0.000310307
3.0098e-11
0.000310307
3.70122e-11
0.000310307
3.57924e-11
0.000310307
2.99662e-11
0.000310307
4.16035e-12
-2.24822e-11
0.00031664
6.35223e-12
0.00031664
1.32457e-11
0.00031664
-5.86411e-12
0.00031664
2.31619e-11
0.00031664
-2.93136e-11
0.00031664
3.95398e-11
0.00031664
-3.3414e-11
0.00031664
4.82422e-11
0.00031664
-2.76994e-11
0.00031664
4.61398e-11
0.00031664
-8.83932e-12
0.00031664
4.07953e-11
0.00031664
1.34521e-11
0.00031664
3.80631e-11
0.00031664
3.10051e-11
0.00031664
3.71397e-11
0.00031664
3.67042e-11
0.00031664
2.98053e-11
0.00031664
4.51824e-12
-2.22602e-11
0.00031664
7.38935e-12
0.00031664
1.4441e-11
0.00031664
-6.35868e-12
0.00031664
2.36129e-11
0.00031664
-2.90859e-11
0.00031664
3.93729e-11
0.00031664
-3.3166e-11
0.00031664
4.77084e-11
0.00031664
-2.71411e-11
0.00031664
4.54704e-11
0.00031664
-8.31047e-12
0.00031664
4.00843e-11
0.00031664
1.38351e-11
0.00031664
3.74031e-11
0.00031664
3.12133e-11
0.00031664
3.64183e-11
0.00031664
3.68429e-11
0.00031664
2.89498e-11
0.00031664
5.11595e-12
-2.1065e-11
0.000310307
7.93178e-12
0.000310307
1.49524e-11
0.000310307
-6.76126e-12
0.000310307
2.3361e-11
0.000310307
-2.80779e-11
0.000310307
3.81713e-11
0.000310307
-3.20154e-11
0.000310307
4.59148e-11
0.000310307
-2.58372e-11
0.000310307
4.36189e-11
0.000310307
-7.50816e-12
0.000310307
3.83486e-11
0.000310307
1.3945e-11
0.000310307
3.5813e-11
0.000310307
3.0729e-11
0.000310307
3.48461e-11
0.000310307
3.61877e-11
0.000310307
2.74409e-11
0.000310307
5.87623e-12
-1.9045e-11
0.000297641
7.91321e-12
0.000297641
1.46841e-11
0.000297641
-7.02495e-12
0.000297641
2.23711e-11
0.000297641
-2.62957e-11
0.000297641
3.59097e-11
0.000297641
-2.99454e-11
0.000297641
4.28536e-11
0.000297641
-2.3781e-11
0.000297641
4.05701e-11
0.000297641
-6.42434e-12
0.000297641
3.55734e-11
0.000297641
1.37853e-11
0.000297641
3.32803e-11
0.000297641
2.9543e-11
0.000297641
3.24218e-11
0.000297641
3.46997e-11
0.000297641
2.53151e-11
0.000297641
6.68248e-12
-1.64078e-11
0.000278643
7.33127e-12
0.000278643
1.3629e-11
0.000278643
-7.09755e-12
0.000278643
2.06511e-11
0.000278643
-2.37774e-11
0.000278643
3.2603e-11
0.000278643
-2.69857e-11
0.000278643
3.85607e-11
0.000278643
-2.10137e-11
0.000278643
3.63463e-11
0.000278643
-5.09657e-12
0.000278643
3.17688e-11
0.000278643
1.33162e-11
0.000278643
2.97998e-11
0.000278643
2.76044e-11
0.000278643
2.91271e-11
0.000278643
3.22955e-11
0.000278643
2.25735e-11
0.000278643
7.35234e-12
-1.34268e-11
0.000253312
6.24883e-12
0.000253312
1.1871e-11
0.000253312
-6.92159e-12
0.000253312
1.82476e-11
0.000253312
-2.05952e-11
0.000253312
2.83103e-11
0.000253312
-2.32202e-11
0.000253312
3.31203e-11
0.000253312
-1.76396e-11
0.000253312
3.10118e-11
0.000253312
-3.62808e-12
0.000253312
2.69684e-11
0.000253312
1.24312e-11
0.000253312
2.53627e-11
0.000253312
2.4793e-11
0.000253312
2.49034e-11
0.000253312
2.88176e-11
0.000253312
1.91448e-11
0.000253312
7.60145e-12
-1.04528e-11
0.000221648
4.79594e-12
0.000221648
9.57757e-12
0.000221648
-6.4322e-12
0.000221648
1.52346e-11
0.000221648
-1.68504e-11
0.000221648
2.31341e-11
0.000221648
-1.87862e-11
0.000221648
2.66672e-11
0.000221648
-1.38293e-11
0.000221648
2.46796e-11
0.000221648
-2.193e-12
0.000221648
2.12353e-11
0.000221648
1.09517e-11
0.000221648
1.99584e-11
0.000221648
2.09133e-11
0.000221648
1.96498e-11
0.000221648
2.40274e-11
0.000221648
1.48716e-11
0.000221648
7.02673e-12
-7.91683e-12
0.000183651
3.15183e-12
0.000183651
6.99375e-12
0.000183651
-5.59211e-12
0.000183651
1.1726e-11
0.000183651
-1.27162e-11
0.000183651
1.7235e-11
0.000183651
-1.39374e-11
0.000183651
1.93829e-11
0.000183651
-9.90012e-12
0.000183651
1.74624e-11
0.000183651
-1.13421e-12
0.000183651
1.45508e-11
0.000183651
8.50159e-12
0.000183651
1.3399e-11
0.000183651
1.5531e-11
0.000183651
1.30017e-11
0.000183651
1.74253e-11
0.000183651
9.30141e-12
0.000183651
4.98915e-12
-6.3786e-12
0.000139322
1.54433e-12
0.000139322
4.38344e-12
0.000139322
-4.24253e-12
0.000139322
7.74401e-12
0.000139322
-8.14899e-12
0.000139322
1.07223e-11
0.000139322
-8.62259e-12
0.000139322
1.1516e-11
0.000139322
-5.76975e-12
0.000139322
9.77726e-12
0.000139322
-2.64054e-13
0.000139322
7.51725e-12
0.000139322
5.44343e-12
0.000139322
6.45968e-12
0.000139322
9.21673e-12
0.000139322
5.83205e-12
0.000139322
9.6698e-12
0.000139321
3.15655e-12
0.000139321
1.68622e-12
-5.80363e-12
8.86592e-05
2.55234e-13
8.86592e-05
2.06966e-12
8.86592e-05
-2.41954e-12
8.86591e-05
3.48014e-12
8.86592e-05
-3.45909e-12
8.86591e-05
3.88853e-12
8.86592e-05
-3.29395e-12
8.86591e-05
3.37946e-12
8.86592e-05
-1.96973e-12
8.86591e-05
1.80003e-12
8.86592e-05
-1.08256e-13
8.86591e-05
6.16897e-14
8.86592e-05
1.25979e-12
8.86591e-05
-1.21744e-12
8.86592e-05
1.40446e-12
8.86591e-05
-2.45717e-12
8.86591e-05
1.67952e-13
8.86591e-05
-4.24852e-12
8.86591e-05
-3.61677e-12
-6.6716e-12
3.1664e-05
3.1664e-05
3.1664e-05
3.1664e-05
3.1664e-05
3.1664e-05
3.1664e-05
3.1664e-05
3.1664e-05
3.1664e-05
3.1664e-05
3.1664e-05
3.1664e-05
3.1664e-05
3.1664e-05
3.1664e-05
3.1664e-05
3.1664e-05
3.1664e-05
)
;

boundaryField
{
    top
    {
        type            calculated;
        value           uniform 0;
    }
    bottom
    {
        type            calculated;
        value           uniform 0;
    }
    inlet
    {
        type            calculated;
        value           nonuniform List<scalar> 
20
(
-3.1664e-05
-8.86592e-05
-0.000139322
-0.000183651
-0.000221648
-0.000253312
-0.000278643
-0.000297641
-0.000310307
-0.00031664
-0.00031664
-0.000310307
-0.000297641
-0.000278643
-0.000253312
-0.000221648
-0.000183651
-0.000139322
-8.86591e-05
-3.1664e-05
)
;
    }
    outlet
    {
        type            calculated;
        value           nonuniform List<scalar> 
20
(
3.1664e-05
8.86592e-05
0.000139322
0.000183651
0.000221648
0.000253312
0.000278643
0.000297641
0.000310307
0.00031664
0.00031664
0.000310307
0.000297641
0.000278643
0.000253312
0.000221648
0.000183651
0.000139321
8.86591e-05
3.1664e-05
)
;
    }
    frontAndBack
    {
        type            empty;
        value           nonuniform 0();
    }
}


// ************************************************************************* //
