/*--------------------------------*- C++ -*----------------------------------*\
| =========                 |                                                 |
| \\      /  F ield         | OpenFOAM: The Open Source CFD Toolbox           |
|  \\    /   O peration     | Version:  4.1                                   |
|   \\  /    A nd           | Web:      www.OpenFOAM.org                      |
|    \\/     M anipulation  |                                                 |
\*---------------------------------------------------------------------------*/
FoamFile
{
    version     2.0;
    format      ascii;
    class       volVectorField;
    location    "2.2";
    object      U;
}
// * * * * * * * * * * * * * * * * * * * * * * * * * * * * * * * * * * * * * //

dimensions      [0 1 -1 0 0 0 0];

internalField   nonuniform List<vector> 
400
(
(0.63328 -2.56828e-10 0)
(0.63328 1.33445e-10 0)
(0.63328 -2.34068e-10 0)
(0.63328 5.48908e-10 0)
(0.63328 -6.79352e-10 0)
(0.63328 1.21561e-09 0)
(0.63328 -7.93427e-10 0)
(0.63328 1.65262e-09 0)
(0.63328 -5.98622e-10 0)
(0.63328 1.99232e-09 0)
(0.63328 7.55877e-11 0)
(0.63328 2.27214e-09 0)
(0.63328 1.06223e-09 0)
(0.63328 2.64321e-09 0)
(0.63328 2.1232e-09 0)
(0.63328 3.0846e-09 0)
(0.63328 2.90432e-09 0)
(0.63328 3.03383e-09 0)
(0.63328 2.54078e-09 0)
(0.63328 1.05841e-09 0)
(1.77318 -1.4302e-09 0)
(1.77318 7.46666e-10 0)
(1.77318 -1.10389e-09 0)
(1.77318 3.78178e-09 0)
(1.77318 -7.70953e-09 0)
(1.77318 8.3408e-09 0)
(1.77318 -1.03733e-08 0)
(1.77318 9.9916e-09 0)
(1.77318 -1.20358e-08 0)
(1.77318 8.73452e-09 0)
(1.77318 -1.09116e-08 0)
(1.77318 5.33939e-09 0)
(1.77318 -8.92643e-09 0)
(1.77318 1.2337e-09 0)
(1.77318 -7.2821e-09 0)
(1.77318 -1.75205e-09 0)
(1.77318 -5.7566e-09 0)
(1.77318 -3.09613e-09 0)
(1.77318 -3.8552e-09 0)
(1.77318 -4.02691e-09 0)
(2.78643 -1.69479e-09 0)
(2.78643 1.24957e-09 0)
(2.78643 -1.67789e-09 0)
(2.78643 6.20826e-09 0)
(2.78643 -9.79407e-09 0)
(2.78643 1.31539e-08 0)
(2.78643 -1.19156e-08 0)
(2.78643 1.65892e-08 0)
(2.78643 -1.14862e-08 0)
(2.78643 1.67795e-08 0)
(2.78643 -6.25604e-09 0)
(2.78643 1.524e-08 0)
(2.78643 7.65974e-10 0)
(2.78643 1.3983e-08 0)
(2.78643 7.103e-09 0)
(2.78643 1.37211e-08 0)
(2.78643 1.06806e-08 0)
(2.78643 1.1625e-08 0)
(2.78643 5.30795e-09 0)
(2.78643 -2.43725e-09 0)
(3.67302 -1.9222e-09 0)
(3.67302 2.10409e-09 0)
(3.67302 -2.43457e-09 0)
(3.67302 9.60314e-09 0)
(3.67302 -1.50508e-08 0)
(3.67302 1.97347e-08 0)
(3.67302 -1.80713e-08 0)
(3.67302 2.45706e-08 0)
(3.67302 -1.72573e-08 0)
(3.67302 2.4035e-08 0)
(3.67302 -9.36204e-09 0)
(3.67302 2.09693e-08 0)
(3.67302 7.65563e-10 0)
(3.67302 1.83803e-08 0)
(3.67302 9.29922e-09 0)
(3.67302 1.7208e-08 0)
(3.67302 1.32722e-08 0)
(3.67302 1.36252e-08 0)
(3.67302 2.92034e-09 0)
(3.67302 -8.69432e-09 0)
(4.43296 -1.44366e-09 0)
(4.43296 3.19201e-09 0)
(4.43296 -2.94923e-09 0)
(4.43296 1.22828e-08 0)
(4.43296 -1.83958e-08 0)
(4.43296 2.4668e-08 0)
(4.43296 -2.15405e-08 0)
(4.43296 3.08368e-08 0)
(4.43296 -1.96171e-08 0)
(4.43296 3.03385e-08 0)
(4.43296 -8.76544e-09 0)
(4.43296 2.72072e-08 0)
(4.43296 4.817e-09 0)
(4.43296 2.5053e-08 0)
(4.43296 1.61329e-08 0)
(4.43296 2.44705e-08 0)
(4.43296 2.08821e-08 0)
(4.43296 2.00337e-08 0)
(4.43296 4.50598e-09 0)
(4.43296 -1.18134e-08 0)
(5.06624 -5.05129e-10 0)
(5.06624 4.67237e-09 0)
(5.06624 -3.45797e-09 0)
(5.06624 1.48982e-08 0)
(5.06624 -2.1664e-08 0)
(5.06624 2.91077e-08 0)
(5.06624 -2.50524e-08 0)
(5.06624 3.63239e-08 0)
(5.06624 -2.2267e-08 0)
(5.06624 3.55452e-08 0)
(5.06624 -9.00075e-09 0)
(5.06624 3.18996e-08 0)
(5.06624 7.32193e-09 0)
(5.06624 2.96335e-08 0)
(5.06624 2.06885e-08 0)
(5.06624 2.91097e-08 0)
(5.06624 2.58287e-08 0)
(5.06624 2.38924e-08 0)
(5.06624 4.3732e-09 0)
(5.06624 -1.562e-08 0)
(5.57286 8.42274e-10 0)
(5.57286 6.48934e-09 0)
(5.57286 -3.96245e-09 0)
(5.57286 1.72972e-08 0)
(5.57286 -2.4417e-08 0)
(5.57286 3.27833e-08 0)
(5.57286 -2.80226e-08 0)
(5.57286 4.07795e-08 0)
(5.57286 -2.44502e-08 0)
(5.57286 3.9669e-08 0)
(5.57286 -9.20379e-09 0)
(5.57286 3.54907e-08 0)
(5.57286 9.31797e-09 0)
(5.57286 3.30604e-08 0)
(5.57286 2.42816e-08 0)
(5.57286 3.24925e-08 0)
(5.57286 2.96668e-08 0)
(5.57286 2.66502e-08 0)
(5.57286 4.04957e-09 0)
(5.57286 -1.88347e-08 0)
(5.95283 2.44727e-09 0)
(5.95283 8.52792e-09 0)
(5.95283 -4.47839e-09 0)
(5.95283 1.94384e-08 0)
(5.95283 -2.66077e-08 0)
(5.95283 3.57e-08 0)
(5.95283 -3.04097e-08 0)
(5.95283 4.42143e-08 0)
(5.95283 -2.61293e-08 0)
(5.95283 4.27582e-08 0)
(5.95283 -9.33497e-09 0)
(5.95283 3.81021e-08 0)
(5.95283 1.08667e-08 0)
(5.95283 3.55027e-08 0)
(5.95283 2.70189e-08 0)
(5.95283 3.48218e-08 0)
(5.95283 3.25554e-08 0)
(5.95283 2.84545e-08 0)
(5.95283 3.78639e-09 0)
(5.95283 -2.1207e-08 0)
(6.20614 4.12729e-09 0)
(6.20614 1.06016e-08 0)
(6.20614 -4.99752e-09 0)
(6.20614 2.12326e-08 0)
(6.20614 -2.81706e-08 0)
(6.20614 3.78156e-08 0)
(6.20614 -3.21373e-08 0)
(6.20614 4.65888e-08 0)
(6.20614 -2.72383e-08 0)
(6.20614 4.48236e-08 0)
(6.20614 -9.33407e-09 0)
(6.20614 3.97849e-08 0)
(6.20614 1.2036e-08 0)
(6.20614 3.70533e-08 0)
(6.20614 2.89928e-08 0)
(6.20614 3.62344e-08 0)
(6.20614 3.46201e-08 0)
(6.20614 2.94286e-08 0)
(6.20614 3.74881e-09 0)
(6.20614 -2.25605e-08 0)
(6.33279 5.69006e-09 0)
(6.33279 1.2487e-08 0)
(6.33279 -5.51286e-09 0)
(6.33279 2.25684e-08 0)
(6.33279 -2.90464e-08 0)
(6.33279 3.90668e-08 0)
(6.33279 -3.31253e-08 0)
(6.33279 4.78435e-08 0)
(6.33279 -2.77161e-08 0)
(6.33279 4.58307e-08 0)
(6.33279 -9.14983e-09 0)
(6.33279 4.05349e-08 0)
(6.33279 1.28721e-08 0)
(6.33279 3.77346e-08 0)
(6.33279 3.02509e-08 0)
(6.33279 3.6789e-08 0)
(6.33279 3.59156e-08 0)
(6.33279 2.96423e-08 0)
(6.33279 3.99229e-09 0)
(6.33279 -2.28399e-08 0)
(6.33279 6.95606e-09 0)
(6.33279 1.39574e-08 0)
(6.33279 -6.00567e-09 0)
(6.33279 2.33342e-08 0)
(6.33279 -2.91869e-08 0)
(6.33279 3.9381e-08 0)
(6.33279 -3.3298e-08 0)
(6.33279 4.79129e-08 0)
(6.33279 -2.7507e-08 0)
(6.33279 4.57261e-08 0)
(6.33279 -8.73814e-09 0)
(6.33279 4.03158e-08 0)
(6.33279 1.3406e-08 0)
(6.33279 3.75265e-08 0)
(6.33279 3.08107e-08 0)
(6.33279 3.64956e-08 0)
(6.33279 3.64461e-08 0)
(6.33279 2.91354e-08 0)
(6.33279 4.49551e-09 0)
(6.33279 -2.20919e-08 0)
(6.20614 7.77845e-09 0)
(6.20614 1.48177e-08 0)
(6.20614 -6.44135e-09 0)
(6.20614 2.3439e-08 0)
(6.20614 -2.8562e-08 0)
(6.20614 3.86952e-08 0)
(6.20614 -3.25951e-08 0)
(6.20614 4.67458e-08 0)
(6.20614 -2.6567e-08 0)
(6.20614 4.44614e-08 0)
(6.20614 -8.06189e-09 0)
(6.20614 3.90899e-08 0)
(6.20614 1.36636e-08 0)
(6.20614 3.64035e-08 0)
(6.20614 3.0682e-08 0)
(6.20614 3.53552e-08 0)
(6.20614 3.61977e-08 0)
(6.20614 2.79495e-08 0)
(6.20614 5.19669e-09 0)
(6.20614 -2.04364e-08 0)
(5.95283 8.05887e-09 0)
(5.95283 1.49342e-08 0)
(5.95283 -6.77757e-09 0)
(5.95283 2.28271e-08 0)
(5.95283 -2.71657e-08 0)
(5.95283 3.69708e-08 0)
(5.95283 -3.09841e-08 0)
(5.95283 4.43208e-08 0)
(5.95283 -2.4876e-08 0)
(5.95283 4.20117e-08 0)
(5.95283 -7.10156e-09 0)
(5.95283 3.68372e-08 0)
(5.95283 1.3659e-08 0)
(5.95283 3.43517e-08 0)
(5.95283 2.9866e-08 0)
(5.95283 3.33719e-08 0)
(5.95283 3.51431e-08 0)
(5.95283 2.61292e-08 0)
(5.95283 6.00007e-09 0)
(5.95283 -1.80549e-08 0)
(5.57286 7.75991e-09 0)
(5.57286 1.42545e-08 0)
(5.57286 -6.96396e-09 0)
(5.57286 2.14835e-08 0)
(5.57286 -2.50208e-08 0)
(5.57286 3.42017e-08 0)
(5.57286 -2.84732e-08 0)
(5.57286 4.06517e-08 0)
(5.57286 -2.24549e-08 0)
(5.57286 3.83808e-08 0)
(5.57286 -5.87725e-09 0)
(5.57286 3.35536e-08 0)
(5.57286 1.33675e-08 0)
(5.57286 3.13584e-08 0)
(5.57286 2.8325e-08 0)
(5.57286 3.05304e-08 0)
(5.57286 3.32129e-08 0)
(5.57286 2.36907e-08 0)
(5.57286 6.75446e-09 0)
(5.57286 -1.51919e-08 0)
(5.06624 6.91084e-09 0)
(5.06624 1.28172e-08 0)
(5.06624 -6.94348e-09 0)
(5.06624 1.94347e-08 0)
(5.06624 -2.21818e-08 0)
(5.06624 3.04229e-08 0)
(5.06624 -2.51192e-08 0)
(5.06624 3.57974e-08 0)
(5.06624 -1.9378e-08 0)
(5.06624 3.36093e-08 0)
(5.06624 -4.46166e-09 0)
(5.06624 2.926e-08 0)
(5.06624 1.27137e-08 0)
(5.06624 2.74159e-08 0)
(5.06624 2.59726e-08 0)
(5.06624 2.67927e-08 0)
(5.06624 3.02889e-08 0)
(5.06624 2.06056e-08 0)
(5.06624 7.2351e-09 0)
(5.06624 -1.21544e-08 0)
(4.43296 5.61025e-09 0)
(4.43296 1.07436e-08 0)
(4.43296 -6.63897e-09 0)
(4.43296 1.67318e-08 0)
(4.43296 -1.87133e-08 0)
(4.43296 2.57074e-08 0)
(4.43296 -2.10037e-08 0)
(4.43296 2.98712e-08 0)
(4.43296 -1.57463e-08 0)
(4.43296 2.78138e-08 0)
(4.43296 -2.94852e-09 0)
(4.43296 2.40586e-08 0)
(4.43296 1.1615e-08 0)
(4.43296 2.25975e-08 0)
(4.43296 2.27308e-08 0)
(4.43296 2.21833e-08 0)
(4.43296 2.62605e-08 0)
(4.43296 1.68564e-08 0)
(4.43296 7.1583e-09 0)
(4.43296 -9.30178e-09 0)
(3.67302 3.98866e-09 0)
(3.67302 8.29508e-09 0)
(3.67302 -6.17844e-09 0)
(3.67302 1.36113e-08 0)
(3.67302 -1.5072e-08 0)
(3.67302 2.03137e-08 0)
(3.67302 -1.67852e-08 0)
(3.67302 2.30234e-08 0)
(3.67302 -1.23911e-08 0)
(3.67302 2.0788e-08 0)
(3.67302 -2.32337e-09 0)
(3.67302 1.72304e-08 0)
(3.67302 8.84965e-09 0)
(3.67302 1.56063e-08 0)
(3.67302 1.7053e-08 0)
(3.67302 1.49292e-08 0)
(3.67302 1.93986e-08 0)
(3.67302 1.06961e-08 0)
(3.67302 5.07726e-09 0)
(3.67302 -7.68833e-09 0)
(2.78643 2.36655e-09 0)
(2.78643 5.41275e-09 0)
(2.78643 -4.49205e-09 0)
(2.78643 9.38079e-09 0)
(2.78643 -9.62817e-09 0)
(2.78643 1.3715e-08 0)
(2.78643 -1.01215e-08 0)
(2.78643 1.55631e-08 0)
(2.78643 -6.32791e-09 0)
(2.78643 1.45517e-08 0)
(2.78643 1.2356e-09 0)
(2.78643 1.31178e-08 0)
(2.78643 9.5709e-09 0)
(2.78643 1.32759e-08 0)
(2.78643 1.58486e-08 0)
(2.78643 1.37845e-08 0)
(2.78643 1.7519e-08 0)
(2.78643 1.04797e-08 0)
(2.78643 6.4192e-09 0)
(2.78643 -4.00856e-09 0)
(1.77318 7.06921e-10 0)
(1.77318 3.44507e-09 0)
(1.77318 -4.22583e-09 0)
(1.77318 6.42144e-09 0)
(1.77318 -7.14006e-09 0)
(1.77318 8.16485e-09 0)
(1.77318 -7.72908e-09 0)
(1.77318 7.83589e-09 0)
(1.77318 -5.84084e-09 0)
(1.77318 5.15736e-09 0)
(1.77318 -2.34019e-09 0)
(1.77318 1.73529e-09 0)
(1.77318 7.53566e-10 0)
(1.77318 -8.74299e-10 0)
(1.77318 1.94024e-09 0)
(1.77318 -2.89272e-09 0)
(1.77318 1.11052e-09 0)
(1.77318 -5.00605e-09 0)
(1.77318 -3.69987e-09 0)
(1.77318 -7.82995e-09 0)
(0.63328 2.09536e-10 0)
(0.63328 5.98315e-10 0)
(0.63328 -4.23905e-10 0)
(0.63328 9.95584e-10 0)
(0.63328 -5.47598e-10 0)
(0.63328 1.28868e-09 0)
(0.63328 -1.30969e-10 0)
(0.63328 1.5153e-09 0)
(0.63328 7.20673e-10 0)
(0.63328 1.79111e-09 0)
(0.63328 1.90009e-09 0)
(0.63328 2.32539e-09 0)
(0.63328 3.1533e-09 0)
(0.63328 3.14171e-09 0)
(0.63328 4.16225e-09 0)
(0.63328 3.71999e-09 0)
(0.63328 4.22353e-09 0)
(0.63328 2.89833e-09 0)
(0.63328 1.73232e-09 0)
(0.63328 -8.18213e-10 0)
)
;

boundaryField
{
    top
    {
        type            fixedValue;
        value           uniform (0 0 0);
    }
    bottom
    {
        type            fixedValue;
        value           uniform (0 0 0);
    }
    inlet
    {
        type            zeroGradient;
    }
    outlet
    {
        type            zeroGradient;
    }
    frontAndBack
    {
        type            empty;
    }
}


// ************************************************************************* //
