/*--------------------------------*- C++ -*----------------------------------*\
| =========                 |                                                 |
| \\      /  F ield         | OpenFOAM: The Open Source CFD Toolbox           |
|  \\    /   O peration     | Version:  4.1                                   |
|   \\  /    A nd           | Web:      www.OpenFOAM.org                      |
|    \\/     M anipulation  |                                                 |
\*---------------------------------------------------------------------------*/
FoamFile
{
    version     2.0;
    format      ascii;
    class       surfaceScalarField;
    location    "5";
    object      phi;
}
// * * * * * * * * * * * * * * * * * * * * * * * * * * * * * * * * * * * * * //

dimensions      [0 3 -1 0 0 0 0];

internalField   nonuniform List<scalar> 
760
(
-1.91641e-05
7.46927e-13
-1.91641e-05
4.01981e-12
-1.91641e-05
2.97328e-12
-1.91641e-05
9.19873e-12
-1.91641e-05
4.41553e-12
-1.91641e-05
1.31903e-11
-1.91641e-05
5.36934e-12
-1.91641e-05
1.57917e-11
-1.91641e-05
5.67506e-12
-1.91641e-05
1.67345e-11
-1.91641e-05
5.50957e-12
-1.91641e-05
1.59299e-11
-1.91641e-05
5.18202e-12
-1.91641e-05
1.34722e-11
-1.91641e-05
4.47015e-12
-1.91641e-05
1.01713e-11
-1.91641e-05
3.80483e-12
-1.91641e-05
5.32231e-12
-1.91641e-05
2.94458e-12
2.66933e-12
-5.11594e-05
1.7956e-12
-5.11594e-05
7.88947e-12
-5.11594e-05
6.40929e-12
-5.11594e-05
1.72283e-11
-5.11594e-05
9.60212e-12
-5.11594e-05
2.44503e-11
-5.11594e-05
1.18099e-11
-5.11594e-05
2.90771e-11
-5.11594e-05
1.26296e-11
-5.11594e-05
3.06765e-11
-5.11594e-05
1.23448e-11
-5.11594e-05
2.9102e-11
-5.11594e-05
1.15259e-11
-5.11594e-05
2.45915e-11
-5.11594e-05
9.75857e-12
-5.11594e-05
1.85393e-11
-5.11594e-05
8.07172e-12
-5.11594e-05
9.71655e-12
-5.11594e-05
5.64158e-12
5.09686e-12
-7.68219e-05
3.57085e-12
-7.68219e-05
1.23679e-11
-7.68219e-05
1.12305e-11
-7.68219e-05
2.57049e-11
-7.68219e-05
1.69343e-11
-7.68219e-05
3.59907e-11
-7.68219e-05
2.09547e-11
-7.68219e-05
4.24238e-11
-7.68219e-05
2.25876e-11
-7.68219e-05
4.44778e-11
-7.68219e-05
2.21677e-11
-7.68219e-05
4.19935e-11
-7.68219e-05
2.05174e-11
-7.68219e-05
3.54274e-11
-7.68219e-05
1.70642e-11
-7.68219e-05
2.66369e-11
-7.68219e-05
1.36594e-11
-7.68219e-05
1.40034e-11
-7.68219e-05
8.59417e-12
7.6124e-12
-9.61516e-05
6.01252e-12
-9.61516e-05
1.72683e-11
-9.61516e-05
1.71189e-11
-9.61516e-05
3.41574e-11
-9.61516e-05
2.58632e-11
-9.61516e-05
4.70975e-11
-9.61516e-05
3.20528e-11
-9.61516e-05
5.49588e-11
-9.61516e-05
3.46896e-11
-9.61516e-05
5.71882e-11
-9.61516e-05
3.41019e-11
-9.61516e-05
5.3674e-11
-9.61516e-05
3.13346e-11
-9.61516e-05
4.51505e-11
-9.61516e-05
2.57047e-11
-9.61516e-05
3.3794e-11
-9.61516e-05
2.0029e-11
-9.61516e-05
1.77596e-11
-9.61516e-05
1.15143e-11
9.84362e-12
-0.000109148
8.73838e-12
-0.000109148
2.2252e-11
-0.000109148
2.33454e-11
-0.000109148
4.23768e-11
-0.000109148
3.53601e-11
-0.000109148
5.76815e-11
-0.000109148
4.38701e-11
-0.000109148
6.67312e-11
-0.000109148
4.76161e-11
-0.000109148
6.89688e-11
-0.000109148
4.68801e-11
-0.000109148
6.43747e-11
-0.000109148
4.29022e-11
-0.000109148
5.39929e-11
-0.000109148
3.49077e-11
-0.000109148
4.02245e-11
-0.000109148
2.67434e-11
-0.000109148
2.11027e-11
-0.000109148
1.44082e-11
1.18598e-11
-0.000115812
1.13883e-11
-0.000115813
2.67542e-11
-0.000115812
2.91246e-11
-0.000115813
4.94795e-11
-0.000115812
4.42601e-11
-0.000115813
6.66357e-11
-0.000115812
5.49839e-11
-0.000115813
7.65348e-11
-0.000115812
5.98301e-11
-0.000115813
7.86358e-11
-0.000115813
5.90012e-11
-0.000115813
7.30333e-11
-0.000115813
5.38837e-11
-0.000115813
6.10868e-11
-0.000115813
4.3631e-11
-0.000115813
4.52973e-11
-0.000115813
3.30852e-11
-0.000115813
2.37185e-11
-0.000115813
1.69894e-11
1.34447e-11
-0.000116144
1.37377e-11
-0.000116144
3.04499e-11
-0.000116144
3.4001e-11
-0.000116144
5.50267e-11
-0.000116144
5.18716e-11
-0.000116144
7.34486e-11
-0.000116144
6.45389e-11
-0.000116144
8.38437e-11
-0.000116144
7.03929e-11
-0.000116144
8.57014e-11
-0.000116144
6.9538e-11
-0.000116144
7.92361e-11
-0.000116144
6.3447e-11
-0.000116144
6.61116e-11
-0.000116144
5.12288e-11
-0.000116144
4.87873e-11
-0.000116144
3.86055e-11
-0.000116144
2.55258e-11
-0.000116144
1.90936e-11
1.44916e-11
-0.000110142
1.56769e-11
-0.000110142
3.31951e-11
-0.000110142
3.77961e-11
-0.000110142
5.88642e-11
-0.000110142
5.79079e-11
-0.000110142
7.79708e-11
-0.000110142
7.21692e-11
-0.000110142
8.85292e-11
-0.000110142
7.88895e-11
-0.000110142
9.00721e-11
-0.000110142
7.8069e-11
-0.000110142
8.29286e-11
-0.000110142
7.12023e-11
-0.000110142
6.90433e-11
-0.000110142
5.73978e-11
-0.000110142
5.06905e-11
-0.000110142
4.30739e-11
-0.000110142
2.65665e-11
-0.000110142
2.06515e-11
1.49535e-11
-9.78078e-05
1.71346e-11
-9.78078e-05
3.491e-11
-9.78078e-05
4.04068e-11
-9.78078e-05
6.09196e-11
-9.78078e-05
6.2185e-11
-9.78078e-05
8.01492e-11
-9.78078e-05
7.76287e-11
-9.78078e-05
9.05624e-11
-9.78078e-05
8.50318e-11
-9.78078e-05
9.17482e-11
-9.78078e-05
8.42929e-11
-9.78078e-05
8.4138e-11
-9.78078e-05
7.68641e-11
-9.78078e-05
6.99191e-11
-9.78078e-05
6.19111e-11
-9.78078e-05
5.10511e-11
-9.78078e-05
4.63066e-11
-9.78078e-05
2.68871e-11
-9.78078e-05
2.16173e-11
1.48264e-11
-7.91406e-05
1.80574e-11
-7.91406e-05
3.556e-11
-7.91406e-05
4.17794e-11
-7.91406e-05
6.11851e-11
-7.91406e-05
6.45956e-11
-7.91406e-05
8.00097e-11
-7.91406e-05
8.07698e-11
-7.91406e-05
8.99985e-11
-7.91406e-05
8.86418e-11
-7.91406e-05
9.08102e-11
-7.91406e-05
8.80187e-11
-7.91406e-05
8.29621e-11
-7.91406e-05
8.02499e-11
-7.91406e-05
6.88297e-11
-7.91406e-05
6.46224e-11
-7.91406e-05
4.99582e-11
-7.91406e-05
4.81787e-11
-7.91406e-05
2.65381e-11
-7.91406e-05
2.19775e-11
1.41517e-11
-5.41406e-05
1.83986e-11
-5.41406e-05
3.51402e-11
-5.41406e-05
4.18831e-11
-5.41406e-05
5.96941e-11
-5.41406e-05
6.50713e-11
-5.41406e-05
7.76247e-11
-5.41406e-05
8.14976e-11
-5.41406e-05
8.69401e-11
-5.41406e-05
8.96046e-11
-5.41406e-05
8.73819e-11
-5.41406e-05
8.91213e-11
-5.41406e-05
7.95342e-11
-5.41406e-05
8.12416e-11
-5.41406e-05
6.58907e-11
-5.41406e-05
6.54362e-11
-5.41406e-05
4.75213e-11
-5.41406e-05
4.86108e-11
-5.41406e-05
2.55603e-11
-5.41406e-05
2.17372e-11
1.30064e-11
-2.28078e-05
1.81198e-11
-2.28078e-05
3.36731e-11
-2.28078e-05
4.0708e-11
-2.28078e-05
5.65185e-11
-2.28078e-05
6.35772e-11
-2.28078e-05
7.31074e-11
-2.28078e-05
7.97638e-11
-2.28078e-05
8.15295e-11
-2.28078e-05
8.78596e-11
-2.28078e-05
8.16219e-11
-2.28078e-05
8.75319e-11
-2.28078e-05
7.40142e-11
-2.28078e-05
7.97777e-11
-2.28078e-05
6.12355e-11
-2.28078e-05
6.42995e-11
-2.28078e-05
4.38607e-11
-2.28078e-05
4.7567e-11
-2.28078e-05
2.39829e-11
-2.28078e-05
2.09093e-11
1.14903e-11
1.48578e-05
1.72024e-11
1.48578e-05
3.12147e-11
1.48578e-05
3.82736e-11
1.48578e-05
5.17749e-11
1.48578e-05
6.01202e-11
1.48578e-05
6.66166e-11
1.48578e-05
7.55719e-11
1.48578e-05
7.3953e-11
1.48578e-05
8.34036e-11
1.48578e-05
7.37265e-11
1.48578e-05
8.32393e-11
1.48578e-05
6.65891e-11
1.48578e-05
7.58507e-11
1.48578e-05
5.50154e-11
1.48578e-05
6.11997e-11
1.48578e-05
3.91037e-11
1.48578e-05
4.50522e-11
1.48578e-05
2.18247e-11
1.48578e-05
1.95079e-11
9.71109e-12
5.88562e-05
1.56684e-11
5.88562e-05
2.78691e-11
5.88562e-05
3.4651e-11
5.88562e-05
4.56456e-11
5.88562e-05
5.47763e-11
5.88562e-05
5.83845e-11
5.88562e-05
6.90047e-11
5.88562e-05
6.44738e-11
5.88562e-05
7.63154e-11
5.88562e-05
6.39646e-11
5.88562e-05
7.63108e-11
5.88562e-05
5.75061e-11
5.88562e-05
6.95239e-11
5.88562e-05
4.74265e-11
5.88562e-05
5.61746e-11
5.88562e-05
3.34038e-11
5.88562e-05
4.11151e-11
5.88562e-05
1.91069e-11
5.88562e-05
1.75515e-11
7.7741e-12
0.000109187
1.35837e-11
0.000109187
2.37707e-11
0.000109187
2.99484e-11
0.000109187
3.83452e-11
0.000109187
4.76694e-11
0.000109187
4.86782e-11
0.000109187
6.01973e-11
0.000109187
5.33912e-11
0.000109187
6.67276e-11
0.000109187
5.26376e-11
0.000109187
6.68635e-11
0.000109187
4.70385e-11
0.000109187
6.09049e-11
0.000109187
3.86836e-11
0.000109187
4.92927e-11
0.000109187
2.69256e-11
0.000109187
3.58309e-11
0.000109187
1.58473e-11
0.000109187
1.5064e-11
5.77332e-12
0.000165852
1.11045e-11
0.000165852
1.9166e-11
0.000165852
2.44497e-11
0.000165852
3.03146e-11
0.000165852
3.91898e-11
0.000165852
3.80848e-11
0.000165852
4.96082e-11
0.000165852
4.13849e-11
0.000165852
5.51196e-11
0.000165852
4.04473e-11
0.000165852
5.53518e-11
0.000165852
3.58407e-11
0.000165852
5.0403e-11
0.000165852
2.93307e-11
0.000165852
4.08612e-11
0.000165852
2.00869e-11
0.000165852
2.94482e-11
0.000165852
1.22135e-11
0.000165852
1.21659e-11
3.84225e-12
0.000228848
8.51955e-12
0.000228848
1.44671e-11
0.000228848
1.86883e-11
0.000228848
2.22958e-11
0.000228848
3.01514e-11
0.000228848
2.75995e-11
0.000228848
3.82441e-11
0.000228848
2.95978e-11
0.000228848
4.25901e-11
0.000228848
2.85653e-11
0.000228848
4.28603e-11
0.000228848
2.49993e-11
0.000228848
3.90108e-11
0.000228848
2.02789e-11
0.000228848
3.16693e-11
0.000228848
1.35721e-11
0.000228848
2.25677e-11
0.000228848
8.5506e-12
0.000228848
9.14492e-12
2.16064e-12
0.000298178
5.64522e-12
0.000298178
9.50887e-12
0.000298178
1.25045e-11
0.000298178
1.43048e-11
0.000298178
2.0338e-11
0.000298178
1.74411e-11
0.000298178
2.58615e-11
0.000298178
1.84421e-11
0.000298178
2.88753e-11
0.000298178
1.75518e-11
0.000298178
2.91242e-11
0.000298178
1.51503e-11
0.000298178
2.65075e-11
0.000298178
1.21606e-11
0.000298178
2.15519e-11
0.000298178
7.94921e-12
0.000298178
1.51733e-11
0.000298178
5.21378e-12
0.000298178
6.08538e-12
9.7769e-13
0.000373841
2.9455e-12
0.000373841
4.96792e-12
0.000373841
6.70416e-12
0.000373841
7.36864e-12
0.000373841
1.10339e-11
0.000373841
8.86723e-12
0.000373841
1.40831e-11
0.000373841
9.25839e-12
0.000373841
1.57773e-11
0.000373841
8.69375e-12
0.000373841
1.59561e-11
0.000373841
7.40689e-12
0.000373841
1.45404e-11
0.000373841
5.87655e-12
0.000373841
1.18458e-11
0.000373841
3.78251e-12
0.000373841
8.25315e-12
0.000373841
2.55915e-12
0.000373841
3.35608e-12
3.68492e-13
0.000455836
0.000455836
0.000455836
0.000455836
0.000455836
0.000455836
0.000455836
0.000455836
0.000455836
0.000455836
0.000455836
0.000455836
0.000455836
0.000455836
0.000455836
0.000455836
0.000455836
0.000455836
0.000455836
)
;

boundaryField
{
    top
    {
        type            calculated;
        value           uniform 0;
    }
    bottom
    {
        type            calculated;
        value           uniform 0;
    }
    inlet
    {
        type            calculated;
        value           nonuniform List<scalar> 
20
(
1.91641e-05
5.11594e-05
7.68219e-05
9.61516e-05
0.000109148
0.000115812
0.000116144
0.000110142
9.78078e-05
7.91406e-05
5.41406e-05
2.28078e-05
-1.48578e-05
-5.88562e-05
-0.000109187
-0.000165852
-0.000228848
-0.000298178
-0.000373841
-0.000455836
)
;
    }
    outlet
    {
        type            calculated;
        value           nonuniform List<scalar> 
20
(
-1.91641e-05
-5.11594e-05
-7.68219e-05
-9.61516e-05
-0.000109148
-0.000115813
-0.000116144
-0.000110142
-9.78078e-05
-7.91406e-05
-5.41406e-05
-2.28078e-05
1.48578e-05
5.88562e-05
0.000109187
0.000165852
0.000228848
0.000298178
0.000373841
0.000455836
)
;
    }
    frontAndBack
    {
        type            empty;
        value           nonuniform 0();
    }
}


// ************************************************************************* //
