/*--------------------------------*- C++ -*----------------------------------*\
| =========                 |                                                 |
| \\      /  F ield         | OpenFOAM: The Open Source CFD Toolbox           |
|  \\    /   O peration     | Version:  4.1                                   |
|   \\  /    A nd           | Web:      www.OpenFOAM.org                      |
|    \\/     M anipulation  |                                                 |
\*---------------------------------------------------------------------------*/
FoamFile
{
    version     2.0;
    format      ascii;
    class       volVectorField;
    location    "5";
    object      U;
}
// * * * * * * * * * * * * * * * * * * * * * * * * * * * * * * * * * * * * * //

dimensions      [0 1 -1 0 0 0 0];

internalField   nonuniform List<vector> 
400
(
(-0.383281 3.02496e-10 0)
(-0.383281 1.8128e-09 0)
(-0.383281 1.26871e-09 0)
(-0.383281 4.15296e-09 0)
(-0.383281 1.85542e-09 0)
(-0.383281 5.94924e-09 0)
(-0.383281 2.23291e-09 0)
(-0.383281 7.12232e-09 0)
(-0.383281 2.33766e-09 0)
(-0.383281 7.53305e-09 0)
(-0.383281 2.25588e-09 0)
(-0.383281 7.16118e-09 0)
(-0.383281 2.12743e-09 0)
(-0.383281 6.04629e-09 0)
(-0.383281 1.85148e-09 0)
(-0.383281 4.55258e-09 0)
(-0.383281 1.60371e-09 0)
(-0.383281 2.36911e-09 0)
(-0.383281 1.27862e-09 0)
(-0.383281 1.1475e-09 0)
(-1.02319 1.36893e-09 0)
(-1.02319 6.25488e-09 0)
(-1.02319 5.09562e-09 0)
(-1.02319 1.38972e-08 0)
(-1.02319 7.59802e-09 0)
(-1.02319 1.9769e-08 0)
(-1.02319 9.29551e-09 0)
(-1.02319 2.35418e-08 0)
(-1.02319 9.89799e-09 0)
(-1.02319 2.48433e-08 0)
(-1.02319 9.64281e-09 0)
(-1.02319 2.35804e-08 0)
(-1.02319 8.98997e-09 0)
(-1.02319 1.99297e-08 0)
(-1.02319 7.62741e-09 0)
(-1.02319 1.50277e-08 0)
(-1.02319 6.3083e-09 0)
(-1.02319 7.90495e-09 0)
(-1.02319 4.49691e-09 0)
(-1.02319 4.01681e-09 0)
(-1.53644 2.67994e-09 0)
(-1.53644 1.02268e-08 0)
(-1.53644 8.90433e-09 0)
(-1.53644 2.17638e-08 0)
(-1.53644 1.33675e-08 0)
(-1.53644 3.06539e-08 0)
(-1.53644 1.64879e-08 0)
(-1.53644 3.62751e-08 0)
(-1.53644 1.7706e-08 0)
(-1.53644 3.81362e-08 0)
(-1.53644 1.73387e-08 0)
(-1.53644 3.60819e-08 0)
(-1.53644 1.60924e-08 0)
(-1.53644 3.04615e-08 0)
(-1.53644 1.34733e-08 0)
(-1.53644 2.29259e-08 0)
(-1.53644 1.09232e-08 0)
(-1.53644 1.2043e-08 0)
(-1.53644 7.17921e-09 0)
(-1.53644 6.41532e-09 0)
(-1.92303 4.77592e-09 0)
(-1.92303 1.47808e-08 0)
(-1.92303 1.41659e-08 0)
(-1.92303 2.98508e-08 0)
(-1.92303 2.13697e-08 0)
(-1.92303 4.14232e-08 0)
(-1.92303 2.64614e-08 0)
(-1.92303 4.8542e-08 0)
(-1.92303 2.85866e-08 0)
(-1.92303 5.06744e-08 0)
(-1.92303 2.80776e-08 0)
(-1.92303 4.76811e-08 0)
(-1.92303 2.58647e-08 0)
(-1.92303 4.01602e-08 0)
(-1.92303 2.13243e-08 0)
(-1.92303 3.01128e-08 0)
(-1.92303 1.679e-08 0)
(-1.92303 1.5833e-08 0)
(-1.92303 9.99936e-09 0)
(-1.92303 8.67195e-09 0)
(-2.18297 7.3549e-09 0)
(-2.18297 1.97356e-08 0)
(-2.18297 2.01963e-08 0)
(-2.18297 3.82165e-08 0)
(-2.18297 3.0553e-08 0)
(-2.18297 5.2318e-08 0)
(-2.18297 3.78908e-08 0)
(-2.18297 6.07607e-08 0)
(-2.18297 4.10753e-08 0)
(-2.18297 6.29921e-08 0)
(-2.18297 4.04143e-08 0)
(-2.18297 5.89427e-08 0)
(-2.18297 3.70487e-08 0)
(-2.18297 4.95052e-08 0)
(-2.18297 3.02478e-08 0)
(-2.18297 3.69557e-08 0)
(-2.18297 2.33486e-08 0)
(-2.18297 1.94059e-08 0)
(-2.18297 1.29268e-08 0)
(-2.18297 1.08293e-08 0)
(-2.31625 1.0048e-08 0)
(-2.31625 2.44857e-08 0)
(-2.31625 2.61875e-08 0)
(-2.31625 4.5871e-08 0)
(-2.31625 3.97387e-08 0)
(-2.31625 6.20759e-08 0)
(-2.31625 4.93443e-08 0)
(-2.31625 7.15355e-08 0)
(-2.31625 5.36358e-08 0)
(-2.31625 7.37016e-08 0)
(-2.31625 5.2857e-08 0)
(-2.31625 6.86084e-08 0)
(-2.31625 4.83194e-08 0)
(-2.31625 5.74608e-08 0)
(-2.31625 3.921e-08 0)
(-2.31625 4.26984e-08 0)
(-2.31625 2.98785e-08 0)
(-2.31625 2.2377e-08 0)
(-2.31625 1.5669e-08 0)
(-2.31625 1.26377e-08 0)
(-2.32287 1.25533e-08 0)
(-2.32288 2.85898e-08 0)
(-2.32288 3.15018e-08 0)
(-2.32288 5.21892e-08 0)
(-2.32288 4.79778e-08 0)
(-2.32288 6.9948e-08 0)
(-2.32288 5.96595e-08 0)
(-2.32288 8.00787e-08 0)
(-2.32288 6.5005e-08 0)
(-2.32288 8.20536e-08 0)
(-2.32288 6.41688e-08 0)
(-2.32288 7.60255e-08 0)
(-2.32288 5.85778e-08 0)
(-2.32288 6.35071e-08 0)
(-2.32288 4.73615e-08 0)
(-2.32288 4.69705e-08 0)
(-2.32288 3.58032e-08 0)
(-2.32288 2.45795e-08 0)
(-2.32288 1.80146e-08 0)
(-2.32288 1.39621e-08 0)
(-2.20284 1.47061e-08 0)
(-2.20284 3.18198e-08 0)
(-2.20284 3.58386e-08 0)
(-2.20284 5.68865e-08 0)
(-2.20284 5.48072e-08 0)
(-2.20284 7.56216e-08 0)
(-2.20284 6.82595e-08 0)
(-2.20284 8.60831e-08 0)
(-2.20284 7.45442e-08 0)
(-2.20284 8.77785e-08 0)
(-2.20284 7.37133e-08 0)
(-2.20284 8.09797e-08 0)
(-2.20284 6.72475e-08 0)
(-2.20284 6.74899e-08 0)
(-2.20284 5.42551e-08 0)
(-2.20284 4.96721e-08 0)
(-2.20284 4.08032e-08 0)
(-2.20284 2.60039e-08 0)
(-2.20284 1.98556e-08 0)
(-2.20284 1.47252e-08 0)
(-1.95616 1.64103e-08 0)
(-1.95616 3.40546e-08 0)
(-1.95616 3.90399e-08 0)
(-1.95616 5.98316e-08 0)
(-1.95616 5.99627e-08 0)
(-1.95616 7.89709e-08 0)
(-1.95616 7.48022e-08 0)
(-1.95616 8.94419e-08 0)
(-1.95616 8.1862e-08 0)
(-1.95616 9.08011e-08 0)
(-1.95616 8.10894e-08 0)
(-1.95616 8.34305e-08 0)
(-1.95616 7.39553e-08 0)
(-1.95616 6.93923e-08 0)
(-1.95616 5.95966e-08 0)
(-1.95616 5.08055e-08 0)
(-1.95616 4.46522e-08 0)
(-1.95616 2.66816e-08 0)
(-1.95616 2.11243e-08 0)
(-1.95616 1.48979e-08 0)
(-1.58281 1.7605e-08 0)
(-1.58281 3.52401e-08 0)
(-1.58281 4.10324e-08 0)
(-1.58281 6.09905e-08 0)
(-1.58281 6.33064e-08 0)
(-1.58281 7.99902e-08 0)
(-1.58281 7.91005e-08 0)
(-1.58281 9.01769e-08 0)
(-1.58281 8.67361e-08 0)
(-1.58281 9.11705e-08 0)
(-1.58281 8.60619e-08 0)
(-1.58281 8.34482e-08 0)
(-1.58281 7.84774e-08 0)
(-1.58281 6.92849e-08 0)
(-1.58281 6.32075e-08 0)
(-1.58281 5.0442e-08 0)
(-1.58281 4.72023e-08 0)
(-1.58281 2.66635e-08 0)
(-1.58281 2.17933e-08 0)
(-1.58281 1.45002e-08 0)
(-1.08281 1.82397e-08 0)
(-1.08281 3.53567e-08 0)
(-1.08281 4.17739e-08 0)
(-1.08281 6.0377e-08 0)
(-1.08281 6.47506e-08 0)
(-1.08281 7.87297e-08 0)
(-1.08281 8.10341e-08 0)
(-1.08281 8.83681e-08 0)
(-1.08281 8.90214e-08 0)
(-1.08281 8.89897e-08 0)
(-1.08281 8.84742e-08 0)
(-1.08281 8.11488e-08 0)
(-1.08281 8.0665e-08 0)
(-1.08281 6.72714e-08 0)
(-1.08281 6.49681e-08 0)
(-1.08281 4.86805e-08 0)
(-1.08281 4.83534e-08 0)
(-1.08281 2.59953e-08 0)
(-1.08281 2.18578e-08 0)
(-1.08281 1.3591e-08 0)
(-0.456156 1.82708e-08 0)
(-0.456156 3.44125e-08 0)
(-0.456156 4.12427e-08 0)
(-0.456156 5.80446e-08 0)
(-0.456156 6.42429e-08 0)
(-0.456156 7.52826e-08 0)
(-0.456156 8.05315e-08 0)
(-0.456156 8.4138e-08 0)
(-0.456156 8.86305e-08 0)
(-0.456156 8.44001e-08 0)
(-0.456156 8.82302e-08 0)
(-0.456156 7.66788e-08 0)
(-0.456156 8.04293e-08 0)
(-0.456156 6.34768e-08 0)
(-0.456156 6.48051e-08 0)
(-0.456156 4.5635e-08 0)
(-0.456156 4.80496e-08 0)
(-0.456156 2.47128e-08 0)
(-0.456156 2.1326e-08 0)
(-0.456156 1.22586e-08 0)
(0.297156 1.76677e-08 0)
(0.297156 3.24457e-08 0)
(0.297156 3.94417e-08 0)
(0.297156 5.40873e-08 0)
(0.297156 6.17682e-08 0)
(0.297156 6.9784e-08 0)
(0.297156 7.75696e-08 0)
(0.297156 7.765e-08 0)
(0.297156 8.55313e-08 0)
(0.297156 7.75782e-08 0)
(0.297156 8.52904e-08 0)
(0.297156 7.02106e-08 0)
(0.297156 7.77361e-08 0)
(0.297156 5.80428e-08 0)
(0.297156 6.2687e-08 0)
(0.297156 4.1428e-08 0)
(0.297156 4.62761e-08 0)
(0.297156 2.28418e-08 0)
(0.297156 2.02107e-08 0)
(0.297156 1.06067e-08 0)
(1.17712 1.64282e-08 0)
(1.17712 2.95322e-08 0)
(1.17712 3.64092e-08 0)
(1.17712 4.86471e-08 0)
(1.17712 5.73597e-08 0)
(1.17712 6.24183e-08 0)
(1.17712 7.21824e-08 0)
(1.17712 6.9116e-08 0)
(1.17712 7.97516e-08 0)
(1.17712 6.87431e-08 0)
(1.17712 7.96735e-08 0)
(1.17712 6.19488e-08 0)
(1.17712 7.26048e-08 0)
(1.17712 5.11327e-08 0)
(1.17712 5.86206e-08 0)
(1.17712 3.61909e-08 0)
(1.17712 4.30547e-08 0)
(1.17712 2.04003e-08 0)
(1.17712 1.85255e-08 0)
(1.17712 8.74061e-09 0)
(2.18375 1.4605e-08 0)
(2.18375 2.58034e-08 0)
(2.18375 3.22536e-08 0)
(2.18375 4.19469e-08 0)
(2.18375 5.11463e-08 0)
(2.18375 5.34683e-08 0)
(2.18375 6.45126e-08 0)
(2.18375 5.88566e-08 0)
(2.18375 7.14326e-08 0)
(2.18375 5.82209e-08 0)
(2.18375 7.15054e-08 0)
(2.18375 5.2193e-08 0)
(2.18375 6.51494e-08 0)
(2.18375 4.29859e-08 0)
(2.18375 5.26822e-08 0)
(2.18375 3.01085e-08 0)
(2.18375 3.84593e-08 0)
(2.18375 1.74262e-08 0)
(2.18375 1.62991e-08 0)
(2.18375 6.76468e-09 0)
(3.31703 1.23057e-08 0)
(3.31703 2.14372e-08 0)
(3.31703 2.71513e-08 0)
(3.31703 3.42838e-08 0)
(3.31703 4.33565e-08 0)
(3.31703 4.33189e-08 0)
(3.31703 5.48217e-08 0)
(3.31703 4.73116e-08 0)
(3.31703 6.08427e-08 0)
(3.31703 4.64611e-08 0)
(3.31703 6.10355e-08 0)
(3.31703 4.13577e-08 0)
(3.31703 5.55968e-08 0)
(3.31703 3.3938e-08 0)
(3.31703 4.5035e-08 0)
(3.31703 2.34416e-08 0)
(3.31703 3.26319e-08 0)
(3.31703 1.39911e-08 0)
(3.31703 1.3597e-08 0)
(3.31703 4.78855e-09 0)
(4.57697 9.72007e-09 0)
(4.57697 1.67212e-08 0)
(4.57697 2.14718e-08 0)
(4.57697 2.62089e-08 0)
(4.57697 3.45255e-08 0)
(4.57697 3.27306e-08 0)
(4.57697 4.37533e-08 0)
(4.57697 3.53771e-08 0)
(4.57697 4.86674e-08 0)
(4.57697 3.44018e-08 0)
(4.57697 4.8924e-08 0)
(4.57697 3.03308e-08 0)
(4.57697 4.45451e-08 0)
(4.57697 2.47419e-08 0)
(4.57697 3.61415e-08 0)
(4.57697 1.67779e-08 0)
(4.57697 2.59357e-08 0)
(4.57697 1.03725e-08 0)
(4.57697 1.06132e-08 0)
(4.57697 2.98474e-09 0)
(5.96356 7.14984e-09 0)
(5.96356 1.20974e-08 0)
(5.96356 1.57898e-08 0)
(5.96356 1.84957e-08 0)
(5.96356 2.5576e-08 0)
(5.96356 2.27362e-08 0)
(5.96356 3.248e-08 0)
(5.96356 2.42276e-08 0)
(5.96356 3.62134e-08 0)
(5.96356 2.32363e-08 0)
(5.96356 3.64823e-08 0)
(5.96356 2.02085e-08 0)
(5.96356 3.32047e-08 0)
(5.96356 1.63155e-08 0)
(5.96356 2.69762e-08 0)
(5.96356 1.07964e-08 0)
(5.96356 1.91204e-08 0)
(5.96356 6.92773e-09 0)
(5.96356 7.69531e-09 0)
(5.96356 1.54104e-09 0)
(7.47681 4.42702e-09 0)
(7.47681 7.48035e-09 0)
(7.47681 1.00659e-08 0)
(7.47681 1.13696e-08 0)
(7.47681 1.64637e-08 0)
(7.47681 1.38812e-08 0)
(7.47681 2.09684e-08 0)
(7.47681 1.46844e-08 0)
(7.47681 2.34277e-08 0)
(7.47681 1.39774e-08 0)
(7.47681 2.36405e-08 0)
(7.47681 1.20783e-08 0)
(7.47681 2.15079e-08 0)
(7.47681 9.69923e-09 0)
(7.47681 1.75012e-08 0)
(7.47681 6.36507e-09 0)
(7.47681 1.22468e-08 0)
(7.47681 4.2501e-09 0)
(7.47681 4.97041e-09 0)
(7.47681 7.43996e-10 0)
(9.11672 1.2646e-09 0)
(9.11672 2.16307e-09 0)
(9.11672 2.91865e-09 0)
(9.11672 3.20841e-09 0)
(9.11672 4.85322e-09 0)
(9.11672 3.84291e-09 0)
(9.11672 6.22585e-09 0)
(9.11672 3.98911e-09 0)
(9.11672 6.99945e-09 0)
(9.11672 3.72065e-09 0)
(9.11672 7.10032e-09 0)
(9.11672 3.14463e-09 0)
(9.11672 6.48383e-09 0)
(9.11672 2.47126e-09 0)
(9.11672 5.293e-09 0)
(9.11672 1.55666e-09 0)
(9.11672 3.70064e-09 0)
(9.11672 1.05153e-09 0)
(9.11672 1.51031e-09 0)
(9.11672 1.19463e-10 0)
)
;

boundaryField
{
    top
    {
        type            fixedValue;
        value           uniform (10 0 0);
    }
    bottom
    {
        type            fixedValue;
        value           uniform (0 0 0);
    }
    inlet
    {
        type            zeroGradient;
    }
    outlet
    {
        type            zeroGradient;
    }
    frontAndBack
    {
        type            empty;
    }
}


// ************************************************************************* //
