/*--------------------------------*- C++ -*----------------------------------*\
| =========                 |                                                 |
| \\      /  F ield         | OpenFOAM: The Open Source CFD Toolbox           |
|  \\    /   O peration     | Version:  4.1                                   |
|   \\  /    A nd           | Web:      www.OpenFOAM.org                      |
|    \\/     M anipulation  |                                                 |
\*---------------------------------------------------------------------------*/
FoamFile
{
    version     2.0;
    format      ascii;
    class       volScalarField;
    location    "4";
    object      p;
}
// * * * * * * * * * * * * * * * * * * * * * * * * * * * * * * * * * * * * * //

dimensions      [0 2 -2 0 0 0 0];

internalField   nonuniform List<scalar> 
400
(
8.25711e-12
9.22094e-12
7.87013e-12
8.41977e-12
7.42239e-12
7.71164e-12
6.95499e-12
7.03994e-12
6.4672e-12
6.38606e-12
5.95496e-12
5.74405e-12
5.44995e-12
5.12061e-12
4.93567e-12
4.48418e-12
4.41596e-12
3.853e-12
3.94093e-12
3.71111e-12
8.22736e-12
9.19039e-12
7.86783e-12
8.41918e-12
7.42244e-12
7.71152e-12
6.95507e-12
7.0399e-12
6.46722e-12
6.38602e-12
5.95501e-12
5.74406e-12
5.44993e-12
5.1206e-12
4.93562e-12
4.4842e-12
4.41562e-12
3.85324e-12
3.92055e-12
3.68955e-12
8.21037e-12
9.16854e-12
7.86502e-12
8.41915e-12
7.42206e-12
7.71175e-12
6.95487e-12
7.04007e-12
6.46709e-12
6.3861e-12
5.95498e-12
5.74409e-12
5.44993e-12
5.12054e-12
4.93567e-12
4.4841e-12
4.41547e-12
3.85303e-12
3.90441e-12
3.67462e-12
8.20504e-12
9.1583e-12
7.86235e-12
8.41926e-12
7.42164e-12
7.71201e-12
6.95464e-12
7.04027e-12
6.46695e-12
6.38618e-12
5.95494e-12
5.74411e-12
5.44994e-12
5.12049e-12
4.93574e-12
4.48398e-12
4.41539e-12
3.85249e-12
3.89516e-12
3.66699e-12
8.20676e-12
9.15615e-12
7.85985e-12
8.41936e-12
7.4213e-12
7.7122e-12
6.95447e-12
7.04046e-12
6.46684e-12
6.38623e-12
5.9549e-12
5.74409e-12
5.44996e-12
5.12045e-12
4.93581e-12
4.48389e-12
4.41535e-12
3.8518e-12
3.89129e-12
3.66433e-12
8.2131e-12
9.15938e-12
7.85737e-12
8.41942e-12
7.42101e-12
7.71236e-12
6.95432e-12
7.0406e-12
6.46676e-12
6.38626e-12
5.95486e-12
5.74406e-12
5.44999e-12
5.12043e-12
4.93587e-12
4.48381e-12
4.41533e-12
3.85103e-12
3.89168e-12
3.66557e-12
8.22269e-12
9.16638e-12
7.85484e-12
8.41946e-12
7.42076e-12
7.71246e-12
6.95422e-12
7.04074e-12
6.4667e-12
6.38631e-12
5.95482e-12
5.74399e-12
5.45e-12
5.12042e-12
4.93595e-12
4.48375e-12
4.41535e-12
3.85024e-12
3.89568e-12
3.67001e-12
8.234e-12
9.17551e-12
7.85223e-12
8.41949e-12
7.42053e-12
7.71251e-12
6.95412e-12
7.04086e-12
6.46666e-12
6.38636e-12
5.9548e-12
5.74391e-12
5.44999e-12
5.12044e-12
4.93601e-12
4.48369e-12
4.4154e-12
3.8495e-12
3.90242e-12
3.67677e-12
8.24543e-12
9.1851e-12
7.84952e-12
8.41949e-12
7.42033e-12
7.71249e-12
6.95406e-12
7.04095e-12
6.46667e-12
6.38636e-12
5.95478e-12
5.74381e-12
5.44995e-12
5.12043e-12
4.93612e-12
4.48362e-12
4.41544e-12
3.84887e-12
3.91087e-12
3.68481e-12
8.25552e-12
9.19365e-12
7.84675e-12
8.41943e-12
7.42018e-12
7.71244e-12
6.95404e-12
7.041e-12
6.46675e-12
6.38635e-12
5.95475e-12
5.74372e-12
5.44992e-12
5.12042e-12
4.93622e-12
4.4836e-12
4.41547e-12
3.84839e-12
3.9199e-12
3.69308e-12
8.26304e-12
9.1999e-12
7.84394e-12
8.4193e-12
7.42006e-12
7.71234e-12
6.95409e-12
7.04102e-12
6.46685e-12
6.38634e-12
5.95472e-12
5.74363e-12
5.44986e-12
5.1204e-12
4.93634e-12
4.48356e-12
4.41548e-12
3.8481e-12
3.92844e-12
3.70048e-12
8.26704e-12
9.20285e-12
7.84114e-12
8.41908e-12
7.42e-12
7.71222e-12
6.95418e-12
7.041e-12
6.46696e-12
6.3863e-12
5.95468e-12
5.74353e-12
5.4498e-12
5.12039e-12
4.9365e-12
4.48353e-12
4.41545e-12
3.84801e-12
3.93543e-12
3.70606e-12
8.26689e-12
9.20195e-12
7.83847e-12
8.41876e-12
7.41995e-12
7.71207e-12
6.95429e-12
7.04095e-12
6.46712e-12
6.38624e-12
5.95463e-12
5.74346e-12
5.44974e-12
5.12037e-12
4.93664e-12
4.48351e-12
4.41535e-12
3.84811e-12
3.94006e-12
3.70902e-12
8.26246e-12
9.1971e-12
7.83596e-12
8.41834e-12
7.41993e-12
7.71189e-12
6.95445e-12
7.04084e-12
6.4673e-12
6.38621e-12
5.95459e-12
5.74336e-12
5.4497e-12
5.12037e-12
4.93675e-12
4.48352e-12
4.41523e-12
3.8483e-12
3.94176e-12
3.70886e-12
8.25395e-12
9.18859e-12
7.83374e-12
8.41779e-12
7.41994e-12
7.7117e-12
6.9546e-12
7.04071e-12
6.46748e-12
6.38614e-12
5.95459e-12
5.74329e-12
5.44969e-12
5.12033e-12
4.93687e-12
4.48354e-12
4.41507e-12
3.84861e-12
3.94011e-12
3.70525e-12
8.24217e-12
9.17725e-12
7.83182e-12
8.41713e-12
7.42002e-12
7.71149e-12
6.95482e-12
7.04052e-12
6.46768e-12
6.38606e-12
5.95463e-12
5.7432e-12
5.44966e-12
5.12032e-12
4.93695e-12
4.48365e-12
4.41482e-12
3.84901e-12
3.93527e-12
3.69834e-12
8.2281e-12
9.16444e-12
7.83036e-12
8.41641e-12
7.42017e-12
7.71123e-12
6.9551e-12
7.04033e-12
6.46784e-12
6.38593e-12
5.95473e-12
5.74314e-12
5.44963e-12
5.12032e-12
4.93694e-12
4.48373e-12
4.41454e-12
3.8495e-12
3.9276e-12
3.68848e-12
8.21382e-12
9.15246e-12
7.82928e-12
8.41566e-12
7.4204e-12
7.71092e-12
6.95544e-12
7.04013e-12
6.46803e-12
6.38575e-12
5.95488e-12
5.74303e-12
5.4496e-12
5.12032e-12
4.93686e-12
4.48386e-12
4.41425e-12
3.84995e-12
3.91799e-12
3.67648e-12
8.20282e-12
9.14358e-12
7.8285e-12
8.415e-12
7.42064e-12
7.71059e-12
6.95574e-12
7.03996e-12
6.46818e-12
6.38558e-12
5.95496e-12
5.74298e-12
5.44957e-12
5.12027e-12
4.93679e-12
4.48399e-12
4.41394e-12
3.85031e-12
3.90711e-12
3.66362e-12
8.2008e-12
9.13963e-12
7.82747e-12
8.41491e-12
7.42047e-12
7.71063e-12
6.95575e-12
7.04002e-12
6.46809e-12
6.38556e-12
5.95498e-12
5.74296e-12
5.44953e-12
5.12022e-12
4.93682e-12
4.484e-12
4.41375e-12
3.85043e-12
3.89696e-12
3.6537e-12
)
;

boundaryField
{
    top
    {
        type            zeroGradient;
    }
    bottom
    {
        type            zeroGradient;
    }
    inlet
    {
        type            fixedValue;
        value           uniform 0;
    }
    outlet
    {
        type            fixedValue;
        value           uniform 0;
    }
    frontAndBack
    {
        type            empty;
    }
}


// ************************************************************************* //
