/*--------------------------------*- C++ -*----------------------------------*\
| =========                 |                                                 |
| \\      /  F ield         | OpenFOAM: The Open Source CFD Toolbox           |
|  \\    /   O peration     | Version:  4.1                                   |
|   \\  /    A nd           | Web:      www.OpenFOAM.org                      |
|    \\/     M anipulation  |                                                 |
\*---------------------------------------------------------------------------*/
FoamFile
{
    version     2.0;
    format      ascii;
    class       surfaceScalarField;
    location    "4";
    object      phi;
}
// * * * * * * * * * * * * * * * * * * * * * * * * * * * * * * * * * * * * * //

dimensions      [0 3 -1 0 0 0 0];

internalField   nonuniform List<scalar> 
760
(
1.25e-06
-1.28309e-17
1.25e-06
-8.81737e-18
1.25e-06
1.07707e-19
1.25e-06
-6.22232e-19
1.25e-06
4.17562e-19
1.25e-06
-3.56489e-19
1.25e-06
2.85324e-19
1.25e-06
-2.19735e-19
1.25e-06
1.60077e-19
1.25e-06
-1.18664e-19
1.25e-06
8.0005e-20
1.25e-06
-2.14108e-20
1.25e-06
-1.70104e-20
1.25e-06
4.23886e-20
1.25e-06
-9.65411e-20
1.25e-06
1.26948e-19
1.25e-06
-2.3404e-19
1.25e-06
3.28476e-19
1.25e-06
-5.28533e-18
-7.78825e-18
3.75e-06
-3.87808e-17
3.75e-06
-3.08524e-17
3.75e-06
-6.4745e-19
3.75e-06
-1.50978e-18
3.75e-06
8.7568e-19
3.75e-06
-7.78816e-19
3.75e-06
6.18728e-19
3.75e-06
-4.7085e-19
3.75e-06
3.36537e-19
3.75e-06
-2.57863e-19
3.75e-06
1.84008e-19
3.75e-06
-3.63791e-20
3.75e-06
-4.34442e-20
3.75e-06
8.15002e-20
3.75e-06
-2.19665e-19
3.75e-06
2.6979e-19
3.75e-06
-6.14083e-19
3.75e-06
8.66347e-19
3.75e-06
-1.94638e-17
-2.51473e-17
6.25e-06
-7.01609e-17
6.25e-06
-6.08287e-17
6.25e-06
-2.39475e-18
6.25e-06
-2.30847e-18
6.25e-06
1.12818e-18
6.25e-06
-1.05703e-18
6.25e-06
8.33842e-19
6.25e-06
-6.25327e-19
6.25e-06
4.34094e-19
6.25e-06
-3.47512e-19
6.25e-06
2.63103e-19
6.25e-06
-3.19491e-20
6.25e-06
-6.86711e-20
6.25e-06
9.25201e-20
6.25e-06
-3.16073e-19
6.25e-06
3.5684e-19
6.25e-06
-1.01336e-18
6.25e-06
1.45015e-18
6.25e-06
-3.99669e-17
-4.80781e-17
8.75e-06
-1.0224e-16
8.75e-06
-9.35724e-17
8.75e-06
-4.79866e-18
8.75e-06
-2.98406e-18
8.75e-06
1.19896e-18
8.75e-06
-1.20324e-18
8.75e-06
9.41933e-19
8.75e-06
-6.95738e-19
8.75e-06
4.60586e-19
8.75e-06
-3.93138e-19
8.75e-06
3.21648e-19
8.75e-06
-1.20668e-20
8.75e-06
-9.07421e-20
8.75e-06
7.96532e-20
8.75e-06
-3.80786e-19
8.75e-06
3.93702e-19
8.75e-06
-1.40868e-18
8.75e-06
2.04234e-18
8.75e-06
-6.37743e-17
-7.35676e-17
1.125e-05
-1.30927e-16
1.125e-05
-1.24534e-16
1.125e-05
-7.51685e-18
1.125e-05
-3.49701e-18
1.125e-05
1.11696e-18
1.125e-05
-1.2378e-18
1.125e-05
9.6214e-19
1.125e-05
-6.8297e-19
1.125e-05
4.22422e-19
1.125e-05
-4.04946e-19
1.125e-05
3.58082e-19
1.125e-05
1.82494e-20
1.125e-05
-1.03156e-19
1.125e-05
4.5153e-20
1.125e-05
-4.17859e-19
1.125e-05
3.84363e-19
1.125e-05
-1.76779e-18
1.125e-05
2.60305e-18
1.125e-05
-8.79764e-17
-9.8724e-17
1.375e-05
-1.53104e-16
1.375e-05
-1.50094e-16
1.375e-05
-1.01949e-17
1.375e-05
-3.82742e-18
1.375e-05
9.11908e-19
1.375e-05
-1.16183e-18
1.375e-05
8.96367e-19
1.375e-05
-6.09621e-19
1.375e-05
3.35761e-19
1.375e-05
-3.87501e-19
1.375e-05
3.74911e-19
1.375e-05
5.26132e-20
1.375e-05
-1.05495e-19
1.375e-05
3.95495e-21
1.375e-05
-4.29318e-19
1.375e-05
3.38321e-19
1.375e-05
-2.06254e-18
1.375e-05
3.09401e-18
1.375e-05
-1.09962e-16
-1.20951e-16
1.625e-05
-1.66611e-16
1.625e-05
-1.67627e-16
1.625e-05
-1.25281e-17
1.625e-05
-3.94703e-18
1.625e-05
6.18895e-19
1.625e-05
-1.00074e-18
1.625e-05
7.74065e-19
1.625e-05
-4.85642e-19
1.625e-05
2.1046e-19
1.625e-05
-3.37628e-19
1.625e-05
3.66317e-19
1.625e-05
8.64649e-20
1.625e-05
-9.26299e-20
1.625e-05
-5.06293e-20
1.625e-05
-4.12243e-19
1.625e-05
2.59133e-19
1.625e-05
-2.27087e-18
1.625e-05
3.47775e-18
1.625e-05
-1.27561e-16
-1.38122e-16
1.875e-05
-1.70365e-16
1.875e-05
-1.75615e-16
1.875e-05
-1.42637e-17
1.875e-05
-3.84973e-18
1.875e-05
2.60534e-19
1.875e-05
-7.64663e-19
1.875e-05
5.93414e-19
1.875e-05
-3.20793e-19
1.875e-05
4.88268e-20
1.875e-05
-2.58295e-19
1.875e-05
3.4452e-19
1.875e-05
1.14086e-19
1.875e-05
-7.57797e-20
1.875e-05
-9.66732e-20
1.875e-05
-3.80979e-19
1.875e-05
1.56606e-19
1.875e-05
-2.36596e-18
1.875e-05
3.71667e-18
1.875e-05
-1.39188e-16
-1.48714e-16
2.125e-05
-1.64327e-16
2.125e-05
-1.7365e-16
2.125e-05
-1.5248e-17
2.125e-05
-3.53735e-18
2.125e-05
-1.29966e-19
2.125e-05
-4.83746e-19
2.125e-05
3.73453e-19
2.125e-05
-1.34248e-19
2.125e-05
-1.25763e-19
2.125e-05
-1.66461e-19
2.125e-05
3.15991e-19
2.125e-05
1.33331e-19
2.125e-05
-5.82848e-20
2.125e-05
-1.43592e-19
2.125e-05
-3.21312e-19
2.125e-05
3.16744e-20
2.125e-05
-2.34992e-18
2.125e-05
3.78004e-18
2.125e-05
-1.43915e-16
-1.51879e-16
2.375e-05
-1.49436e-16
2.375e-05
-1.62374e-16
2.375e-05
-1.53994e-17
2.375e-05
-3.03309e-18
2.375e-05
-5.18363e-19
2.375e-05
-1.68175e-19
2.375e-05
1.27165e-19
2.375e-05
6.0116e-20
2.375e-05
-2.90809e-19
2.375e-05
-7.36282e-20
2.375e-05
2.66271e-19
2.375e-05
1.4988e-19
2.375e-05
-3.4108e-20
2.375e-05
-1.86443e-19
2.375e-05
-2.5446e-19
2.375e-05
-8.45688e-20
2.375e-05
-2.22331e-18
2.375e-05
3.64905e-18
2.375e-05
-1.41514e-16
-1.47473e-16
2.625e-05
-1.27455e-16
2.625e-05
-1.43325e-16
2.625e-05
-1.47493e-17
2.625e-05
-2.37836e-18
2.625e-05
-8.89906e-19
2.625e-05
1.53029e-19
2.625e-05
-1.16134e-19
2.625e-05
2.52722e-19
2.625e-05
-4.46473e-19
2.625e-05
2.62924e-20
2.625e-05
2.08104e-19
2.625e-05
1.64264e-19
2.625e-05
-1.62664e-20
2.625e-05
-2.31538e-19
2.625e-05
-1.73285e-19
2.625e-05
-1.97586e-19
2.625e-05
-1.99198e-18
2.625e-05
3.32228e-18
2.625e-05
-1.32406e-16
-1.3607e-16
2.875e-05
-1.00793e-16
2.875e-05
-1.18789e-16
2.875e-05
-1.34254e-17
2.875e-05
-1.63103e-18
2.875e-05
-1.20602e-18
2.875e-05
4.62375e-19
2.875e-05
-3.44247e-19
2.875e-05
4.26373e-19
2.875e-05
-5.86255e-19
2.875e-05
1.17563e-19
2.875e-05
1.44919e-19
2.875e-05
1.67944e-19
2.875e-05
5.30289e-22
2.875e-05
-2.63901e-19
2.875e-05
-7.9824e-20
2.875e-05
-2.99541e-19
2.875e-05
-1.6728e-18
2.875e-05
2.83072e-18
2.875e-05
-1.17651e-16
-1.18875e-16
3.125e-05
-7.22802e-17
3.125e-05
-9.15004e-17
3.125e-05
-1.15944e-17
3.125e-05
-8.53296e-19
3.125e-05
-1.44815e-18
3.125e-05
7.32475e-19
3.125e-05
-5.50532e-19
3.125e-05
5.81263e-19
3.125e-05
-6.81405e-19
3.125e-05
1.8258e-19
3.125e-05
7.81731e-20
3.125e-05
1.81895e-19
3.125e-05
8.42902e-21
3.125e-05
-2.95612e-19
3.125e-05
1.9992e-20
3.125e-05
-3.92384e-19
3.125e-05
-1.30734e-18
3.125e-05
2.23417e-18
3.125e-05
-9.87801e-17
-9.76297e-17
3.375e-05
-4.48149e-17
3.375e-05
-6.43356e-17
3.375e-05
-9.50001e-18
3.375e-05
-1.14651e-19
3.375e-05
-1.60079e-18
3.375e-05
9.41263e-19
3.375e-05
-7.07531e-19
3.375e-05
6.88824e-19
3.375e-05
-7.31402e-19
3.375e-05
2.44701e-19
3.375e-05
9.00545e-21
3.375e-05
1.76066e-19
3.375e-05
9.99998e-21
3.375e-05
-2.9459e-19
3.375e-05
1.01155e-19
3.375e-05
-4.48583e-19
3.375e-05
-9.15761e-19
3.375e-05
1.56581e-18
3.375e-05
-7.76417e-17
-7.43958e-17
3.625e-05
-2.11906e-17
3.625e-05
-4.00143e-17
3.625e-05
-7.3319e-18
3.625e-05
4.99601e-19
3.625e-05
-1.6484e-18
3.625e-05
1.06718e-18
3.625e-05
-8.17024e-19
3.625e-05
7.48275e-19
3.625e-05
-7.39249e-19
3.625e-05
2.85322e-19
3.625e-05
-5.20832e-20
3.625e-05
1.69577e-19
3.625e-05
1.79195e-20
3.625e-05
-2.91116e-19
3.625e-05
1.78963e-19
3.625e-05
-4.8927e-19
3.625e-05
-5.28368e-19
3.625e-05
9.16743e-19
3.625e-05
-5.62942e-17
-5.14478e-17
3.875e-05
-3.57233e-18
3.875e-05
-2.07033e-17
3.875e-05
-5.31437e-18
3.875e-05
9.07655e-19
3.875e-05
-1.56269e-18
3.875e-05
1.09733e-18
3.875e-05
-8.48542e-19
3.875e-05
7.31246e-19
3.875e-05
-6.83026e-19
3.875e-05
3.10379e-19
3.875e-05
-1.01203e-19
3.875e-05
1.45802e-19
3.875e-05
2.16599e-20
3.875e-05
-2.6359e-19
3.875e-05
2.30394e-19
3.875e-05
-4.66029e-19
3.875e-05
-2.05431e-19
3.875e-05
3.53473e-19
3.875e-05
-3.66472e-17
-3.09407e-17
4.125e-05
6.5665e-18
4.125e-05
-7.74434e-18
4.125e-05
-3.52673e-18
4.125e-05
1.06111e-18
4.125e-05
-1.3395e-18
4.125e-05
1.00012e-18
4.125e-05
-7.81098e-19
4.125e-05
6.39344e-19
4.125e-05
-5.86809e-19
4.125e-05
3.03978e-19
4.125e-05
-1.26676e-19
4.125e-05
1.28105e-19
4.125e-05
1.6495e-20
4.125e-05
-2.11602e-19
4.125e-05
2.39829e-19
4.125e-05
-4.14108e-19
4.125e-05
1.91439e-20
4.125e-05
-2.08509e-20
4.125e-05
-2.04269e-17
-1.47823e-17
4.375e-05
9.11355e-18
4.375e-05
-1.08985e-18
4.375e-05
-2.0441e-18
4.375e-05
9.26407e-19
4.375e-05
-9.81871e-19
4.375e-05
7.72415e-19
4.375e-05
-5.91757e-19
4.375e-05
4.70433e-19
4.375e-05
-4.23614e-19
4.375e-05
2.42327e-19
4.375e-05
-1.03176e-19
4.375e-05
8.18104e-20
4.375e-05
1.45103e-20
4.375e-05
-1.31572e-19
4.375e-05
1.92634e-19
4.375e-05
-3.09785e-19
4.375e-05
1.35702e-19
4.375e-05
-1.86619e-19
4.375e-05
-8.72533e-18
-4.23283e-18
4.625e-05
5.11589e-18
4.625e-05
5.30416e-19
4.625e-05
-7.8587e-19
4.625e-05
4.67036e-19
4.625e-05
-4.44874e-19
4.625e-05
3.63844e-19
4.625e-05
-2.78517e-19
4.625e-05
2.14307e-19
4.625e-05
-1.84563e-19
4.625e-05
1.11929e-19
4.625e-05
-5.106e-20
4.625e-05
3.83322e-20
4.625e-05
8.64844e-21
4.625e-05
-5.95101e-20
4.625e-05
9.00385e-20
4.625e-05
-1.46433e-19
4.625e-05
1.06769e-19
4.625e-05
-1.35529e-19
4.625e-05
-2.04978e-18
1.25594e-19
4.875e-05
4.875e-05
4.875e-05
4.875e-05
4.875e-05
4.875e-05
4.875e-05
4.875e-05
4.875e-05
4.875e-05
4.875e-05
4.875e-05
4.875e-05
4.875e-05
4.875e-05
4.875e-05
4.875e-05
4.875e-05
4.875e-05
)
;

boundaryField
{
    top
    {
        type            calculated;
        value           uniform 0;
    }
    bottom
    {
        type            calculated;
        value           uniform 0;
    }
    inlet
    {
        type            calculated;
        value           nonuniform List<scalar> 
20
(
-1.25e-06
-3.75e-06
-6.25e-06
-8.75e-06
-1.125e-05
-1.375e-05
-1.625e-05
-1.875e-05
-2.125e-05
-2.375e-05
-2.625e-05
-2.875e-05
-3.125e-05
-3.375e-05
-3.625e-05
-3.875e-05
-4.125e-05
-4.375e-05
-4.625e-05
-4.875e-05
)
;
    }
    outlet
    {
        type            calculated;
        value           nonuniform List<scalar> 
20
(
1.25e-06
3.75e-06
6.25e-06
8.75e-06
1.125e-05
1.375e-05
1.625e-05
1.875e-05
2.125e-05
2.375e-05
2.625e-05
2.875e-05
3.125e-05
3.375e-05
3.625e-05
3.875e-05
4.125e-05
4.375e-05
4.625e-05
4.875e-05
)
;
    }
    frontAndBack
    {
        type            empty;
        value           nonuniform 0();
    }
}


// ************************************************************************* //
