/*--------------------------------*- C++ -*----------------------------------*\
| =========                 |                                                 |
| \\      /  F ield         | OpenFOAM: The Open Source CFD Toolbox           |
|  \\    /   O peration     | Version:  4.1                                   |
|   \\  /    A nd           | Web:      www.OpenFOAM.org                      |
|    \\/     M anipulation  |                                                 |
\*---------------------------------------------------------------------------*/
FoamFile
{
    version     2.0;
    format      ascii;
    class       volVectorField;
    location    "4";
    object      U;
}
// * * * * * * * * * * * * * * * * * * * * * * * * * * * * * * * * * * * * * //

dimensions      [0 1 -1 0 0 0 0];

internalField   nonuniform List<vector> 
400
(
(0.025 -5.71804e-15 0)
(0.025 -3.56574e-15 0)
(0.025 1.30552e-16 0)
(0.025 -3.10979e-16 0)
(0.025 2.19784e-16 0)
(0.025 -1.85496e-16 0)
(0.025 1.48654e-16 0)
(0.025 -1.14859e-16 0)
(0.025 8.45236e-17 0)
(0.025 -6.17236e-17 0)
(0.025 4.07446e-17 0)
(0.025 -1.20114e-17 0)
(0.025 -8.2243e-18 0)
(0.025 2.30926e-17 0)
(0.025 -4.91154e-17 0)
(0.025 6.6074e-17 0)
(0.025 -1.13068e-16 0)
(0.025 1.4568e-16 0)
(0.025 -2.00976e-15 0)
(0.025 -3.27569e-15 0)
(0.075 -2.40589e-14 0)
(0.075 -1.77573e-14 0)
(0.075 -5.11199e-17 0)
(0.075 -1.05158e-15 0)
(0.075 6.69344e-16 0)
(0.075 -5.79522e-16 0)
(0.075 4.62317e-16 0)
(0.075 -3.54525e-16 0)
(0.075 2.5666e-16 0)
(0.075 -1.92576e-16 0)
(0.075 1.32875e-16 0)
(0.075 -3.17807e-17 0)
(0.075 -2.9527e-17 0)
(0.075 6.56368e-17 0)
(0.075 -1.59489e-16 0)
(0.075 2.041e-16 0)
(0.075 -4.07589e-16 0)
(0.075 5.84913e-16 0)
(0.075 -1.08341e-14 0)
(0.075 -1.49658e-14 0)
(0.125 -5.33652e-14 0)
(0.125 -4.43122e-14 0)
(0.125 -1.32828e-15 0)
(0.125 -1.91659e-15 0)
(0.125 1.03538e-15 0)
(0.125 -9.39753e-16 0)
(0.125 7.44271e-16 0)
(0.125 -5.63605e-16 0)
(0.125 3.98553e-16 0)
(0.125 -3.0992e-16 0)
(0.125 2.26391e-16 0)
(0.125 -3.72423e-17 0)
(0.125 -5.62615e-17 0)
(0.125 9.20408e-17 0)
(0.125 -2.7184e-16 0)
(0.125 3.22159e-16 0)
(0.125 -8.05901e-16 0)
(0.125 1.13324e-15 0)
(0.125 -2.84229e-14 0)
(0.125 -3.54114e-14 0)
(0.175 -8.63782e-14 0)
(0.175 -7.6904e-14 0)
(0.175 -3.46142e-15 0)
(0.175 -2.67969e-15 0)
(0.175 1.20607e-15 0)
(0.175 -1.16122e-15 0)
(0.175 9.12917e-16 0)
(0.175 -6.81381e-16 0)
(0.175 4.64126e-16 0)
(0.175 -3.80149e-16 0)
(0.175 2.97984e-16 0)
(0.175 -2.5491e-17 0)
(0.175 -8.13014e-17 0)
(0.175 9.14714e-17 0)
(0.175 -3.5546e-16 0)
(0.175 3.87185e-16 0)
(0.175 -1.21541e-15 0)
(0.175 1.7452e-15 0)
(0.175 -5.13231e-14 0)
(0.175 -6.04553e-14 0)
(0.225 -1.17795e-13 0)
(0.225 -1.09903e-13 0)
(0.225 -6.11927e-15 0)
(0.225 -3.28567e-15 0)
(0.225 1.19417e-15 0)
(0.225 -1.24939e-15 0)
(0.225 9.74567e-16 0)
(0.225 -7.07761e-16 0)
(0.225 4.56321e-16 0)
(0.225 -4.08521e-16 0)
(0.225 3.45724e-16 0)
(0.225 1.57241e-18 0)
(0.225 -9.90946e-17 0)
(0.225 6.62531e-17 0)
(0.225 -4.06697e-16 0)
(0.225 4.00084e-16 0)
(0.225 -1.60157e-15 0)
(0.225 2.33109e-15 0)
(0.225 -7.60866e-14 0)
(0.225 -8.65417e-14 0)
(0.275 -1.43889e-13 0)
(0.275 -1.38961e-13 0)
(0.275 -8.90439e-15 0)
(0.275 -3.71194e-15 0)
(0.275 1.04156e-15 0)
(0.275 -1.22367e-15 0)
(0.275 9.47393e-16 0)
(0.275 -6.60945e-16 0)
(0.275 3.90773e-16 0)
(0.275 -4.04045e-16 0)
(0.275 3.71368e-16 0)
(0.275 3.48559e-17 0)
(0.275 -1.0673e-16 0)
(0.275 2.71293e-17 0)
(0.275 -4.3023e-16 0)
(0.275 3.70545e-16 0)
(0.275 -1.93443e-15 0)
(0.275 2.86621e-15 0)
(0.275 -9.97821e-14 0)
(0.275 -1.10822e-13 0)
(0.325 -1.62125e-13 0)
(0.325 -1.61021e-13 0)
(0.325 -1.14825e-14 0)
(0.325 -3.94081e-15 0)
(0.325 7.84564e-16 0)
(0.325 -1.10108e-15 0)
(0.325 8.49858e-16 0)
(0.325 -5.58225e-16 0)
(0.325 2.81405e-16 0)
(0.325 -3.6903e-16 0)
(0.325 3.74808e-16 0)
(0.325 7.01156e-17 0)
(0.325 -1.00905e-16 0)
(0.325 -2.26699e-17 0)
(0.325 -4.26808e-16 0)
(0.325 3.06011e-16 0)
(0.325 -2.19073e-15 0)
(0.325 3.31361e-15 0)
(0.325 -1.20035e-13 0)
(0.325 -1.30969e-13 0)
(0.375 -1.70897e-13 0)
(0.375 -1.74025e-13 0)
(0.375 -1.35711e-14 0)
(0.375 -3.95246e-15 0)
(0.375 4.51118e-16 0)
(0.375 -8.98096e-16 0)
(0.375 6.95271e-16 0)
(0.375 -4.10601e-16 0)
(0.375 1.3416e-16 0)
(0.375 -3.0269e-16 0)
(0.375 3.59689e-16 0)
(0.375 1.0136e-16 0)
(0.375 -8.55789e-17 0)
(0.375 -7.35707e-17 0)
(0.375 -4.01958e-16 0)
(0.375 2.12566e-16 0)
(0.375 -2.34553e-15 0)
(0.375 3.63433e-15 0)
(0.375 -1.34957e-13 0)
(0.375 -1.45146e-13 0)
(0.425 -1.69649e-13 0)
(0.425 -1.77015e-13 0)
(0.425 -1.49623e-14 0)
(0.425 -3.74398e-15 0)
(0.425 6.92421e-17 0)
(0.425 -6.34801e-16 0)
(0.425 4.9065e-16 0)
(0.425 -2.31172e-16 0)
(0.425 -3.6605e-17 0)
(0.425 -2.15557e-16 0)
(0.425 3.33544e-16 0)
(0.425 1.24921e-16 0)
(0.425 -6.79922e-17 0)
(0.425 -1.20577e-16 0)
(0.425 -3.55432e-16 0)
(0.425 9.61427e-17 0)
(0.425 -2.38621e-15 0)
(0.425 3.79361e-15 0)
(0.425 -1.43279e-13 0)
(0.425 -1.52148e-13 0)
(0.475 -1.58852e-13 0)
(0.475 -1.70128e-13 0)
(0.475 -1.55362e-14 0)
(0.475 -3.32819e-15 0)
(0.475 -3.26905e-16 0)
(0.475 -3.31229e-16 0)
(0.475 2.53369e-16 0)
(0.475 -3.81081e-17 0)
(0.475 -2.09216e-16 0)
(0.475 -1.2079e-16 0)
(0.475 2.94343e-16 0)
(0.475 1.42584e-16 0)
(0.475 -4.63484e-17 0)
(0.475 -1.65987e-16 0)
(0.475 -2.91684e-16 0)
(0.475 -2.6452e-17 0)
(0.475 -2.3129e-15 0)
(0.475 3.76304e-15 0)
(0.475 -1.44417e-13 0)
(0.475 -1.51475e-13 0)
(0.525 -1.399e-13 0)
(0.525 -1.54496e-13 0)
(0.525 -1.5269e-14 0)
(0.525 -2.73629e-15 0)
(0.525 -7.13317e-16 0)
(0.525 -7.27953e-18 0)
(0.525 4.4745e-18 0)
(0.525 1.58572e-16 0)
(0.525 -3.73394e-16 0)
(0.525 -2.19942e-17 0)
(0.525 2.39202e-16 0)
(0.525 1.57498e-16 0)
(0.525 -2.47436e-17 0)
(0.525 -2.10248e-16 0)
(0.525 -2.16173e-16 0)
(0.525 -1.43726e-16 0)
(0.525 -2.13095e-15 0)
(0.525 3.53225e-15 0)
(0.525 -1.3848e-13 0)
(0.525 -1.43351e-13 0)
(0.575 -1.14931e-13 0)
(0.575 -1.32085e-13 0)
(0.575 -1.42428e-14 0)
(0.575 -2.02047e-15 0)
(0.575 -1.06335e-15 0)
(0.575 3.1412e-16 0)
(0.575 -2.35322e-16 0)
(0.575 3.45508e-16 0)
(0.575 -5.23433e-16 0)
(0.575 7.43453e-17 0)
(0.575 1.77371e-16 0)
(0.575 1.67353e-16 0)
(0.575 -7.21282e-18 0)
(0.575 -2.49524e-16 0)
(0.575 -1.27292e-16 0)
(0.575 -2.52465e-16 0)
(0.575 -1.85002e-15 0)
(0.575 3.11475e-15 0)
(0.575 -1.2623e-13 0)
(0.575 -1.28688e-13 0)
(0.625 -8.66374e-14 0)
(0.625 -1.05479e-13 0)
(0.625 -1.26133e-14 0)
(0.625 -1.24068e-15 0)
(0.625 -1.34797e-15 0)
(0.625 6.09951e-16 0)
(0.625 -4.55736e-16 0)
(0.625 5.11854e-16 0)
(0.625 -6.43672e-16 0)
(0.625 1.54095e-16 0)
(0.625 1.11075e-16 0)
(0.625 1.76238e-16 0)
(0.625 5.22636e-18 0)
(0.625 -2.82995e-16 0)
(0.625 -2.88997e-17 0)
(0.625 -3.51161e-16 0)
(0.625 -1.50006e-15 0)
(0.625 2.55741e-15 0)
(0.625 -1.08998e-13 0)
(0.625 -1.08998e-13 0)
(0.675 -5.79465e-14 0)
(0.675 -7.75588e-14 0)
(0.675 -1.05923e-14 0)
(0.675 -4.63345e-16 0)
(0.675 -1.55046e-15 0)
(0.675 8.54453e-16 0)
(0.675 -6.4098e-16 0)
(0.675 6.46795e-16 0)
(0.675 -7.18161e-16 0)
(0.675 2.17868e-16 0)
(0.675 4.19395e-17 0)
(0.675 1.80761e-16 0)
(0.675 1.08302e-17 0)
(0.675 -2.99507e-16 0)
(0.675 6.3786e-17 0)
(0.675 -4.28442e-16 0)
(0.675 -1.11296e-15 0)
(0.675 1.90764e-15 0)
(0.675 -8.8514e-14 0)
(0.675 -8.62222e-14 0)
(0.725 -3.17882e-14 0)
(0.725 -5.1217e-14 0)
(0.725 -8.4076e-15 0)
(0.725 2.31656e-16 0)
(0.725 -1.65497e-15 0)
(0.725 1.02708e-15 0)
(0.725 -7.79174e-16 0)
(0.725 7.34019e-16 0)
(0.725 -7.4731e-16 0)
(0.725 2.69305e-16 0)
(0.725 -2.39378e-17 0)
(0.725 1.7545e-16 0)
(0.725 1.43809e-17 0)
(0.725 -2.97793e-16 0)
(0.725 1.45825e-16 0)
(0.725 -4.77866e-16 0)
(0.725 -7.13398e-16 0)
(0.725 1.22897e-15 0)
(0.725 -6.67872e-14 0)
(0.725 -6.25877e-14 0)
(0.775 -1.07143e-14 0)
(0.775 -2.89789e-14 0)
(0.775 -6.27561e-15 0)
(0.775 7.60642e-16 0)
(0.775 -1.64004e-15 0)
(0.775 1.11171e-15 0)
(0.775 -8.5666e-16 0)
(0.775 7.57795e-16 0)
(0.775 -7.24758e-16 0)
(0.775 3.05373e-16 0)
(0.775 -8.22928e-17 0)
(0.775 1.59933e-16 0)
(0.775 2.06576e-17 0)
(0.775 -2.83096e-16 0)
(0.775 2.13675e-16 0)
(0.775 -4.88495e-16 0)
(0.775 -3.48683e-16 0)
(0.775 6.03144e-16 0)
(0.775 -4.58462e-14 0)
(0.775 -4.03527e-14 0)
(0.825 3.30529e-15 0)
(0.825 -1.27174e-14 0)
(0.825 -4.34755e-15 0)
(0.825 1.05304e-15 0)
(0.825 -1.48718e-15 0)
(0.825 1.08316e-15 0)
(0.825 -8.4078e-16 0)
(0.825 7.04532e-16 0)
(0.825 -6.49617e-16 0)
(0.825 3.17856e-16 0)
(0.825 -1.20195e-16 0)
(0.825 1.38591e-16 0)
(0.825 2.03313e-17 0)
(0.825 -2.42818e-16 0)
(0.825 2.45892e-16 0)
(0.825 -4.52876e-16 0)
(0.825 -6.57351e-17 0)
(0.825 1.20339e-16 0)
(0.825 -2.75585e-14 0)
(0.825 -2.16278e-14 0)
(0.875 9.38908e-15 0)
(0.875 -3.0546e-15 0)
(0.875 -2.69301e-15 0)
(0.875 1.05309e-15 0)
(0.875 -1.18416e-15 0)
(0.875 9.11549e-16 0)
(0.875 -7.07149e-16 0)
(0.875 5.68894e-16 0)
(0.875 -5.15057e-16 0)
(0.875 2.81628e-16 0)
(0.875 -1.2095e-16 0)
(0.875 1.06186e-16 0)
(0.875 1.53025e-17 0)
(0.875 -1.72843e-16 0)
(0.875 2.25793e-16 0)
(0.875 -3.69199e-16 0)
(0.875 1.0558e-16 0)
(0.875 -1.57409e-16 0)
(0.875 -1.33799e-14 0)
(0.875 -8.09542e-15 0)
(0.925 8.11945e-15 0)
(0.925 6.43783e-16 0)
(0.925 -1.32622e-15 0)
(0.925 7.408e-16 0)
(0.925 -7.25371e-16 0)
(0.925 5.85788e-16 0)
(0.925 -4.4725e-16 0)
(0.925 3.48842e-16 0)
(0.925 -3.08248e-16 0)
(0.925 1.83824e-16 0)
(0.925 -8.22492e-17 0)
(0.925 6.0416e-17 0)
(0.925 1.18798e-17 0)
(0.925 -9.56605e-17 0)
(0.925 1.47251e-16 0)
(0.925 -2.34005e-16 0)
(0.925 1.47725e-16 0)
(0.925 -1.95877e-16 0)
(0.925 -4.32049e-15 0)
(0.925 -8.45691e-16 0)
(0.975 3.02898e-15 0)
(0.975 6.7333e-16 0)
(0.975 -3.64109e-16 0)
(0.975 2.53797e-16 0)
(0.975 -2.30075e-16 0)
(0.975 1.90294e-16 0)
(0.975 -1.44884e-16 0)
(0.975 1.11217e-16 0)
(0.975 -9.62399e-17 0)
(0.975 5.91175e-17 0)
(0.975 -2.71252e-17 0)
(0.975 1.92851e-17 0)
(0.975 4.01367e-18 0)
(0.975 -2.94278e-17 0)
(0.975 4.83506e-17 0)
(0.975 -7.43342e-17 0)
(0.975 6.31136e-17 0)
(0.975 -9.30192e-17 0)
(0.975 -5.68096e-16 0)
(0.975 5.96186e-16 0)
)
;

boundaryField
{
    top
    {
        type            fixedValue;
        value           uniform (1 0 0);
    }
    bottom
    {
        type            fixedValue;
        value           uniform (0 0 0);
    }
    inlet
    {
        type            zeroGradient;
    }
    outlet
    {
        type            zeroGradient;
    }
    frontAndBack
    {
        type            empty;
    }
}


// ************************************************************************* //
