/*--------------------------------*- C++ -*----------------------------------*\
| =========                 |                                                 |
| \\      /  F ield         | OpenFOAM: The Open Source CFD Toolbox           |
|  \\    /   O peration     | Version:  4.1                                   |
|   \\  /    A nd           | Web:      www.OpenFOAM.org                      |
|    \\/     M anipulation  |                                                 |
\*---------------------------------------------------------------------------*/
FoamFile
{
    version     2.0;
    format      ascii;
    class       surfaceScalarField;
    location    "1.2";
    object      phi;
}
// * * * * * * * * * * * * * * * * * * * * * * * * * * * * * * * * * * * * * //

dimensions      [0 3 -1 0 0 0 0];

internalField   nonuniform List<scalar> 
760
(
3.16614e-05
-1.47858e-11
3.16614e-05
-1.07754e-11
3.16614e-05
-1.39804e-12
3.16614e-05
-1.15733e-12
3.16614e-05
-6.97957e-14
3.16614e-05
-3.32839e-13
3.16614e-05
-3.90741e-13
3.16614e-05
-5.59373e-13
3.16614e-05
-7.70943e-13
3.16614e-05
-1.18636e-12
3.16614e-05
-1.28672e-12
3.16614e-05
-1.99276e-12
3.16614e-05
-2.04609e-12
3.16614e-05
-2.79125e-12
3.16614e-05
-2.9666e-12
3.16614e-05
-3.57809e-12
3.16614e-05
-3.57341e-12
3.16614e-05
-3.26435e-12
3.16614e-05
-7.88656e-12
-1.54661e-11
8.86515e-05
-4.13009e-11
8.86516e-05
-3.54897e-11
8.86516e-05
-6.24606e-12
8.86516e-05
-3.0287e-12
8.86516e-05
-5.3891e-13
8.86516e-05
-6.14566e-13
8.86516e-05
-1.18352e-12
8.86516e-05
-1.25626e-12
8.86516e-05
-2.26248e-12
8.86516e-05
-2.91321e-12
8.86516e-05
-3.67123e-12
8.86516e-05
-5.07434e-12
8.86516e-05
-5.64995e-12
8.86516e-05
-7.25135e-12
8.86516e-05
-7.91007e-12
8.86516e-05
-9.27776e-12
8.86516e-05
-9.50879e-12
8.86516e-05
-7.62863e-12
8.86516e-05
-2.45206e-11
-4.12177e-11
0.000139309
-6.885e-11
0.000139309
-6.50559e-11
0.000139309
-1.33879e-11
0.000139309
-5.21246e-12
0.000139309
-1.3216e-12
0.000139309
-1.05441e-12
0.000139309
-2.10089e-12
0.000139309
-2.43333e-12
0.000139309
-3.94293e-12
0.000139309
-5.45603e-12
0.000139309
-6.43584e-12
0.000139309
-9.26809e-12
0.000139309
-9.96189e-12
0.000139309
-1.30615e-11
0.000139309
-1.38897e-11
0.000139309
-1.64705e-11
0.000139309
-1.68505e-11
0.000139309
-1.27172e-11
0.000139309
-4.49876e-11
-6.7975e-11
0.000183634
-9.11289e-11
0.000183634
-9.14746e-11
0.000183634
-2.07558e-11
0.000183634
-7.31204e-12
0.000183634
-2.23981e-12
0.000183634
-1.52148e-12
0.000183634
-3.18197e-12
0.000183634
-3.69659e-12
0.000183634
-5.93982e-12
0.000183634
-8.04316e-12
0.000183634
-9.74005e-12
0.000183634
-1.34347e-11
0.000183634
-1.5029e-11
0.000183634
-1.88289e-11
0.000183634
-2.07142e-11
0.000183634
-2.3721e-11
0.000183634
-2.49542e-11
0.000183634
-1.80223e-11
0.000183634
-6.4178e-11
-9.0345e-11
0.000221627
-1.0359e-10
0.000221627
-1.08298e-10
0.000221627
-2.63833e-11
0.000221627
-8.80967e-12
0.000221627
-3.05072e-12
0.000221627
-1.96234e-12
0.000221627
-4.24699e-12
0.000221627
-4.98717e-12
0.000221627
-7.95371e-12
0.000221627
-1.05921e-11
0.000221627
-1.31233e-11
0.000221627
-1.74466e-11
0.000221627
-2.0228e-11
0.000221627
-2.43476e-11
0.000221627
-2.76365e-11
0.000221627
-3.07463e-11
0.000221627
-3.29126e-11
0.000221627
-2.37224e-11
0.000221627
-7.85229e-11
-1.0446e-10
0.000253287
-1.03817e-10
0.000253287
-1.11631e-10
0.000253287
-2.86836e-11
0.000253287
-9.24873e-12
0.000253287
-3.56753e-12
0.000253287
-2.28508e-12
0.000253287
-5.18634e-12
0.000253287
-6.15128e-12
0.000253287
-9.79681e-12
0.000253287
-1.28495e-11
0.000253287
-1.62661e-11
0.000253287
-2.09441e-11
0.000253287
-2.50664e-11
0.000253287
-2.91546e-11
0.000253287
-3.39974e-11
0.000253287
-3.7005e-11
0.000253287
-3.98702e-11
0.000253287
-2.97384e-11
0.000253287
-8.58876e-11
-1.08017e-10
0.000278615
-9.13889e-11
0.000278615
-1.00106e-10
0.000278615
-2.67674e-11
0.000278615
-8.36528e-12
0.000278615
-3.67393e-12
0.000278615
-2.45388e-12
0.000278615
-5.92476e-12
0.000278615
-7.11841e-12
0.000278615
-1.13268e-11
0.000278615
-1.4691e-11
0.000278615
-1.89228e-11
0.000278615
-2.37448e-11
0.000278615
-2.91704e-11
0.000278615
-3.30024e-11
0.000278615
-3.93177e-11
0.000278615
-4.21763e-11
0.000278615
-4.5249e-11
0.000278615
-3.59672e-11
0.000278615
-8.55828e-11
-1.00444e-10
0.000297611
-6.77519e-11
0.000297611
-7.49017e-11
0.000297611
-2.0611e-11
0.000297611
-6.15978e-12
0.000297611
-3.35595e-12
0.000297611
-2.47719e-12
0.000297611
-6.44401e-12
0.000297611
-7.8697e-12
0.000297611
-1.24884e-11
0.000297611
-1.60735e-11
0.000297611
-2.09809e-11
0.000297611
-2.57863e-11
0.000297611
-3.23514e-11
0.000297611
-3.58024e-11
0.000297611
-4.33527e-11
0.000297611
-4.6108e-11
0.000297611
-4.8797e-11
0.000297611
-4.2194e-11
0.000297611
-7.81525e-11
-8.27802e-11
0.000310275
-3.5794e-11
0.000310275
-3.92934e-11
0.000310275
-1.10603e-11
0.000310275
-2.90899e-12
0.000310275
-2.69174e-12
0.000310275
-2.39103e-12
0.000310275
-6.74888e-12
0.000310275
-8.40527e-12
0.000310275
-1.32561e-11
0.000310275
-1.69852e-11
0.000310275
-2.23751e-11
0.000310275
-2.70517e-11
0.000310275
-3.4493e-11
0.000310275
-3.75217e-11
0.000310275
-4.59604e-11
0.000310275
-4.8692e-11
0.000310275
-5.04597e-11
0.000310275
-4.79801e-11
0.000310275
-6.49694e-11
-5.73162e-11
0.000316607
5.62328e-13
0.000316607
1.88622e-12
0.000316607
3.46938e-13
0.000316607
8.80673e-13
0.000316607
-1.83423e-12
0.000316607
-2.24744e-12
0.000316607
-6.86024e-12
0.000316607
-8.73121e-12
0.000316607
-1.36281e-11
0.000316607
-1.74279e-11
0.000316607
-2.30799e-11
0.000316607
-2.75472e-11
0.000316607
-3.55417e-11
0.000316607
-3.81597e-11
0.000316607
-4.70871e-11
0.000316607
-4.98494e-11
0.000316607
-5.03474e-11
0.000316607
-5.27239e-11
0.000316607
-4.79832e-11
-2.72601e-11
0.000316607
3.68822e-11
0.000316607
4.30036e-11
0.000316607
1.16923e-11
0.000316607
4.57881e-12
0.000316607
-9.73579e-13
0.000316607
-2.10014e-12
0.000316607
-6.80355e-12
0.000316607
-8.85031e-12
0.000316607
-1.36129e-11
0.000316607
-1.74049e-11
0.000316607
-2.30921e-11
0.000316607
-2.72854e-11
0.000316607
-3.54833e-11
0.000316607
-3.77256e-11
0.000316607
-4.67349e-11
0.000316607
-4.95188e-11
0.000316607
-4.86664e-11
0.000316607
-5.57488e-11
0.000316607
-2.94354e-11
3.70525e-12
0.000310275
6.8735e-11
0.000310275
7.84264e-11
0.000310275
2.10666e-11
0.000310275
7.56886e-12
0.000310275
-2.907e-13
0.000310275
-1.99077e-12
0.000310275
-6.60148e-12
0.000310275
-8.75901e-12
0.000310275
-1.3224e-11
0.000310275
-1.69184e-11
0.000310275
-2.2423e-11
0.000310275
-2.62805e-11
0.000310275
-3.43339e-11
0.000310275
-3.62363e-11
0.000310275
-4.49468e-11
0.000310275
-4.76674e-11
0.000310275
-4.56601e-11
0.000310275
-5.64339e-11
0.000310275
-1.16148e-11
3.18685e-11
0.000297611
9.221e-11
0.000297611
1.03328e-10
0.000297611
2.696e-11
0.000297611
9.38397e-12
0.000297611
8.75234e-14
0.000297611
-1.93752e-12
0.000297611
-6.26849e-12
0.000297611
-8.44739e-12
0.000297611
-1.24768e-11
0.000297611
-1.59704e-11
0.000297611
-2.10954e-11
0.000297611
-2.45513e-11
0.000297611
-3.21352e-11
0.000297611
-3.37199e-11
0.000297611
-4.17974e-11
0.000297611
-4.43099e-11
0.000297611
-4.15583e-11
0.000297611
-5.43481e-11
0.000297611
3.38197e-12
5.39342e-11
0.000278615
1.04437e-10
0.000278615
1.14441e-10
0.000278615
2.85704e-11
0.000278615
9.80662e-12
0.000278615
1.1855e-13
0.000278615
-1.93008e-12
0.000278615
-5.80983e-12
0.000278615
-7.90387e-12
0.000278615
-1.13903e-11
0.000278615
-1.45716e-11
0.000278615
-1.91478e-11
0.000278615
-2.21339e-11
0.000278615
-2.89615e-11
0.000278615
-3.02355e-11
0.000278615
-3.74006e-11
0.000278615
-3.9538e-11
0.000278615
-3.65546e-11
0.000278615
-4.93752e-11
0.000278615
1.39043e-11
6.74412e-11
0.000253287
1.03989e-10
0.000253287
1.10606e-10
0.000253287
2.59806e-11
0.000253287
8.90605e-12
0.000253287
-1.42426e-13
0.000253287
-1.92764e-12
0.000253287
-5.2164e-12
0.000253287
-7.11282e-12
0.000253287
-9.98041e-12
0.000253287
-1.27364e-11
0.000253287
-1.66258e-11
0.000253287
-1.90753e-11
0.000253287
-2.49097e-11
0.000253287
-2.58659e-11
0.000253287
-3.19002e-11
0.000253287
-3.35161e-11
0.000253287
-3.07895e-11
0.000253287
-4.17689e-11
0.000253287
1.89934e-11
7.1098e-11
0.000221627
9.13076e-11
0.000221627
9.32088e-11
0.000221627
2.0141e-11
0.000221627
7.00836e-12
0.000221627
-5.62918e-13
0.000221627
-1.87534e-12
0.000221627
-4.48406e-12
0.000221627
-6.08113e-12
0.000221627
-8.29105e-12
0.000221627
-1.0531e-11
0.000221627
-1.36305e-11
0.000221627
-1.55081e-11
0.000221627
-2.01674e-11
0.000221627
-2.08188e-11
0.000221627
-2.55618e-11
0.000221627
-2.65948e-11
0.000221627
-2.44635e-11
0.000221627
-3.22764e-11
0.000221627
1.86048e-11
6.5023e-11
0.000183634
6.88184e-11
0.000183634
6.6173e-11
0.000183634
1.27067e-11
0.000183634
4.59624e-12
0.000183634
-9.48832e-13
0.000183634
-1.72183e-12
0.000183634
-3.60959e-12
0.000183634
-4.84242e-12
0.000183634
-6.39772e-12
0.000183634
-8.0654e-12
0.000183634
-1.03397e-11
0.000183634
-1.16283e-11
0.000183634
-1.50556e-11
0.000183634
-1.53942e-11
0.000183634
-1.88329e-11
0.000183634
-1.92611e-11
0.000183634
-1.79358e-11
0.000183634
-2.20267e-11
0.000183634
1.37339e-11
5.08113e-11
0.000139309
4.1101e-11
0.000139309
3.59853e-11
0.000139309
5.70167e-12
0.000139309
2.28224e-12
0.000139309
-1.06616e-12
0.000139309
-1.33412e-12
0.000139309
-2.5222e-12
0.000139309
-3.32824e-12
0.000139309
-4.2386e-12
0.000139309
-5.34711e-12
0.000139309
-6.69077e-12
0.000139309
-7.54648e-12
0.000139309
-9.55107e-12
0.000139309
-9.82338e-12
0.000139309
-1.17604e-11
0.000139309
-1.19625e-11
0.000139309
-1.11635e-11
0.000139309
-1.23275e-11
0.000139309
6.83887e-12
3.16041e-11
8.86515e-05
1.45282e-11
8.86516e-05
1.08582e-11
8.86516e-05
1.19412e-12
8.86516e-05
5.40819e-13
8.86516e-05
-6.62123e-13
8.86516e-05
-6.8709e-13
8.86516e-05
-1.19769e-12
8.86516e-05
-1.5697e-12
8.86516e-05
-1.90732e-12
8.86516e-05
-2.45552e-12
8.86516e-05
-2.94094e-12
8.86516e-05
-3.39881e-12
8.86516e-05
-4.11645e-12
8.86516e-05
-4.32903e-12
8.86516e-05
-4.97869e-12
8.86516e-05
-5.08759e-12
8.86516e-05
-4.66903e-12
8.86516e-05
-4.29351e-12
8.86516e-05
1.48369e-12
1.1928e-11
3.16614e-05
3.16614e-05
3.16614e-05
3.16614e-05
3.16614e-05
3.16614e-05
3.16614e-05
3.16614e-05
3.16614e-05
3.16614e-05
3.16614e-05
3.16614e-05
3.16614e-05
3.16614e-05
3.16614e-05
3.16614e-05
3.16614e-05
3.16614e-05
3.16614e-05
)
;

boundaryField
{
    top
    {
        type            calculated;
        value           uniform 0;
    }
    bottom
    {
        type            calculated;
        value           uniform 0;
    }
    inlet
    {
        type            calculated;
        value           nonuniform List<scalar> 
20
(
-3.16614e-05
-8.86515e-05
-0.000139309
-0.000183634
-0.000221627
-0.000253287
-0.000278615
-0.000297611
-0.000310275
-0.000316607
-0.000316607
-0.000310275
-0.000297611
-0.000278615
-0.000253287
-0.000221627
-0.000183634
-0.000139309
-8.86515e-05
-3.16614e-05
)
;
    }
    outlet
    {
        type            calculated;
        value           nonuniform List<scalar> 
20
(
3.16615e-05
8.86516e-05
0.000139309
0.000183634
0.000221627
0.000253287
0.000278615
0.000297611
0.000310275
0.000316607
0.000316607
0.000310275
0.000297611
0.000278615
0.000253287
0.000221627
0.000183634
0.000139309
8.86516e-05
3.16614e-05
)
;
    }
    frontAndBack
    {
        type            empty;
        value           nonuniform 0();
    }
}


// ************************************************************************* //
