/*--------------------------------*- C++ -*----------------------------------*\
| =========                 |                                                 |
| \\      /  F ield         | OpenFOAM: The Open Source CFD Toolbox           |
|  \\    /   O peration     | Version:  4.1                                   |
|   \\  /    A nd           | Web:      www.OpenFOAM.org                      |
|    \\/     M anipulation  |                                                 |
\*---------------------------------------------------------------------------*/
FoamFile
{
    version     2.0;
    format      ascii;
    class       volVectorField;
    location    "1.2";
    object      U;
}
// * * * * * * * * * * * * * * * * * * * * * * * * * * * * * * * * * * * * * //

dimensions      [0 1 -1 0 0 0 0];

internalField   nonuniform List<vector> 
400
(
(0.633228 -6.95246e-09 0)
(0.633228 -4.30484e-09 0)
(0.633229 -4.53183e-10 0)
(0.633229 -5.26133e-10 0)
(0.633229 6.32528e-11 0)
(0.633229 -3.2247e-10 0)
(0.633229 4.36514e-11 0)
(0.633229 -6.05793e-10 0)
(0.633229 1.02011e-10 0)
(0.633229 -1.13486e-09 0)
(0.633229 9.44475e-11 0)
(0.633229 -1.71166e-09 0)
(0.633229 -1.5104e-10 0)
(0.633229 -2.11481e-09 0)
(0.633229 -6.18626e-10 0)
(0.633229 -2.36552e-09 0)
(0.633229 -1.09603e-09 0)
(0.633229 -1.81229e-09 0)
(0.633229 -3.30903e-09 0)
(0.633229 -7.11974e-09 0)
(1.77303 -2.71114e-08 0)
(1.77303 -2.18625e-08 0)
(1.77303 -3.18644e-09 0)
(1.77303 -1.99482e-09 0)
(1.77303 -4.34065e-10 0)
(1.77303 -4.95471e-10 0)
(1.77303 -1.20322e-09 0)
(1.77303 -8.48712e-10 0)
(1.77303 -2.29392e-09 0)
(1.77303 -1.90292e-09 0)
(1.77303 -3.62637e-09 0)
(1.77303 -3.46628e-09 0)
(1.77303 -5.23903e-09 0)
(1.77303 -5.18312e-09 0)
(1.77303 -6.90002e-09 0)
(1.77303 -6.84915e-09 0)
(1.77303 -7.77492e-09 0)
(1.77303 -6.23217e-09 0)
(1.77303 -1.59068e-08 0)
(1.77303 -2.77526e-08 0)
(2.78618 -5.51967e-08 0)
(2.78618 -4.94549e-08 0)
(2.78618 -9.42982e-09 0)
(2.78618 -4.11855e-09 0)
(2.78618 -8.394e-10 0)
(2.78618 -1.03072e-09 0)
(2.78618 -1.48542e-09 0)
(2.78618 -2.22504e-09 0)
(2.78618 -2.79631e-09 0)
(2.78618 -4.81027e-09 0)
(2.78618 -4.63235e-09 0)
(2.78618 -7.99707e-09 0)
(2.78618 -7.39569e-09 0)
(2.78618 -1.10552e-08 0)
(2.78618 -1.06713e-08 0)
(2.78618 -1.37054e-08 0)
(2.78618 -1.32191e-08 0)
(2.78618 -1.07512e-08 0)
(2.78618 -3.47071e-08 0)
(2.78618 -5.48551e-08 0)
(3.67268 -8.16511e-08 0)
(3.67268 -7.97806e-08 0)
(3.67268 -1.72236e-08 0)
(3.67268 -6.3188e-09 0)
(3.67268 -1.81889e-09 0)
(3.67268 -1.23216e-09 0)
(3.67268 -2.7356e-09 0)
(3.67268 -2.92191e-09 0)
(3.67268 -5.10652e-09 0)
(3.67268 -6.52361e-09 0)
(3.67268 -8.29405e-09 0)
(3.67268 -1.10799e-08 0)
(3.67268 -1.26676e-08 0)
(3.67268 -1.5673e-08 0)
(3.67268 -1.74637e-08 0)
(3.67268 -1.9829e-08 0)
(3.67268 -2.10458e-08 0)
(3.67268 -1.51212e-08 0)
(3.67268 -5.50623e-08 0)
(3.67268 -8.03852e-08 0)
(4.43253 -1.00009e-07 0)
(4.43253 -1.02757e-07 0)
(4.43253 -2.42425e-08 0)
(4.43253 -8.25703e-09 0)
(4.43253 -2.68176e-09 0)
(4.43253 -1.70931e-09 0)
(4.43253 -3.71325e-09 0)
(4.43253 -4.2477e-09 0)
(4.43253 -6.93613e-09 0)
(4.43253 -9.17814e-09 0)
(4.43253 -1.13903e-08 0)
(4.43253 -1.52675e-08 0)
(4.43253 -1.75174e-08 0)
(4.43253 -2.13861e-08 0)
(4.43254 -2.4036e-08 0)
(4.43253 -2.6995e-08 0)
(4.43254 -2.8839e-08 0)
(4.43253 -2.04493e-08 0)
(4.43254 -7.24396e-08 0)
(4.43254 -9.95253e-08 0)
(5.06574 -1.0669e-07 0)
(5.06574 -1.13531e-07 0)
(5.06574 -2.85761e-08 0)
(5.06574 -9.32128e-09 0)
(5.06574 -3.38173e-09 0)
(5.06574 -2.08891e-09 0)
(5.06574 -4.71657e-09 0)
(5.06574 -5.46968e-09 0)
(5.06574 -8.8591e-09 0)
(5.06574 -1.15761e-08 0)
(5.06574 -1.46448e-08 0)
(5.06574 -1.90124e-08 0)
(5.06574 -2.25464e-08 0)
(5.06574 -2.65319e-08 0)
(5.06574 -3.06732e-08 0)
(5.06574 -3.36158e-08 0)
(5.06574 -3.63046e-08 0)
(5.06574 -2.61797e-08 0)
(5.06574 -8.35197e-08 0)
(5.06574 -1.08648e-07 0)
(5.57231 -1.00448e-07 0)
(5.57231 -1.09442e-07 0)
(5.57231 -2.8905e-08 0)
(5.57231 -9.13649e-09 0)
(5.57231 -3.70047e-09 0)
(5.57231 -2.32804e-09 0)
(5.57231 -5.53558e-09 0)
(5.57231 -6.52825e-09 0)
(5.57231 -1.05083e-08 0)
(5.57231 -1.36174e-08 0)
(5.57231 -1.74922e-08 0)
(5.57231 -2.21425e-08 0)
(5.57231 -2.69633e-08 0)
(5.57231 -3.08222e-08 0)
(5.57231 -3.64583e-08 0)
(5.57231 -3.92837e-08 0)
(5.57231 -4.24348e-08 0)
(5.57231 -3.22187e-08 0)
(5.57231 -8.6959e-08 0)
(5.57231 -1.0652e-07 0)
(5.95223 -8.18917e-08 0)
(5.95223 -9.05172e-08 0)
(5.95223 -2.47613e-08 0)
(5.95223 -7.55936e-09 0)
(5.95223 -3.58575e-09 0)
(5.95223 -2.4189e-09 0)
(5.95223 -6.16044e-09 0)
(5.95223 -7.39247e-09 0)
(5.95223 -1.18524e-08 0)
(5.95223 -1.5242e-08 0)
(5.95223 -1.98541e-08 0)
(5.95223 -2.458e-08 0)
(5.95223 -3.06213e-08 0)
(5.95223 -3.41659e-08 0)
(5.95223 -4.11616e-08 0)
(5.95223 -4.38704e-08 0)
(5.95223 -4.6918e-08 0)
(5.95223 -3.85284e-08 0)
(5.95223 -8.28812e-08 0)
(5.95223 -9.35097e-08 0)
(6.20551 -5.32808e-08 0)
(6.20551 -5.90867e-08 0)
(6.20551 -1.65743e-08 0)
(6.20551 -4.72523e-09 0)
(6.20551 -3.0589e-09 0)
(6.20551 -2.37612e-09 0)
(6.20551 -6.55834e-09 0)
(6.20551 -8.03773e-09 0)
(6.20551 -1.28003e-08 0)
(6.20551 -1.63949e-08 0)
(6.20551 -2.15626e-08 0)
(6.20551 -2.62374e-08 0)
(6.20551 -3.32695e-08 0)
(6.20551 -3.64272e-08 0)
(6.20551 -4.44707e-08 0)
(6.20551 -4.71448e-08 0)
(6.20551 -4.94816e-08 0)
(6.20551 -4.46645e-08 0)
(6.20551 -7.22093e-08 0)
(6.20551 -7.12851e-08 0)
(6.33215 -1.81263e-08 0)
(6.33215 -1.93715e-08 0)
(6.33215 -5.60754e-09 0)
(6.33215 -1.04741e-09 0)
(6.33215 -2.24661e-09 0)
(6.33215 -2.24823e-09 0)
(6.33215 -6.75224e-09 0)
(6.33215 -8.47184e-09 0)
(6.33215 -1.3355e-08 0)
(6.33215 -1.70787e-08 0)
(6.33215 -2.25962e-08 0)
(6.33215 -2.7123e-08 0)
(6.33215 -3.48517e-08 0)
(6.33215 -3.76104e-08 0)
(6.33215 -4.63233e-08 0)
(6.33215 -4.90382e-08 0)
(6.33215 -5.01968e-08 0)
(6.33215 -5.01093e-08 0)
(6.33215 -5.66803e-08 0)
(6.33215 -4.27027e-08 0)
(6.33215 1.9269e-08 0)
(6.33215 2.31973e-08 0)
(6.33215 6.31054e-09 0)
(6.33215 2.87123e-09 0)
(6.33215 -1.33241e-09 0)
(6.33215 -2.09168e-09 0)
(6.33215 -6.76763e-09 0)
(6.33215 -8.70016e-09 0)
(6.33215 -1.35215e-08 0)
(6.33215 -1.72972e-08 0)
(6.33215 -2.29423e-08 0)
(6.33215 -2.72481e-08 0)
(6.33215 -3.53353e-08 0)
(6.33215 -3.77216e-08 0)
(6.33215 -4.66962e-08 0)
(6.33215 -4.9478e-08 0)
(6.33215 -4.92351e-08 0)
(6.33215 -5.41907e-08 0)
(6.33215 -3.84393e-08 0)
(6.33215 -1.13116e-08 0)
(6.20551 5.4352e-08 0)
(6.20551 6.27827e-08 0)
(6.20551 1.71535e-08 0)
(6.20551 6.36737e-09 0)
(6.20551 -5.1542e-10 0)
(6.20551 -1.95772e-09 0)
(6.20551 -6.63062e-09 0)
(6.20551 -8.72261e-09 0)
(6.20551 -1.33122e-08 0)
(6.20551 -1.70533e-08 0)
(6.20551 -2.26059e-08 0)
(6.20551 -2.66268e-08 0)
(6.20551 -3.47227e-08 0)
(6.20551 -3.67743e-08 0)
(6.20551 -4.56144e-08 0)
(6.20551 -4.84133e-08 0)
(6.20551 -4.68365e-08 0)
(6.20551 -5.62235e-08 0)
(6.20551 -1.97962e-08 0)
(6.20551 1.90851e-08 0)
(5.95223 8.28277e-08 0)
(5.95223 9.39572e-08 0)
(5.95223 2.51116e-08 0)
(5.95223 8.86477e-09 0)
(5.95223 3.88483e-11 0)
(5.95223 -1.87907e-09 0)
(5.95223 -6.3615e-09 0)
(5.95223 -8.53273e-09 0)
(5.95223 -1.27427e-08 0)
(5.95223 -1.63498e-08 0)
(5.95223 -2.16054e-08 0)
(5.95223 -2.52765e-08 0)
(5.95223 -3.30442e-08 0)
(5.95223 -3.47921e-08 0)
(5.95223 -4.31393e-08 0)
(5.95223 -4.58331e-08 0)
(5.95223 -4.32506e-08 0)
(5.95223 -5.56489e-08 0)
(5.95223 -2.9944e-09 0)
(5.95223 4.48786e-08 0)
(5.57231 1.01198e-07 0)
(5.57231 1.1251e-07 0)
(5.57231 2.89622e-08 0)
(5.57231 1.00022e-08 0)
(5.57231 2.43395e-10 0)
(5.57231 -1.85673e-09 0)
(5.57231 -5.96384e-09 0)
(5.57231 -8.11059e-09 0)
(5.57231 -1.18189e-08 0)
(5.57231 -1.51764e-08 0)
(5.57231 -1.99551e-08 0)
(5.57231 -2.31985e-08 0)
(5.57231 -3.03357e-08 0)
(5.57231 -3.17825e-08 0)
(5.57231 -3.93373e-08 0)
(5.57231 -4.17481e-08 0)
(5.57231 -3.86652e-08 0)
(5.57231 -5.21262e-08 0)
(5.57231 1.00628e-08 0)
(5.5723 6.31138e-08 0)
(5.06574 1.07229e-07 0)
(5.06574 1.16117e-07 0)
(5.06574 2.83157e-08 0)
(5.06574 9.70386e-09 0)
(5.06574 9.07374e-11 0)
(5.06574 -1.87853e-09 0)
(5.06574 -5.46046e-09 0)
(5.06574 -7.47431e-09 0)
(5.06574 -1.05998e-08 0)
(5.06574 -1.36023e-08 0)
(5.06574 -1.77578e-08 0)
(5.06574 -2.05194e-08 0)
(5.06574 -2.67654e-08 0)
(5.06574 -2.79274e-08 0)
(5.06574 -3.44408e-08 0)
(5.06574 -3.64141e-08 0)
(5.06574 -3.33592e-08 0)
(5.06574 -4.58569e-08 0)
(5.06574 1.79226e-08 0)
(5.06574 7.17924e-08 0)
(4.43253 1.00319e-07 0)
(4.43253 1.04782e-07 0)
(4.43253 2.37205e-08 0)
(4.43253 8.18224e-09 0)
(4.43253 -3.03433e-10 0)
(4.43253 -1.87907e-09 0)
(4.43253 -4.81367e-09 0)
(4.43253 -6.58138e-09 0)
(4.43253 -9.0644e-09 0)
(4.43253 -1.15985e-08 0)
(4.43254 -1.50146e-08 0)
(4.43253 -1.72278e-08 0)
(4.43254 -2.23794e-08 0)
(4.43253 -2.32488e-08 0)
(4.43254 -2.85316e-08 0)
(4.43253 -2.99387e-08 0)
(4.43254 -2.73637e-08 0)
(4.43253 -3.71535e-08 0)
(4.43254 2.01082e-08 0)
(4.43254 7.03252e-08 0)
(3.67268 8.17521e-08 0)
(3.67268 8.11653e-08 0)
(3.67268 1.65129e-08 0)
(3.67268 5.91958e-09 0)
(3.67268 -7.95595e-10 0)
(3.67268 -1.76389e-09 0)
(3.67268 -4.02931e-09 0)
(3.67268 -5.42968e-09 0)
(3.67268 -7.24966e-09 0)
(3.67268 -9.28254e-09 0)
(3.67268 -1.17806e-08 0)
(3.67268 -1.36164e-08 0)
(3.67268 -1.72844e-08 0)
(3.67268 -1.82331e-08 0)
(3.67268 -2.17901e-08 0)
(3.67268 -2.30573e-08 0)
(3.67268 -2.07836e-08 0)
(3.67268 -2.72868e-08 0)
(3.67268 1.69994e-08 0)
(3.67268 5.93504e-08 0)
(2.78618 5.49785e-08 0)
(2.78618 5.02509e-08 0)
(2.78618 8.82018e-09 0)
(2.78618 3.16762e-09 0)
(2.78618 -1.0571e-09 0)
(2.78618 -1.72183e-09 0)
(2.78618 -3.15103e-09 0)
(2.78618 -4.27918e-09 0)
(2.78618 -5.55323e-09 0)
(2.78618 -6.85042e-09 0)
(2.78618 -9.00425e-09 0)
(2.78618 -9.69144e-09 0)
(2.78618 -1.30553e-08 0)
(2.78618 -1.27254e-08 0)
(2.78618 -1.62279e-08 0)
(2.78618 -1.56842e-08 0)
(2.78618 -1.55934e-08 0)
(2.78618 -1.68316e-08 0)
(2.78618 9.77209e-09 0)
(2.78618 4.13064e-08 0)
(1.77303 2.6884e-08 0)
(1.77303 2.19616e-08 0)
(1.77303 2.67132e-09 0)
(1.77303 1.34828e-09 0)
(1.77303 -1.09916e-09 0)
(1.77303 -1.03228e-09 0)
(1.77303 -2.03965e-09 0)
(1.77303 -2.61309e-09 0)
(1.77303 -3.25863e-09 0)
(1.77303 -4.27318e-09 0)
(1.77303 -4.94367e-09 0)
(1.77303 -6.18001e-09 0)
(1.77303 -6.90274e-09 0)
(1.77303 -8.10585e-09 0)
(1.77303 -8.47428e-09 0)
(1.77303 -9.7264e-09 0)
(1.77303 -8.1342e-09 0)
(1.77303 -9.28021e-09 0)
(1.77303 3.09566e-09 0)
(1.77303 2.05551e-08 0)
(0.633228 6.78007e-09 0)
(0.633228 4.39706e-09 0)
(0.633229 3.42966e-10 0)
(0.633229 1.03174e-10 0)
(0.633229 -2.58791e-10 0)
(0.633229 -3.98052e-10 0)
(0.633229 -5.24964e-10 0)
(0.633229 -7.48938e-10 0)
(0.633229 -9.60025e-10 0)
(0.633229 -9.86296e-10 0)
(0.633229 -1.62271e-09 0)
(0.633229 -1.20442e-09 0)
(0.633229 -2.36139e-09 0)
(0.633229 -1.46602e-09 0)
(0.633229 -2.88803e-09 0)
(0.633229 -1.73154e-09 0)
(0.633229 -2.87554e-09 0)
(0.633229 -1.32027e-09 0)
(0.633229 9.97487e-11 0)
(0.633229 5.65752e-09 0)
)
;

boundaryField
{
    top
    {
        type            fixedValue;
        value           uniform (0 0 0);
    }
    bottom
    {
        type            fixedValue;
        value           uniform (0 0 0);
    }
    inlet
    {
        type            zeroGradient;
    }
    outlet
    {
        type            zeroGradient;
    }
    frontAndBack
    {
        type            empty;
    }
}


// ************************************************************************* //
