/*--------------------------------*- C++ -*----------------------------------*\
| =========                 |                                                 |
| \\      /  F ield         | OpenFOAM: The Open Source CFD Toolbox           |
|  \\    /   O peration     | Version:  4.1                                   |
|   \\  /    A nd           | Web:      www.OpenFOAM.org                      |
|    \\/     M anipulation  |                                                 |
\*---------------------------------------------------------------------------*/
FoamFile
{
    version     2.0;
    format      ascii;
    class       surfaceScalarField;
    location    "0.9";
    object      phi;
}
// * * * * * * * * * * * * * * * * * * * * * * * * * * * * * * * * * * * * * //

dimensions      [0 3 -1 0 0 0 0];

internalField   nonuniform List<scalar> 
760
(
-1.91616e-05
5.87425e-12
-1.91616e-05
6.64682e-12
-1.91617e-05
1.47468e-11
-1.91617e-05
4.06303e-12
-1.91617e-05
1.42569e-11
-1.91617e-05
3.27979e-12
-1.91617e-05
1.57064e-11
-1.91617e-05
4.07939e-12
-1.91617e-05
1.57307e-11
-1.91617e-05
4.76791e-12
-1.91617e-05
1.45699e-11
-1.91617e-05
5.15709e-12
-1.91617e-05
1.22742e-11
-1.91617e-05
5.46905e-12
-1.91617e-05
8.82444e-12
-1.91617e-05
5.7305e-12
-1.91617e-05
5.11781e-12
-1.91617e-05
4.23066e-12
-1.91617e-05
-1.45465e-12
8.26119e-12
-5.11522e-05
1.8559e-11
-5.11522e-05
2.5458e-11
-5.11522e-05
3.62256e-11
-5.11522e-05
1.133e-11
-5.11522e-05
2.83994e-11
-5.11522e-05
7.60854e-12
-5.11522e-05
2.96001e-11
-5.11522e-05
9.02531e-12
-5.11522e-05
2.91735e-11
-5.11522e-05
1.04774e-11
-5.11522e-05
2.66899e-11
-5.11522e-05
1.13161e-11
-5.11522e-05
2.21801e-11
-5.11522e-05
1.18731e-11
-5.11522e-05
1.57235e-11
-5.11522e-05
1.17791e-11
-5.11522e-05
9.78115e-12
-5.11522e-05
5.68187e-12
-5.11522e-05
-2.75187e-12
2.25528e-11
-7.68101e-05
3.89547e-11
-7.68102e-05
5.69106e-11
-7.68102e-05
6.22569e-11
-7.68102e-05
2.34687e-11
-7.68102e-05
4.27007e-11
-7.68102e-05
1.54436e-11
-7.68102e-05
4.28002e-11
-7.68102e-05
1.72745e-11
-7.68102e-05
4.18901e-11
-7.68102e-05
1.92028e-11
-7.68102e-05
3.8234e-11
-7.68102e-05
1.99926e-11
-7.68102e-05
3.17803e-11
-7.68102e-05
2.00697e-11
-7.68102e-05
2.27735e-11
-7.68102e-05
1.83732e-11
-7.68102e-05
1.59203e-11
-7.68102e-05
4.1686e-12
-7.68102e-05
1.44217e-12
4.14243e-11
-9.61355e-05
6.66756e-11
-9.61356e-05
9.89909e-11
-9.61356e-05
9.02757e-11
-9.61356e-05
3.90603e-11
-9.61356e-05
5.62427e-11
-9.61356e-05
2.59438e-11
-9.61356e-05
5.45528e-11
-9.61356e-05
2.79979e-11
-9.61356e-05
5.31317e-11
-9.61356e-05
3.00962e-11
-9.61356e-05
4.8484e-11
-9.61356e-05
3.03707e-11
-9.61356e-05
4.04162e-11
-9.61356e-05
2.93304e-11
-9.61356e-05
2.93868e-11
-9.61356e-05
2.50278e-11
-9.61356e-05
2.27968e-11
-9.61356e-05
4.33486e-13
-9.61356e-05
1.2253e-11
6.46809e-11
-0.000109129
1.00204e-10
-0.000109129
1.48289e-10
-0.000109129
1.18148e-10
-0.000109129
5.63408e-11
-0.000109129
6.86957e-11
-0.000109129
3.78453e-11
-0.000109129
6.49488e-11
-0.000109129
3.9999e-11
-0.000109129
6.31042e-11
-0.000109129
4.20258e-11
-0.000109129
5.76982e-11
-0.000109129
4.14495e-11
-0.000109129
4.83391e-11
-0.000109129
3.88737e-11
-0.000109129
3.57157e-11
-0.000109129
3.13924e-11
-0.000109129
3.01807e-11
-0.000109129
-4.59821e-12
-0.000109129
2.99078e-11
9.16488e-11
-0.000115789
1.36988e-10
-0.000115789
2.00691e-10
-0.000115789
1.43463e-10
-0.000115789
7.3408e-11
-0.000115789
7.89542e-11
-0.000115789
4.96792e-11
-0.000115789
7.30524e-11
-0.000115789
5.17996e-11
-0.000115789
7.08898e-11
-0.000115789
5.35567e-11
-0.000115789
6.50085e-11
-0.000115789
5.19453e-11
-0.000115789
5.47892e-11
-0.000115789
4.766e-11
-0.000115789
4.11272e-11
-0.000115789
3.68245e-11
-0.000115789
3.73382e-11
-0.000115789
-1.03602e-11
-0.000115789
5.31934e-11
1.20666e-10
-0.000116118
1.73921e-10
-0.000116118
2.51799e-10
-0.000116118
1.64464e-10
-0.000116118
8.88428e-11
-0.000116118
8.64556e-11
-0.000116118
6.04553e-11
-0.000116118
7.85145e-11
-0.000116118
6.24376e-11
-0.000116118
7.6172e-11
-0.000116118
6.37812e-11
-0.000116118
7.01142e-11
-0.000116118
6.10622e-11
-0.000116118
5.94877e-11
-0.000116118
5.5061e-11
-0.000116118
4.53539e-11
-0.000116118
4.099e-11
-0.000116118
4.37921e-11
-0.000116118
-1.62595e-11
-0.000116118
7.99728e-11
1.49488e-10
-0.000110114
2.07615e-10
-0.000110114
2.97259e-10
-0.000110114
1.79915e-10
-0.000110114
1.01651e-10
-0.000110114
9.09915e-11
-0.000110114
6.9615e-11
-0.000110114
8.13326e-11
-0.000110114
7.14005e-11
-0.000110114
7.89746e-11
-0.000110114
7.2233e-11
-0.000110114
7.30246e-11
-0.000110114
6.84119e-11
-0.000110114
6.24175e-11
-0.000110114
6.07936e-11
-0.000110114
4.8341e-11
-0.000110114
4.37955e-11
-0.000110114
4.92281e-11
-0.000110114
-2.17343e-11
-0.000110114
1.07488e-10
1.75542e-10
-9.77781e-05
2.34681e-10
-9.77781e-05
3.32936e-10
-9.77781e-05
1.88923e-10
-9.77781e-05
1.1104e-10
-9.77781e-05
9.24859e-11
-9.77781e-05
7.67242e-11
-9.77781e-05
8.16011e-11
-9.77781e-05
7.82967e-11
-9.77781e-05
7.93978e-11
-9.77781e-05
7.85649e-11
-9.77781e-05
7.38089e-11
-9.77781e-05
7.3717e-11
-9.77781e-05
6.36024e-11
-9.77781e-05
6.46699e-11
-9.77781e-05
5.00595e-11
-9.77781e-05
4.52095e-11
-9.77781e-05
5.33616e-11
-9.77781e-05
-2.63381e-11
-9.77781e-05
1.32661e-10
1.96148e-10
-7.91101e-05
2.52125e-10
-7.91102e-05
3.55273e-10
-7.91102e-05
1.90917e-10
-7.91102e-05
1.16428e-10
-7.91102e-05
9.0981e-11
-7.91102e-05
8.14585e-11
-7.91102e-05
7.94887e-11
-7.91102e-05
8.28441e-11
-7.91102e-05
7.7601e-11
-7.91102e-05
8.25393e-11
-7.91102e-05
7.25836e-11
-7.91102e-05
7.68032e-11
-7.91102e-05
6.3101e-11
-7.91102e-05
6.65908e-11
-7.91102e-05
5.05029e-11
-7.91102e-05
4.52613e-11
-7.91102e-05
5.59462e-11
-7.91102e-05
-2.96987e-11
-7.91102e-05
1.52553e-10
2.08887e-10
-5.41102e-05
2.57709e-10
-5.41102e-05
3.6164e-10
-5.41102e-05
1.85646e-10
-5.41102e-05
1.17434e-10
-5.41102e-05
8.66152e-11
-5.41102e-05
8.3576e-11
-5.41102e-05
7.52053e-11
-5.41102e-05
8.48334e-11
-5.41102e-05
7.37683e-11
-5.41102e-05
8.39915e-11
-5.41102e-05
6.9481e-11
-5.41102e-05
7.75633e-11
-5.41102e-05
6.09811e-11
-5.41102e-05
6.65148e-11
-5.41102e-05
4.96662e-11
-5.41102e-05
4.40192e-11
-5.41102e-05
5.67709e-11
-5.41102e-05
-3.15062e-11
-5.41102e-05
1.64746e-10
2.11911e-10
-2.27781e-05
2.50295e-10
-2.27781e-05
3.50692e-10
-2.27781e-05
1.73225e-10
-2.27781e-05
1.13908e-10
-2.27781e-05
7.9626e-11
-2.27781e-05
8.29152e-11
-2.27781e-05
6.89926e-11
-2.27781e-05
8.41239e-11
-2.27781e-05
6.80987e-11
-2.27781e-05
8.28222e-11
-2.27781e-05
6.4642e-11
-2.27781e-05
7.59497e-11
-2.27781e-05
5.73151e-11
-2.27781e-05
6.445e-11
-2.27781e-05
4.75421e-11
-2.27781e-05
4.15819e-11
-2.27781e-05
5.56739e-11
-2.27781e-05
-3.15266e-11
-2.27781e-05
1.67675e-10
2.04249e-10
1.4886e-05
2.30065e-10
1.4886e-05
3.22659e-10
1.4886e-05
1.54235e-10
1.4886e-05
1.05972e-10
1.4886e-05
7.03643e-11
1.4886e-05
7.94074e-11
1.4886e-05
6.11255e-11
1.4886e-05
8.06505e-11
1.4886e-05
6.08085e-11
1.4886e-05
7.90015e-11
1.4886e-05
5.82196e-11
1.4886e-05
7.19737e-11
1.4886e-05
5.21844e-11
1.4886e-05
6.04523e-11
1.4886e-05
4.41253e-11
1.4886e-05
3.80699e-11
1.4886e-05
5.25653e-11
1.4886e-05
-2.96546e-11
1.4886e-05
1.60823e-10
1.86025e-10
5.88822e-05
1.98667e-10
5.88823e-05
2.79577e-10
5.88823e-05
1.29819e-10
5.88823e-05
9.40649e-11
5.88823e-05
5.93224e-11
5.88823e-05
7.31099e-11
5.88823e-05
5.19363e-11
5.88823e-05
7.44479e-11
5.88823e-05
5.21584e-11
5.88823e-05
7.25906e-11
5.88823e-05
5.04079e-11
5.88823e-05
6.57237e-11
5.88823e-05
4.57072e-11
5.88823e-05
5.46402e-11
5.88823e-05
3.94371e-11
5.88823e-05
3.36272e-11
5.88823e-05
4.74669e-11
5.88823e-05
-2.59805e-11
5.88823e-05
1.44806e-10
1.586e-10
0.000109211
1.59093e-10
0.000109211
2.25247e-10
0.000109211
1.0174e-10
0.000109211
7.89267e-11
0.000109211
4.71033e-11
0.000109211
6.41821e-11
0.000109211
4.17817e-11
0.000109211
6.56279e-11
0.000109211
4.24245e-11
0.000109211
6.37159e-11
0.000109211
4.14177e-11
0.000109211
5.73406e-11
0.000109211
3.80197e-11
0.000109211
4.71762e-11
0.000109211
3.35164e-11
0.000109211
2.83974e-11
0.000109211
4.05266e-11
0.000109211
-2.08774e-11
0.000109211
1.21261e-10
1.24543e-10
0.000165871
1.15611e-10
0.000165871
1.65223e-10
0.000165871
7.25057e-11
0.000165871
6.17594e-11
0.000165871
3.4637e-11
0.000165871
5.31118e-11
0.000165871
3.13273e-11
0.000165871
5.46232e-11
0.000165871
3.22054e-11
0.000165871
5.28169e-11
0.000165871
3.17823e-11
0.000165871
4.72479e-11
0.000165871
2.95549e-11
0.000165871
3.84623e-11
0.000165871
2.66555e-11
0.000165871
2.26782e-11
0.000165871
3.21953e-11
0.000165871
-1.49157e-11
0.000165871
9.28148e-11
8.75822e-11
0.000228864
7.32386e-11
0.000228864
1.06271e-10
0.000228864
4.53236e-11
0.000228864
4.42486e-11
0.000228864
2.32234e-11
0.000228864
4.08746e-11
0.000228864
2.16152e-11
0.000228864
4.23988e-11
0.000228864
2.25113e-11
0.000228864
4.08747e-11
0.000228864
2.24396e-11
0.000228864
3.63825e-11
0.000228864
2.11078e-11
0.000228864
2.93427e-11
0.000228864
1.94517e-11
0.000228864
1.70479e-11
0.000228864
2.32605e-11
0.000228864
-8.74105e-12
0.000228864
6.27055e-11
5.22703e-11
0.00029819
3.6829e-11
0.00029819
5.49987e-11
0.00029819
2.28126e-11
0.00029819
2.72532e-11
0.00029819
1.34127e-11
0.00029819
2.74197e-11
0.00029819
1.30193e-11
0.00029819
2.87659e-11
0.00029819
1.37473e-11
0.00029819
2.77051e-11
0.00029819
1.38295e-11
0.00029819
2.45911e-11
0.00029819
1.31307e-11
0.00029819
1.97189e-11
0.00029819
1.23269e-11
0.00029819
1.14256e-11
0.00029819
1.44143e-11
0.00029819
-3.42849e-12
0.00029819
3.46018e-11
2.34548e-11
0.000373848
1.13899e-11
0.000373848
1.81454e-11
0.000373848
8.17167e-12
0.000373848
1.25745e-11
0.000373848
6.61371e-12
0.000373848
1.42067e-11
0.000373848
6.74956e-12
0.000373848
1.52741e-11
0.000373848
7.07464e-12
0.000373848
1.48689e-11
0.000373848
7.01292e-12
0.000373848
1.33433e-11
0.000373848
6.52542e-12
0.000373848
1.08686e-11
0.000373848
6.00791e-12
0.000373848
6.66367e-12
0.000373848
6.51189e-12
0.000373848
6.57186e-13
0.000373848
1.19194e-11
5.79705e-12
0.000455838
0.000455838
0.000455838
0.000455838
0.000455838
0.000455838
0.000455838
0.000455838
0.000455838
0.000455838
0.000455838
0.000455838
0.000455838
0.000455838
0.000455838
0.000455838
0.000455838
0.000455838
0.000455838
)
;

boundaryField
{
    top
    {
        type            calculated;
        value           uniform 0;
    }
    bottom
    {
        type            calculated;
        value           uniform 0;
    }
    inlet
    {
        type            calculated;
        value           nonuniform List<scalar> 
20
(
1.91616e-05
5.11522e-05
7.68101e-05
9.61355e-05
0.000109128
0.000115789
0.000116118
0.000110114
9.7778e-05
7.91101e-05
5.41102e-05
2.27781e-05
-1.4886e-05
-5.88822e-05
-0.000109211
-0.000165871
-0.000228864
-0.00029819
-0.000373848
-0.000455838
)
;
    }
    outlet
    {
        type            calculated;
        value           nonuniform List<scalar> 
20
(
-1.91617e-05
-5.11522e-05
-7.68102e-05
-9.61356e-05
-0.000109129
-0.000115789
-0.000116118
-0.000110114
-9.77782e-05
-7.91102e-05
-5.41102e-05
-2.27781e-05
1.48861e-05
5.88823e-05
0.000109211
0.000165871
0.000228864
0.00029819
0.000373848
0.000455838
)
;
    }
    frontAndBack
    {
        type            empty;
        value           nonuniform 0();
    }
}


// ************************************************************************* //
