/*--------------------------------*- C++ -*----------------------------------*\
| =========                 |                                                 |
| \\      /  F ield         | OpenFOAM: The Open Source CFD Toolbox           |
|  \\    /   O peration     | Version:  4.1                                   |
|   \\  /    A nd           | Web:      www.OpenFOAM.org                      |
|    \\/     M anipulation  |                                                 |
\*---------------------------------------------------------------------------*/
FoamFile
{
    version     2.0;
    format      ascii;
    class       volVectorField;
    location    "0.9";
    object      U;
}
// * * * * * * * * * * * * * * * * * * * * * * * * * * * * * * * * * * * * * //

dimensions      [0 1 -1 0 0 0 0];

internalField   nonuniform List<vector> 
400
(
(-0.383233 2.14185e-09 0)
(-0.383233 2.11381e-09 0)
(-0.383233 6.46027e-09 0)
(-0.383233 1.46193e-09 0)
(-0.383233 6.48704e-09 0)
(-0.383233 1.20672e-09 0)
(-0.383233 7.17198e-09 0)
(-0.383233 1.585e-09 0)
(-0.383233 7.18303e-09 0)
(-0.383233 1.92521e-09 0)
(-0.383233 6.6189e-09 0)
(-0.383233 2.14997e-09 0)
(-0.383233 5.51479e-09 0)
(-0.383233 2.32757e-09 0)
(-0.383233 3.89226e-09 0)
(-0.383233 2.54973e-09 0)
(-0.383233 2.10733e-09 0)
(-0.383233 2.18307e-09 0)
(-0.383233 -1.25872e-09 0)
(-0.383233 3.49282e-09 0)
(-1.02304 1.07765e-08 0)
(-1.02304 1.38731e-08 0)
(-1.02304 2.48728e-08 0)
(-1.02304 7.63284e-09 0)
(-1.02304 2.19702e-08 0)
(-1.02304 5.92259e-09 0)
(-1.02304 2.36182e-08 0)
(-1.02304 7.15531e-09 0)
(-1.02304 2.34954e-08 0)
(-1.02304 8.2465e-09 0)
(-1.02304 2.16218e-08 0)
(-1.02304 8.83114e-09 0)
(-1.02304 1.80686e-08 0)
(-1.02304 9.17307e-09 0)
(-1.02304 1.29023e-08 0)
(-1.02304 9.22253e-09 0)
(-1.02304 7.70238e-09 0)
(-1.02304 5.86612e-09 0)
(-1.02304 -2.72526e-09 0)
(-1.02304 1.43473e-08 0)
(-1.5362 2.70293e-08 0)
(-1.5362 3.86406e-08 0)
(-1.5362 4.85448e-08 0)
(-1.5362 1.69198e-08 0)
(-1.5362 3.58848e-08 0)
(-1.5362 1.14118e-08 0)
(-1.5362 3.67701e-08 0)
(-1.5362 1.31197e-08 0)
(-1.5362 3.61197e-08 0)
(-1.5362 1.48571e-08 0)
(-1.5362 3.30016e-08 0)
(-1.5362 1.57106e-08 0)
(-1.5362 2.74184e-08 0)
(-1.5362 1.60733e-08 0)
(-1.5362 1.95303e-08 0)
(-1.5362 1.52769e-08 0)
(-1.5362 1.2826e-08 0)
(-1.5362 5.64119e-09 0)
(-1.5362 -1.85652e-09 0)
(-1.5362 3.07825e-08 0)
(-1.92271 5.12628e-08 0)
(-1.92271 7.59949e-08 0)
(-1.92271 7.589e-08 0)
(-1.92271 3.08029e-08 0)
(-1.92271 4.94903e-08 0)
(-1.92271 2.04222e-08 0)
(-1.92271 4.87188e-08 0)
(-1.92271 2.24111e-08 0)
(-1.92271 4.75101e-08 0)
(-1.92271 2.44749e-08 0)
(-1.92271 4.33057e-08 0)
(-1.92271 2.5075e-08 0)
(-1.92271 3.59904e-08 0)
(-1.92271 2.46741e-08 0)
(-1.92271 2.59266e-08 0)
(-1.92271 2.17672e-08 0)
(-1.92271 1.90781e-08 0)
(-1.92271 2.69979e-09 0)
(-1.92271 5.18223e-09 0)
(-1.92271 5.20587e-08 0)
(-2.18257 8.23672e-08 0)
(-2.18257 1.22478e-07 0)
(-2.18257 1.04364e-07 0)
(-2.18257 4.74432e-08 0)
(-2.18257 6.25977e-08 0)
(-2.18257 3.1658e-08 0)
(-2.18257 5.98409e-08 0)
(-2.18257 3.37883e-08 0)
(-2.18257 5.81677e-08 0)
(-2.18257 3.58999e-08 0)
(-2.18257 5.30886e-08 0)
(-2.18257 3.58154e-08 0)
(-2.18257 4.43159e-08 0)
(-2.18257 3.40815e-08 0)
(-2.18257 3.24382e-08 0)
(-2.18257 2.82658e-08 0)
(-2.18257 2.62953e-08 0)
(-2.18257 -1.93084e-09 0)
(-2.18257 1.95138e-08 0)
(-2.18257 7.75207e-08 0)
(-2.31578 1.1815e-07 0)
(-2.31578 1.74212e-07 0)
(-2.31579 1.31318e-07 0)
(-2.31579 6.48019e-08 0)
(-2.31579 7.3979e-08 0)
(-2.31579 4.3573e-08 0)
(-2.31579 6.90621e-08 0)
(-2.31578 4.57126e-08 0)
(-2.31579 6.70109e-08 0)
(-2.31578 4.76442e-08 0)
(-2.31579 6.13194e-08 0)
(-2.31578 4.66085e-08 0)
(-2.31579 5.14825e-08 0)
(-2.31578 4.3243e-08 0)
(-2.31579 3.83032e-08 0)
(-2.31578 3.41384e-08 0)
(-2.31579 3.3621e-08 0)
(-2.31579 -7.5399e-09 0)
(-2.31579 4.03659e-08 0)
(-2.31579 1.05946e-07 0)
(-2.32235 1.55755e-07 0)
(-2.32235 2.269e-07 0)
(-2.32235 1.54757e-07 0)
(-2.32235 8.12112e-08 0)
(-2.32235 8.28716e-08 0)
(-2.32235 5.49133e-08 0)
(-2.32235 7.58114e-08 0)
(-2.32235 5.69476e-08 0)
(-2.32235 7.3506e-08 0)
(-2.32235 5.85298e-08 0)
(-2.32235 6.74946e-08 0)
(-2.32235 5.64139e-08 0)
(-2.32235 5.70357e-08 0)
(-2.32235 5.13276e-08 0)
(-2.32235 4.31128e-08 0)
(-2.32235 3.89112e-08 0)
(-2.32235 4.04697e-08 0)
(-2.32235 -1.35254e-08 0)
(-2.32235 6.59769e-08 0)
(-2.32235 1.35413e-07 0)
(-2.20228 1.91861e-07 0)
(-2.20228 2.76129e-07 0)
(-2.20228 1.73209e-07 0)
(-2.20228 9.54883e-08 0)
(-2.20228 8.89063e-08 0)
(-2.20228 6.4938e-08 0)
(-2.20228 7.99292e-08 0)
(-2.20228 6.67894e-08 0)
(-2.20228 7.75257e-08 0)
(-2.20228 6.79005e-08 0)
(-2.20228 7.14871e-08 0)
(-2.20228 6.46682e-08 0)
(-2.20228 6.08456e-08 0)
(-2.20228 5.79028e-08 0)
(-2.20228 4.67259e-08 0)
(-2.20228 4.23842e-08 0)
(-2.20228 4.64683e-08 0)
(-2.20228 -1.93166e-08 0)
(-2.20228 9.38234e-08 0)
(-2.20228 1.63459e-07 0)
(-1.95556 2.22984e-07 0)
(-1.95556 3.17559e-07 0)
(-1.95556 1.85601e-07 0)
(-1.95556 1.06716e-07 0)
(-1.95556 9.1919e-08 0)
(-1.95556 7.31208e-08 0)
(-1.95556 8.14406e-08 0)
(-1.95556 7.47525e-08 0)
(-1.95556 7.91084e-08 0)
(-1.95556 7.5316e-08 0)
(-1.95556 7.33137e-08 0)
(-1.95556 7.10072e-08 0)
(-1.95556 6.28954e-08 0)
(-1.95556 6.27068e-08 0)
(-1.95556 4.90838e-08 0)
(-1.95556 4.44744e-08 0)
(-1.95556 5.13055e-08 0)
(-1.95556 -2.44399e-08 0)
(-1.95556 1.20882e-07 0)
(-1.95556 1.87373e-07 0)
(-1.5822 2.45843e-07 0)
(-1.5822 3.47265e-07 0)
(-1.5822 1.91206e-07 0)
(-1.5822 1.14208e-07 0)
(-1.5822 9.18987e-08 0)
(-1.5822 7.90889e-08 0)
(-1.5822 8.04849e-08 0)
(-1.5822 8.05073e-08 0)
(-1.5822 7.83928e-08 0)
(-1.5822 8.04917e-08 0)
(-1.5822 7.30756e-08 0)
(-1.5822 7.52126e-08 0)
(-1.5822 6.32335e-08 0)
(-1.5822 6.56026e-08 0)
(-1.5822 5.01746e-08 0)
(-1.5822 4.51853e-08 0)
(-1.5822 5.47172e-08 0)
(-1.5822 -2.84955e-08 0)
(-1.5822 1.44044e-07 0)
(-1.5822 2.04531e-07 0)
(-1.0822 2.57737e-07 0)
(-1.0822 3.6207e-07 0)
(-1.0822 1.89608e-07 0)
(-1.0822 1.17475e-07 0)
(-1.0822 8.89355e-08 0)
(-1.0822 8.25551e-08 0)
(-1.0822 7.72538e-08 0)
(-1.0822 8.38072e-08 0)
(-1.0822 7.55531e-08 0)
(-1.0822 8.32259e-08 0)
(-1.0822 7.0899e-08 0)
(-1.0822 7.71436e-08 0)
(-1.0822 6.1924e-08 0)
(-1.0822 6.65203e-08 0)
(-1.0822 4.99933e-08 0)
(-1.0822 4.45665e-08 0)
(-1.0822 5.64722e-08 0)
(-1.0822 -3.11468e-08 0)
(-1.0822 1.60543e-07 0)
(-1.0822 2.12726e-07 0)
(-0.455563 2.56912e-07 0)
(-0.455563 3.59908e-07 0)
(-0.455563 1.80725e-07 0)
(-0.455562 1.16243e-07 0)
(-0.455563 8.32162e-08 0)
(-0.455562 8.33132e-08 0)
(-0.455563 7.19747e-08 0)
(-0.455562 8.44758e-08 0)
(-0.455563 7.07823e-08 0)
(-0.455561 8.33857e-08 0)
(-0.455563 6.69218e-08 0)
(-0.455561 7.67226e-08 0)
(-0.455563 5.90375e-08 0)
(-0.455561 6.5443e-08 0)
(-0.455563 4.8534e-08 0)
(-0.455561 4.27026e-08 0)
(-0.455563 5.63802e-08 0)
(-0.455562 -3.21156e-08 0)
(-0.455563 1.68323e-07 0)
(-0.455562 2.1049e-07 0)
(0.297719 2.42855e-07 0)
(0.29772 3.40166e-07 0)
(0.29772 1.64877e-07 0)
(0.297721 1.10488e-07 0)
(0.29772 7.50316e-08 0)
(0.297721 8.12536e-08 0)
(0.29772 6.49067e-08 0)
(0.297721 8.24081e-08 0)
(0.29772 6.42887e-08 0)
(0.297721 8.09054e-08 0)
(0.29772 6.12906e-08 0)
(0.297721 7.39311e-08 0)
(0.29772 5.46504e-08 0)
(0.297721 6.24022e-08 0)
(0.29772 4.57892e-08 0)
(0.297721 3.97054e-08 0)
(0.29772 5.43093e-08 0)
(0.297721 -3.12146e-08 0)
(0.29772 1.66316e-07 0)
(0.297721 1.97358e-07 0)
(1.17764 2.16475e-07 0)
(1.17765 3.03945e-07 0)
(1.17765 1.42897e-07 0)
(1.17765 1.00477e-07 0)
(1.17765 6.47925e-08 0)
(1.17765 7.63602e-08 0)
(1.17765 5.63441e-08 0)
(1.17765 7.75797e-08 0)
(1.17765 5.63008e-08 0)
(1.17765 7.57916e-08 0)
(1.17765 5.41686e-08 0)
(1.17765 6.88111e-08 0)
(1.17765 4.88534e-08 0)
(1.17765 5.74786e-08 0)
(1.17765 4.17583e-08 0)
(1.17765 3.57045e-08 0)
(1.17765 5.02141e-08 0)
(1.17765 -2.84187e-08 0)
(1.17765 1.54578e-07 0)
(1.17765 1.74058e-07 0)
(2.18421 1.8015e-07 0)
(2.18421 2.54205e-07 0)
(2.18421 1.16237e-07 0)
(2.18421 8.68236e-08 0)
(2.18421 5.30776e-08 0)
(2.18421 6.87601e-08 0)
(2.18421 4.6664e-08 0)
(2.18422 7.00927e-08 0)
(2.18421 4.71205e-08 0)
(2.18422 6.81671e-08 0)
(2.18421 4.57907e-08 0)
(2.18422 6.1503e-08 0)
(2.18421 4.1803e-08 0)
(2.18422 5.08338e-08 0)
(2.18421 3.64933e-08 0)
(2.18422 3.08627e-08 0)
(2.18421 4.41914e-08 0)
(2.18422 -2.3933e-08 0)
(2.18421 1.34301e-07 0)
(2.18422 1.42582e-07 0)
(3.31743 1.37535e-07 0)
(3.31743 1.95648e-07 0)
(3.31743 8.70089e-08 0)
(3.31743 7.04787e-08 0)
(3.31743 4.06214e-08 0)
(3.31743 5.87503e-08 0)
(3.31743 3.63344e-08 0)
(3.31743 6.01895e-08 0)
(3.31743 3.71403e-08 0)
(3.31743 5.82846e-08 0)
(3.31743 3.64859e-08 0)
(3.31743 5.22612e-08 0)
(3.31743 3.37447e-08 0)
(3.31743 4.27273e-08 0)
(3.31743 3.01289e-08 0)
(3.31743 2.53794e-08 0)
(3.31743 3.65205e-08 0)
(3.31743 -1.82432e-08 0)
(3.31743 1.07648e-07 0)
(3.31743 1.06105e-07 0)
(4.57729 9.33021e-08 0)
(4.57729 1.34441e-07 0)
(4.57729 5.80488e-08 0)
(4.57729 5.28258e-08 0)
(4.57729 2.85238e-08 0)
(4.57729 4.6982e-08 0)
(4.57729 2.62028e-08 0)
(4.57729 4.84751e-08 0)
(4.57729 2.71574e-08 0)
(4.57729 4.6757e-08 0)
(4.57729 2.69859e-08 0)
(4.57729 4.16754e-08 0)
(4.57729 2.52942e-08 0)
(4.57729 3.37111e-08 0)
(4.57729 2.31169e-08 0)
(4.57729 1.96586e-08 0)
(4.57729 2.78121e-08 0)
(4.57729 -1.19566e-08 0)
(4.57729 7.75858e-08 0)
(4.57729 6.88271e-08 0)
(5.96379 5.28928e-08 0)
(5.9638 7.79152e-08 0)
(5.9638 3.28169e-08 0)
(5.9638 3.5618e-08 0)
(5.9638 1.81884e-08 0)
(5.9638 3.45346e-08 0)
(5.9638 1.73935e-08 0)
(5.9638 3.60607e-08 0)
(5.9638 1.82658e-08 0)
(5.9638 3.47433e-08 0)
(5.9638 1.82965e-08 0)
(5.9638 3.08727e-08 0)
(5.9638 1.72933e-08 0)
(5.9638 2.4812e-08 0)
(5.9638 1.60721e-08 0)
(5.9638 1.44087e-08 0)
(5.9638 1.89021e-08 0)
(5.9638 -5.64475e-09 0)
(5.9638 4.7595e-08 0)
(5.9638 3.58319e-08 0)
(7.47695 2.18431e-08 0)
(7.47695 3.3563e-08 0)
(7.47695 1.42855e-08 0)
(7.47696 1.99882e-08 0)
(7.47696 1.0304e-08 0)
(7.47696 2.15762e-08 0)
(7.47696 1.05096e-08 0)
(7.47696 2.29438e-08 0)
(7.47696 1.11597e-08 0)
(7.47696 2.22291e-08 0)
(7.47696 1.11681e-08 0)
(7.47696 1.98259e-08 0)
(7.47696 1.05189e-08 0)
(7.47696 1.59857e-08 0)
(7.47696 9.72077e-09 0)
(7.47696 9.57449e-09 0)
(7.47696 1.07177e-08 0)
(7.47696 -5.19529e-10 0)
(7.47696 2.21868e-08 0)
(7.47696 1.24225e-08 0)
(9.11677 4.38678e-09 0)
(9.11677 7.13649e-09 0)
(9.11677 2.86095e-09 0)
(9.11677 5.46446e-09 0)
(9.11677 2.60231e-09 0)
(9.11677 6.37035e-09 0)
(9.11677 2.74048e-09 0)
(9.11677 6.86728e-09 0)
(9.11677 2.95366e-09 0)
(9.11677 6.67885e-09 0)
(9.11677 2.97131e-09 0)
(9.11677 5.96017e-09 0)
(9.11677 2.81139e-09 0)
(9.11677 4.79383e-09 0)
(9.11677 2.60765e-09 0)
(9.11677 2.88142e-09 0)
(9.11677 2.86474e-09 0)
(9.11677 2.91294e-10 0)
(9.11677 5.265e-09 0)
(9.11677 1.71353e-09 0)
)
;

boundaryField
{
    top
    {
        type            fixedValue;
        value           uniform (10 0 0);
    }
    bottom
    {
        type            fixedValue;
        value           uniform (0 0 0);
    }
    inlet
    {
        type            zeroGradient;
    }
    outlet
    {
        type            zeroGradient;
    }
    frontAndBack
    {
        type            empty;
    }
}


// ************************************************************************* //
