/*--------------------------------*- C++ -*----------------------------------*\
| =========                 |                                                 |
| \\      /  F ield         | OpenFOAM: The Open Source CFD Toolbox           |
|  \\    /   O peration     | Version:  4.1                                   |
|   \\  /    A nd           | Web:      www.OpenFOAM.org                      |
|    \\/     M anipulation  |                                                 |
\*---------------------------------------------------------------------------*/
FoamFile
{
    version     2.0;
    format      ascii;
    class       surfaceScalarField;
    location    "4.2";
    object      phi;
}
// * * * * * * * * * * * * * * * * * * * * * * * * * * * * * * * * * * * * * //

dimensions      [0 3 -1 0 0 0 0];

internalField   nonuniform List<scalar> 
760
(
-1.91641e-05
5.67942e-13
-1.91641e-05
5.91375e-14
-1.91641e-05
9.09094e-13
-1.91641e-05
-3.95621e-13
-1.91641e-05
1.06754e-12
-1.91641e-05
-7.38751e-13
-1.91641e-05
1.13935e-12
-1.91641e-05
-9.78097e-13
-1.91641e-05
1.09998e-12
-1.91641e-05
-1.09315e-12
-1.91641e-05
9.46698e-13
-1.91641e-05
-1.07689e-12
-1.91641e-05
6.97552e-13
-1.91641e-05
-9.38116e-13
-1.91641e-05
3.82087e-13
-1.91641e-05
-7.12693e-13
-1.91641e-05
4.33925e-14
-1.91641e-05
-4.00759e-13
-1.91641e-05
-3.00007e-13
-9.02358e-14
-5.11594e-05
5.03817e-13
-5.11594e-05
-6.55271e-13
-5.11594e-05
1.23554e-13
-5.11594e-05
-2.2525e-12
-5.11594e-05
-4.74518e-13
-5.11594e-05
-3.40792e-12
-5.11594e-05
-8.98467e-13
-5.11594e-05
-4.13224e-12
-5.11594e-05
-1.20924e-12
-5.11594e-05
-4.39422e-12
-5.11594e-05
-1.41248e-12
-5.11594e-05
-4.20602e-12
-5.11594e-05
-1.51265e-12
-5.11594e-05
-3.61429e-12
-5.11594e-05
-1.51366e-12
-5.11594e-05
-2.74029e-12
-5.11594e-05
-1.40276e-12
-5.11594e-05
-1.63879e-12
-5.11594e-05
-1.19313e-12
-3.65657e-13
-7.68219e-05
2.39255e-13
-7.68219e-05
-1.33606e-12
-7.68219e-05
-1.09048e-12
-7.68219e-05
-4.07074e-12
-7.68219e-05
-2.68652e-12
-7.68219e-05
-6.01466e-12
-7.68219e-05
-3.7474e-12
-7.68219e-05
-7.19942e-12
-7.68219e-05
-4.38377e-12
-7.68219e-05
-7.59663e-12
-7.68219e-05
-4.60125e-12
-7.68219e-05
-7.24561e-12
-7.68219e-05
-4.43527e-12
-7.68219e-05
-6.22713e-12
-7.68219e-05
-3.94182e-12
-7.68219e-05
-4.74462e-12
-7.68219e-05
-3.15696e-12
-7.68219e-05
-2.91009e-12
-7.68219e-05
-2.14283e-12
-6.00388e-13
-9.61516e-05
7.05683e-14
-9.61516e-05
-1.74523e-12
-9.61516e-05
-2.08633e-12
-9.61516e-05
-5.51299e-12
-9.61516e-05
-4.62306e-12
-9.61516e-05
-8.1677e-12
-9.61516e-05
-6.28185e-12
-9.61516e-05
-9.77941e-12
-9.61516e-05
-7.23454e-12
-9.61516e-05
-1.03257e-11
-9.61516e-05
-7.48517e-12
-9.61516e-05
-9.8694e-12
-9.61516e-05
-7.09399e-12
-9.61516e-05
-8.51634e-12
-9.61516e-05
-6.16376e-12
-9.61516e-05
-6.53821e-12
-9.61516e-05
-4.77196e-12
-9.61516e-05
-4.09491e-12
-9.61516e-05
-3.0182e-12
-8.18755e-13
-0.000109148
-3.20867e-14
-0.000109148
-1.95403e-12
-0.000109148
-2.88014e-12
-0.000109148
-6.61218e-12
-0.000109148
-6.24598e-12
-0.000109148
-9.86451e-12
-0.000109148
-8.42618e-12
-0.000109148
-1.18424e-11
-0.000109148
-9.65739e-12
-0.000109148
-1.25298e-11
-0.000109148
-9.9441e-12
-0.000109148
-1.20095e-11
-0.000109148
-9.36545e-12
-0.000109148
-1.04054e-11
-0.000109148
-8.06414e-12
-0.000109148
-8.04257e-12
-0.000109148
-6.15343e-12
-0.000109148
-5.11738e-12
-0.000109148
-3.75125e-12
-1.00081e-12
-0.000115813
-1.24202e-13
-0.000115813
-2.07657e-12
-0.000115813
-3.56619e-12
-0.000115813
-7.47625e-12
-0.000115813
-7.64408e-12
-0.000115813
-1.1208e-11
-0.000115813
-1.02629e-11
-0.000115813
-1.34809e-11
-0.000115813
-1.17217e-11
-0.000115813
-1.42841e-11
-0.000115813
-1.20296e-11
-0.000115813
-1.3718e-11
-0.000115813
-1.12807e-11
-0.000115813
-1.19213e-11
-0.000115813
-9.65245e-12
-0.000115813
-9.25911e-12
-0.000115813
-7.29256e-12
-0.000115813
-5.95563e-12
-0.000115813
-4.32005e-12
-1.1493e-12
-0.000116144
-2.41616e-13
-0.000116144
-2.19784e-12
-0.000116144
-4.19684e-12
-0.000116144
-8.16911e-12
-0.000116144
-8.85248e-12
-0.000116144
-1.22495e-11
-0.000116144
-1.18133e-11
-0.000116144
-1.4732e-11
-0.000116144
-1.34354e-11
-0.000116144
-1.56094e-11
-0.000116144
-1.37368e-11
-0.000116144
-1.49992e-11
-0.000116144
-1.28243e-11
-0.000116144
-1.30523e-11
-0.000116144
-1.09052e-11
-0.000116144
-1.01625e-11
-0.000116144
-8.16143e-12
-0.000116144
-6.57536e-12
-0.000116144
-4.70039e-12
-1.25897e-12
-0.000110142
-3.9997e-13
-0.000110142
-2.36734e-12
-0.000110142
-4.79274e-12
-0.000110142
-8.7158e-12
-0.000110142
-9.87228e-12
-0.000110142
-1.30014e-11
-0.000110142
-1.3065e-11
-0.000110142
-1.55956e-11
-0.000110142
-1.47767e-11
-0.000110142
-1.6495e-11
-0.000110142
-1.50374e-11
-0.000110142
-1.58327e-11
-0.000110142
-1.39646e-11
-0.000110142
-1.37713e-11
-0.000110142
-1.17913e-11
-0.000110142
-1.07213e-11
-0.000110142
-8.73166e-12
-0.000110142
-6.94614e-12
-0.000110142
-4.87393e-12
-1.32134e-12
-9.78078e-05
-6.00343e-13
-9.78078e-05
-2.60613e-12
-9.78078e-05
-5.35328e-12
-9.78078e-05
-9.12173e-12
-9.78078e-05
-1.06879e-11
-9.78078e-05
-1.34636e-11
-9.78078e-05
-1.39944e-11
-9.78078e-05
-1.60663e-11
-9.78078e-05
-1.57181e-11
-9.78078e-05
-1.69308e-11
-9.78078e-05
-1.59031e-11
-9.78078e-05
-1.62052e-11
-9.78078e-05
-1.46758e-11
-9.78078e-05
-1.40624e-11
-9.78078e-05
-1.22898e-11
-9.78078e-05
-1.09187e-11
-9.78078e-05
-8.98781e-12
-9.78078e-05
-7.05355e-12
-9.78078e-05
-4.83681e-12
-1.32967e-12
-7.91406e-05
-8.32434e-13
-7.91406e-05
-2.90901e-12
-7.91406e-05
-5.86035e-12
-7.91406e-05
-9.37751e-12
-7.91406e-05
-1.12726e-11
-7.91406e-05
-1.36288e-11
-7.91406e-05
-1.45733e-11
-7.91406e-05
-1.61384e-11
-7.91406e-05
-1.62345e-11
-7.91406e-05
-1.69132e-11
-7.91406e-05
-1.63135e-11
-7.91406e-05
-1.61152e-11
-7.91406e-05
-1.49439e-11
-7.91406e-05
-1.39253e-11
-7.91406e-05
-1.23949e-11
-7.91406e-05
-1.07553e-11
-7.91406e-05
-8.93039e-12
-7.91406e-05
-6.89964e-12
-7.91406e-05
-4.60103e-12
-1.27997e-12
-5.41406e-05
-1.07725e-12
-5.41406e-05
-3.24852e-12
-5.41406e-05
-6.28113e-12
-5.41406e-05
-9.46422e-12
-5.41406e-05
-1.15936e-11
-5.41406e-05
-1.34881e-11
-5.41406e-05
-1.4775e-11
-5.41406e-05
-1.58121e-11
-5.41406e-05
-1.63081e-11
-5.41406e-05
-1.64506e-11
-5.41406e-05
-1.62606e-11
-5.41406e-05
-1.55769e-11
-5.41406e-05
-1.47713e-11
-5.41406e-05
-1.33777e-11
-5.41406e-05
-1.2119e-11
-5.41406e-05
-1.02507e-11
-5.41406e-05
-8.5784e-12
-5.41406e-05
-6.50269e-12
-5.41406e-05
-4.19545e-12
-1.17222e-12
-2.28078e-05
-1.30947e-12
-2.28078e-05
-3.57933e-12
-2.28078e-05
-6.56987e-12
-2.28078e-05
-9.35685e-12
-2.28078e-05
-1.16139e-11
-2.28078e-05
-1.30341e-11
-2.28078e-05
-1.45764e-11
-2.28078e-05
-1.50949e-11
-2.28078e-05
-1.59308e-11
-2.28078e-05
-1.55637e-11
-2.28078e-05
-1.57511e-11
-2.28078e-05
-1.46211e-11
-2.28078e-05
-1.41777e-11
-2.28078e-05
-1.24555e-11
-2.28078e-05
-1.14929e-11
-2.28078e-05
-9.44273e-12
-2.28078e-05
-7.96963e-12
-2.28078e-05
-5.89495e-12
-2.28078e-05
-3.66466e-12
-1.01124e-12
1.48578e-05
-1.49976e-12
1.48578e-05
-3.84335e-12
1.48578e-05
-6.66981e-12
1.48578e-05
-9.02645e-12
1.48578e-05
-1.12947e-11
1.48578e-05
-1.22605e-11
1.48578e-05
-1.39587e-11
1.48578e-05
-1.40012e-11
1.48578e-05
-1.5104e-11
1.48578e-05
-1.42839e-11
1.48578e-05
-1.48043e-11
1.48578e-05
-1.32912e-11
1.48578e-05
-1.31984e-11
1.48578e-05
-1.12082e-11
1.48578e-05
-1.05631e-11
1.48578e-05
-8.3826e-12
1.48578e-05
-7.1583e-12
1.48578e-05
-5.11923e-12
1.48578e-05
-3.06526e-12
-8.0745e-13
5.88562e-05
-1.61685e-12
5.88562e-05
-3.97515e-12
5.88562e-05
-6.51666e-12
5.88563e-05
-8.44096e-12
5.88562e-05
-1.0597e-11
5.88563e-05
-1.11613e-11
5.88562e-05
-1.29069e-11
5.88563e-05
-1.25483e-11
5.88562e-05
-1.38351e-11
5.88563e-05
-1.26475e-11
5.88562e-05
-1.3448e-11
5.88563e-05
-1.16375e-11
5.88562e-05
-1.18776e-11
5.88563e-05
-9.69347e-12
5.88562e-05
-9.38546e-12
5.88563e-05
-7.12894e-12
5.88562e-05
-6.20853e-12
5.88563e-05
-4.22454e-12
5.88562e-05
-2.45867e-12
-5.76594e-13
0.000109187
-1.63092e-12
0.000109187
-3.91011e-12
0.000109187
-6.0491e-12
0.000109187
-7.56869e-12
0.000109187
-9.49008e-12
0.000109188
-9.73079e-12
0.000109187
-1.14145e-11
0.000109188
-1.07541e-11
0.000109187
-1.2139e-11
0.000109188
-1.06919e-11
0.000109187
-1.17156e-11
0.000109188
-9.71053e-12
0.000109187
-1.02634e-11
0.000109188
-7.96941e-12
0.000109187
-8.01665e-12
0.000109188
-5.7406e-12
0.000109187
-5.18417e-12
0.000109188
-3.2619e-12
0.000109187
-1.8996e-12
-3.38552e-13
0.000165852
-1.51267e-12
0.000165852
-3.58561e-12
0.000165852
-5.21409e-12
0.000165852
-6.37028e-12
0.000165852
-7.94474e-12
0.000165852
-7.94811e-12
0.000165852
-9.46623e-12
0.000165852
-8.61571e-12
0.000165852
-1.00123e-11
0.000165852
-8.42948e-12
0.000165852
-9.61523e-12
0.000165852
-7.5358e-12
0.000165852
-8.37375e-12
0.000165852
-6.07078e-12
0.000165852
-6.48257e-12
0.000165852
-4.25607e-12
0.000165852
-4.11896e-12
0.000165852
-2.27152e-12
0.000165852
-1.41308e-12
-1.10244e-13
0.000228848
-1.23805e-12
0.000228848
-2.94901e-12
0.000228848
-3.97424e-12
0.000228848
-4.78881e-12
0.000228848
-5.92955e-12
0.000228848
-5.75526e-12
0.000228848
-7.02547e-12
0.000228848
-6.0778e-12
0.000228848
-7.4134e-12
0.000228848
-5.81191e-12
0.000228848
-7.10439e-12
0.000228848
-5.07519e-12
0.000228848
-6.16906e-12
0.000228848
-3.97282e-12
0.000228848
-4.74987e-12
0.000228848
-2.66365e-12
0.000228848
-2.98797e-12
0.000228848
-1.26237e-12
0.000228848
-9.72751e-13
1.04407e-13
0.000298178
-8.59341e-13
0.000298178
-2.05721e-12
0.000298178
-2.45141e-12
0.000298178
-2.91965e-12
0.000298178
-3.59138e-12
0.000298178
-3.27366e-12
0.000298178
-4.23472e-12
0.000298178
-3.274e-12
0.000298178
-4.46315e-12
0.000298178
-2.97136e-12
0.000298178
-4.2734e-12
0.000298178
-2.44815e-12
0.000298178
-3.70303e-12
0.000298178
-1.77288e-12
0.000298178
-2.83565e-12
0.000298178
-1.03249e-12
0.000298178
-1.76763e-12
0.000298178
-2.81707e-13
0.000298178
-5.21969e-13
2.99775e-13
0.000373841
-3.79401e-13
0.000373841
-9.02619e-13
0.000373841
-6.97281e-13
0.000373841
-7.37531e-13
0.000373841
-9.49852e-13
0.000373841
-4.51397e-13
0.000373841
-1.06936e-12
0.000373841
-1.3205e-13
0.000373841
-1.09777e-12
0.000373841
1.76188e-13
0.000373841
-1.0269e-12
0.000373841
4.31921e-13
0.000373841
-8.59238e-13
0.000373841
6.10751e-13
0.000373841
-6.14734e-13
0.000373841
7.03922e-13
0.000373841
-3.26793e-13
0.000373841
7.13854e-13
0.000373841
5.16376e-14
4.99164e-13
0.000455836
0.000455836
0.000455836
0.000455836
0.000455836
0.000455836
0.000455836
0.000455836
0.000455836
0.000455836
0.000455836
0.000455836
0.000455836
0.000455836
0.000455836
0.000455836
0.000455836
0.000455836
0.000455836
)
;

boundaryField
{
    top
    {
        type            calculated;
        value           uniform 0;
    }
    bottom
    {
        type            calculated;
        value           uniform 0;
    }
    inlet
    {
        type            calculated;
        value           nonuniform List<scalar> 
20
(
1.91641e-05
5.11594e-05
7.68219e-05
9.61516e-05
0.000109148
0.000115812
0.000116144
0.000110142
9.78078e-05
7.91406e-05
5.41406e-05
2.28078e-05
-1.48578e-05
-5.88562e-05
-0.000109187
-0.000165852
-0.000228848
-0.000298178
-0.000373841
-0.000455836
)
;
    }
    outlet
    {
        type            calculated;
        value           nonuniform List<scalar> 
20
(
-1.91641e-05
-5.11594e-05
-7.68219e-05
-9.61516e-05
-0.000109148
-0.000115813
-0.000116144
-0.000110142
-9.78078e-05
-7.91406e-05
-5.41406e-05
-2.28078e-05
1.48578e-05
5.88562e-05
0.000109187
0.000165852
0.000228848
0.000298178
0.000373841
0.000455836
)
;
    }
    frontAndBack
    {
        type            empty;
        value           nonuniform 0();
    }
}


// ************************************************************************* //
