/*--------------------------------*- C++ -*----------------------------------*\
| =========                 |                                                 |
| \\      /  F ield         | OpenFOAM: The Open Source CFD Toolbox           |
|  \\    /   O peration     | Version:  4.1                                   |
|   \\  /    A nd           | Web:      www.OpenFOAM.org                      |
|    \\/     M anipulation  |                                                 |
\*---------------------------------------------------------------------------*/
FoamFile
{
    version     2.0;
    format      ascii;
    class       volVectorField;
    location    "4.2";
    object      U;
}
// * * * * * * * * * * * * * * * * * * * * * * * * * * * * * * * * * * * * * //

dimensions      [0 1 -1 0 0 0 0];

internalField   nonuniform List<vector> 
400
(
(-0.383281 5.20763e-11 0)
(-0.383281 -2.45569e-10 0)
(-0.383281 -2.48961e-10 0)
(-0.383281 -6.3061e-10 0)
(-0.383281 -5.0492e-10 0)
(-0.383281 -9.23547e-10 0)
(-0.383281 -6.82815e-10 0)
(-0.383281 -1.10491e-09 0)
(-0.383281 -7.85339e-10 0)
(-0.383281 -1.16995e-09 0)
(-0.383281 -8.11779e-10 0)
(-0.383281 -1.11943e-09 0)
(-0.383281 -7.69535e-10 0)
(-0.383281 -9.69319e-10 0)
(-0.383281 -6.68415e-10 0)
(-0.383281 -7.44846e-10 0)
(-0.383281 -5.22472e-10 0)
(-0.383281 -4.65826e-10 0)
(-0.383281 -3.4387e-10 0)
(-0.383281 -1.48954e-10 0)
(-1.02319 6.37832e-10 0)
(-1.02319 -2.15576e-10 0)
(-1.02319 9.9163e-10 0)
(-1.02319 -1.11555e-09 0)
(-1.02319 1.06321e-09 0)
(-1.02319 -1.75419e-09 0)
(-1.02319 1.07567e-09 0)
(-1.02319 -2.16637e-09 0)
(-1.02319 9.85817e-10 0)
(-1.02319 -2.32147e-09 0)
(-1.02319 7.85826e-10 0)
(-1.02319 -2.22134e-09 0)
(-1.02319 4.94723e-10 0)
(-1.02319 -1.88817e-09 0)
(-1.02319 1.43887e-10 0)
(-1.02319 -1.39795e-09 0)
(-1.02319 -2.12573e-10 0)
(-1.02319 -7.6373e-10 0)
(-1.02319 -5.55689e-10 0)
(-1.02319 -1.04885e-10 0)
(-1.53644 2.04264e-10 0)
(-1.53644 -1.25012e-09 0)
(-1.53644 -1.00391e-09 0)
(-1.53644 -3.60018e-09 0)
(-1.53644 -2.37422e-09 0)
(-1.53644 -5.29016e-09 0)
(-1.53644 -3.29793e-09 0)
(-1.53644 -6.32241e-09 0)
(-1.53644 -3.85031e-09 0)
(-1.53644 -6.66766e-09 0)
(-1.53644 -4.03476e-09 0)
(-1.53644 -6.35515e-09 0)
(-1.53644 -3.88354e-09 0)
(-1.53644 -5.46034e-09 0)
(-1.53644 -3.44453e-09 0)
(-1.53644 -4.15587e-09 0)
(-1.53644 -2.75724e-09 0)
(-1.53644 -2.54388e-09 0)
(-1.53644 -1.87498e-09 0)
(-1.53644 -6.14309e-10 0)
(-1.92303 1.91781e-10 0)
(-1.92303 -1.49102e-09 0)
(-1.92303 -1.462e-09 0)
(-1.92303 -4.65722e-09 0)
(-1.92303 -3.45007e-09 0)
(-1.92303 -6.89538e-09 0)
(-1.92303 -4.75771e-09 0)
(-1.92303 -8.25558e-09 0)
(-1.92303 -5.52813e-09 0)
(-1.92303 -8.71292e-09 0)
(-1.92303 -5.7656e-09 0)
(-1.92303 -8.31763e-09 0)
(-1.92303 -5.51554e-09 0)
(-1.92303 -7.15982e-09 0)
(-1.92303 -4.85234e-09 0)
(-1.92303 -5.47356e-09 0)
(-1.92303 -3.82644e-09 0)
(-1.92303 -3.38902e-09 0)
(-1.92303 -2.51405e-09 0)
(-1.92303 -6.6105e-10 0)
(-2.18297 4.21919e-11 0)
(-2.18297 -1.82598e-09 0)
(-2.18297 -2.44599e-09 0)
(-2.18297 -6.01714e-09 0)
(-2.18297 -5.38591e-09 0)
(-2.18297 -8.96103e-09 0)
(-2.18297 -7.29846e-09 0)
(-2.18297 -1.07512e-08 0)
(-2.18297 -8.38975e-09 0)
(-2.18297 -1.13689e-08 0)
(-2.18297 -8.66257e-09 0)
(-2.18297 -1.08865e-08 0)
(-2.18297 -8.18645e-09 0)
(-2.18297 -9.41762e-09 0)
(-2.18297 -7.08286e-09 0)
(-2.18297 -7.25966e-09 0)
(-2.18297 -5.44528e-09 0)
(-2.18297 -4.59029e-09 0)
(-2.18297 -3.38229e-09 0)
(-2.18297 -9.01754e-10 0)
(-2.31625 -5.07716e-11 0)
(-2.31625 -1.98201e-09 0)
(-2.31625 -3.18322e-09 0)
(-2.31625 -7.00236e-09 0)
(-2.31625 -6.89971e-09 0)
(-2.31625 -1.04934e-08 0)
(-2.31625 -9.29629e-09 0)
(-2.31625 -1.26203e-08 0)
(-2.31625 -1.06434e-08 0)
(-2.31625 -1.33703e-08 0)
(-2.31625 -1.09466e-08 0)
(-2.31625 -1.28346e-08 0)
(-2.31625 -1.02922e-08 0)
(-2.31625 -1.11429e-08 0)
(-2.31625 -8.83924e-09 0)
(-2.31625 -8.64005e-09 0)
(-2.31625 -6.71574e-09 0)
(-2.31625 -5.53605e-09 0)
(-2.31625 -4.04066e-09 0)
(-2.31625 -1.06615e-09 0)
(-2.32288 -1.51185e-10 0)
(-2.32288 -2.08808e-09 0)
(-2.32288 -3.83552e-09 0)
(-2.32288 -7.76733e-09 0)
(-2.32288 -8.19764e-09 0)
(-2.32288 -1.16728e-08 0)
(-2.32288 -1.09851e-08 0)
(-2.32288 -1.40532e-08 0)
(-2.32288 -1.25281e-08 0)
(-2.32288 -1.49005e-08 0)
(-2.32288 -1.28393e-08 0)
(-2.32288 -1.43228e-08 0)
(-2.32288 -1.20188e-08 0)
(-2.32288 -1.2463e-08 0)
(-2.32288 -1.02579e-08 0)
(-2.32288 -9.70014e-09 0)
(-2.32288 -7.71875e-09 0)
(-2.32288 -6.26777e-09 0)
(-2.32288 -4.51438e-09 0)
(-2.32288 -1.19235e-09 0)
(-2.20284 -2.87918e-10 0)
(-2.20284 -2.22913e-09 0)
(-2.20284 -4.44855e-09 0)
(-2.20284 -8.39179e-09 0)
(-2.20284 -9.31528e-09 0)
(-2.20284 -1.25788e-08 0)
(-2.20284 -1.2392e-08 0)
(-2.20284 -1.51233e-08 0)
(-2.20284 -1.40627e-08 0)
(-2.20284 -1.60205e-08 0)
(-2.20284 -1.43509e-08 0)
(-2.20284 -1.5395e-08 0)
(-2.20284 -1.33682e-08 0)
(-2.20284 -1.3402e-08 0)
(-2.20284 -1.1334e-08 0)
(-2.20284 -1.04431e-08 0)
(-2.20284 -8.44371e-09 0)
(-2.20284 -6.7712e-09 0)
(-2.20284 -4.79454e-09 0)
(-2.20284 -1.2798e-09 0)
(-1.95616 -4.67199e-10 0)
(-1.95616 -2.43055e-09 0)
(-1.95616 -5.02612e-09 0)
(-1.95616 -8.86816e-09 0)
(-1.95616 -1.02335e-08 0)
(-1.95616 -1.3186e-08 0)
(-1.95616 -1.34833e-08 0)
(-1.95616 -1.5791e-08 0)
(-1.95616 -1.52043e-08 0)
(-1.95616 -1.6682e-08 0)
(-1.95616 -1.54341e-08 0)
(-1.95616 -1.5999e-08 0)
(-1.95616 -1.42937e-08 0)
(-1.95616 -1.39081e-08 0)
(-1.95616 -1.20257e-08 0)
(-1.95616 -1.08224e-08 0)
(-1.95616 -8.85621e-09 0)
(-1.95616 -7.01084e-09 0)
(-1.95616 -4.86125e-09 0)
(-1.95616 -1.31563e-09 0)
(-1.58281 -6.85183e-10 0)
(-1.58281 -2.70364e-09 0)
(-1.58281 -5.56197e-09 0)
(-1.58281 -9.20161e-09 0)
(-1.58281 -1.09363e-08 0)
(-1.58281 -1.3501e-08 0)
(-1.58281 -1.42392e-08 0)
(-1.58281 -1.60628e-08 0)
(-1.58281 -1.59339e-08 0)
(-1.58281 -1.68905e-08 0)
(-1.58281 -1.60717e-08 0)
(-1.58281 -1.61389e-08 0)
(-1.58281 -1.47819e-08 0)
(-1.58281 -1.39833e-08 0)
(-1.58281 -1.23251e-08 0)
(-1.58281 -1.08373e-08 0)
(-1.58281 -8.95284e-09 0)
(-1.58281 -6.9853e-09 0)
(-1.58281 -4.72103e-09 0)
(-1.58281 -1.29583e-09 0)
(-1.08281 -9.2715e-10 0)
(-1.08281 -3.03185e-09 0)
(-1.08281 -6.03157e-09 0)
(-1.08281 -9.37806e-09 0)
(-1.08281 -1.13947e-08 0)
(-1.08281 -1.35163e-08 0)
(-1.08281 -1.46334e-08 0)
(-1.08281 -1.59369e-08 0)
(-1.08281 -1.62308e-08 0)
(-1.08281 -1.66497e-08 0)
(-1.08281 -1.62505e-08 0)
(-1.08281 -1.58225e-08 0)
(-1.08281 -1.48278e-08 0)
(-1.08281 -1.36376e-08 0)
(-1.08281 -1.22361e-08 0)
(-1.08281 -1.04992e-08 0)
(-1.08281 -8.74362e-09 0)
(-1.08281 -6.70587e-09 0)
(-1.08281 -4.39439e-09 0)
(-1.08281 -1.21817e-09 0)
(-0.456156 -1.1708e-09 0)
(-0.456156 -3.37802e-09 0)
(-0.456156 -6.39591e-09 0)
(-0.456156 -9.37539e-09 0)
(-0.456156 -1.15739e-08 0)
(-0.456156 -1.32241e-08 0)
(-0.456156 -1.46412e-08 0)
(-0.456156 -1.54176e-08 0)
(-0.456156 -1.60824e-08 0)
(-0.456156 -1.5975e-08 0)
(-0.456156 -1.59699e-08 0)
(-0.456156 -1.50732e-08 0)
(-0.456156 -1.44426e-08 0)
(-0.456156 -1.28988e-08 0)
(-0.456156 -1.17806e-08 0)
(-0.456156 -9.83784e-09 0)
(-0.456156 -8.25693e-09 0)
(-0.456156 -6.19875e-09 0)
(-0.456156 -3.91833e-09 0)
(-0.456156 -1.08461e-09 0)
(0.297156 -1.38827e-09 0)
(0.297156 -3.68905e-09 0)
(0.297156 -6.60321e-09 0)
(0.297156 -9.1657e-09 0)
(0.297156 -1.1435e-08 0)
(0.297156 -1.26167e-08 0)
(0.297156 -1.42405e-08 0)
(0.297156 -1.45154e-08 0)
(0.297156 -1.54846e-08 0)
(0.297156 -1.48918e-08 0)
(0.297156 -1.52425e-08 0)
(0.297156 -1.39279e-08 0)
(0.297156 -1.36535e-08 0)
(0.297156 -1.18095e-08 0)
(0.297156 -1.09971e-08 0)
(0.297156 -8.8978e-09 0)
(0.297156 -7.53876e-09 0)
(0.297156 -5.50173e-09 0)
(0.297156 -3.34402e-09 0)
(0.297156 -9.02112e-10 0)
(1.17712 -1.54674e-09 0)
(1.17712 -3.89768e-09 0)
(1.17712 -6.58593e-09 0)
(1.17712 -8.71158e-09 0)
(1.17712 -1.09287e-08 0)
(1.17712 -1.16795e-08 0)
(1.17713 -1.34023e-08 0)
(1.17712 -1.32373e-08 0)
(1.17713 -1.44286e-08 0)
(1.17712 -1.34258e-08 0)
(1.17713 -1.40792e-08 0)
(1.17712 -1.24261e-08 0)
(1.17713 -1.24894e-08 0)
(1.17712 -1.04176e-08 0)
(1.17713 -9.92848e-09 0)
(1.17712 -7.73022e-09 0)
(1.17713 -6.64295e-09 0)
(1.17712 -4.65837e-09 0)
(1.17712 -2.72912e-09 0)
(1.17712 -6.82397e-10 0)
(2.18375 -1.62349e-09 0)
(2.18375 -3.95105e-09 0)
(2.18375 -6.29736e-09 0)
(2.18375 -8.00178e-09 0)
(2.18375 -1.00476e-08 0)
(2.18375 -1.04329e-08 0)
(2.18375 -1.21514e-08 0)
(2.18375 -1.16294e-08 0)
(2.18375 -1.29657e-08 0)
(2.18375 -1.16419e-08 0)
(2.18375 -1.25513e-08 0)
(2.18375 -1.06437e-08 0)
(2.18375 -1.10338e-08 0)
(2.18375 -8.80176e-09 0)
(2.18375 -8.66189e-09 0)
(2.18375 -6.40891e-09 0)
(2.18375 -5.65607e-09 0)
(2.18375 -3.72639e-09 0)
(2.18375 -2.14393e-09 0)
(2.18375 -4.45537e-10 0)
(3.31703 -1.57877e-09 0)
(3.31703 -3.76363e-09 0)
(3.31703 -5.6489e-09 0)
(3.31703 -6.96902e-09 0)
(3.31703 -8.71338e-09 0)
(3.31703 -8.82438e-09 0)
(3.31703 -1.04171e-08 0)
(3.31703 -9.65761e-09 0)
(3.31703 -1.10368e-08 0)
(3.31703 -9.52478e-09 0)
(3.31703 -1.06158e-08 0)
(3.31703 -8.58311e-09 0)
(3.31703 -9.263e-09 0)
(3.31703 -6.97986e-09 0)
(3.31703 -7.19354e-09 0)
(3.31703 -4.96248e-09 0)
(3.31703 -4.59694e-09 0)
(3.31703 -2.74019e-09 0)
(3.31703 -1.61533e-09 0)
(3.31703 -2.0702e-10 0)
(4.57697 -1.31485e-09 0)
(4.57697 -3.20361e-09 0)
(4.57697 -4.47374e-09 0)
(4.57697 -5.40885e-09 0)
(4.57697 -6.73288e-09 0)
(4.57697 -6.5972e-09 0)
(4.57697 -7.98563e-09 0)
(4.57697 -7.03789e-09 0)
(4.57697 -8.42769e-09 0)
(4.57697 -6.79002e-09 0)
(4.57697 -8.07689e-09 0)
(4.57697 -5.98504e-09 0)
(4.57697 -7.01515e-09 0)
(4.57697 -4.73961e-09 0)
(4.57697 -5.40557e-09 0)
(4.57697 -3.23884e-09 0)
(4.57697 -3.40108e-09 0)
(4.57697 -1.62067e-09 0)
(4.57697 -1.11169e-09 0)
(4.57697 4.70282e-11 0)
(5.96356 -1.26618e-09 0)
(5.96356 -2.79311e-09 0)
(5.96356 -3.65582e-09 0)
(5.96356 -4.46137e-09 0)
(5.96356 -5.38625e-09 0)
(5.96356 -5.3597e-09 0)
(5.96356 -6.37719e-09 0)
(5.96356 -5.66584e-09 0)
(5.96356 -6.72662e-09 0)
(5.96356 -5.42642e-09 0)
(5.96356 -6.44617e-09 0)
(5.96356 -4.7439e-09 0)
(5.96356 -5.59878e-09 0)
(5.96356 -3.71741e-09 0)
(5.96356 -4.31473e-09 0)
(5.96356 -2.49156e-09 0)
(5.96356 -2.72456e-09 0)
(5.96356 -1.17234e-09 0)
(5.96356 -9.26931e-10 0)
(5.96356 9.37304e-11 0)
(7.47681 -4.20831e-10 0)
(7.47681 -1.28353e-09 0)
(7.47681 -1.16058e-09 0)
(7.47681 -1.30562e-09 0)
(7.47681 -1.71922e-09 0)
(7.47681 -1.08349e-09 0)
(7.47681 -2.03555e-09 0)
(7.47681 -7.57205e-10 0)
(7.47681 -2.15643e-09 0)
(7.47681 -3.83343e-10 0)
(7.47681 -2.07339e-09 0)
(7.47681 -2.33274e-11 0)
(7.47681 -1.79751e-09 0)
(7.47681 2.85443e-10 0)
(7.47681 -1.36244e-09 0)
(7.47681 5.15241e-10 0)
(7.47681 -8.3098e-10 0)
(7.47681 6.68251e-10 0)
(7.47681 -1.44527e-10 0)
(7.47681 4.93476e-10 0)
(9.11672 -3.49348e-10 0)
(9.11672 -6.39785e-10 0)
(9.11672 -7.3167e-10 0)
(9.11672 -9.32401e-10 0)
(9.11672 -1.03856e-09 0)
(9.11672 -1.08763e-09 0)
(9.11672 -1.22594e-09 0)
(9.11672 -1.12772e-09 0)
(9.11672 -1.28205e-09 0)
(9.11672 -1.06246e-09 0)
(9.11672 -1.22126e-09 0)
(9.11672 -9.10567e-10 0)
(9.11672 -1.05376e-09 0)
(9.11672 -6.94483e-10 0)
(9.11672 -8.07076e-10 0)
(9.11672 -4.40799e-10 0)
(9.11672 -5.05549e-10 0)
(9.11672 -1.73561e-10 0)
(9.11672 -1.72646e-10 0)
(9.11672 8.64932e-11 0)
)
;

boundaryField
{
    top
    {
        type            fixedValue;
        value           uniform (10 0 0);
    }
    bottom
    {
        type            fixedValue;
        value           uniform (0 0 0);
    }
    inlet
    {
        type            zeroGradient;
    }
    outlet
    {
        type            zeroGradient;
    }
    frontAndBack
    {
        type            empty;
    }
}


// ************************************************************************* //
