/*--------------------------------*- C++ -*----------------------------------*\
| =========                 |                                                 |
| \\      /  F ield         | OpenFOAM: The Open Source CFD Toolbox           |
|  \\    /   O peration     | Version:  4.1                                   |
|   \\  /    A nd           | Web:      www.OpenFOAM.org                      |
|    \\/     M anipulation  |                                                 |
\*---------------------------------------------------------------------------*/
FoamFile
{
    version     2.0;
    format      ascii;
    class       surfaceScalarField;
    location    "4.8";
    object      phi;
}
// * * * * * * * * * * * * * * * * * * * * * * * * * * * * * * * * * * * * * //

dimensions      [0 3 -1 0 0 0 0];

internalField   nonuniform List<scalar> 
760
(
-1.91641e-05
1.45963e-12
-1.91641e-05
-4.81645e-13
-1.91641e-05
5.4112e-12
-1.91641e-05
-3.41075e-12
-1.91641e-05
8.22882e-12
-1.91641e-05
-4.91137e-12
-1.91641e-05
9.62051e-12
-1.91641e-05
-5.74688e-12
-1.91641e-05
1.00642e-11
-1.91641e-05
-5.92871e-12
-1.91641e-05
9.41134e-12
-1.91641e-05
-5.34708e-12
-1.91641e-05
7.73232e-12
-1.91641e-05
-4.09543e-12
-1.91641e-05
5.29915e-12
-1.91641e-05
-2.40695e-12
-1.91641e-05
2.3098e-12
-1.91641e-05
5.35593e-16
-1.91641e-05
-1.1973e-12
1.32611e-12
-5.11594e-05
1.55466e-12
-5.11594e-05
-5.16631e-12
-5.11594e-05
6.27791e-12
-5.11594e-05
-1.3677e-11
-5.11594e-05
8.85295e-12
-5.11594e-05
-1.80407e-11
-5.11594e-05
9.50543e-12
-5.11594e-05
-2.01625e-11
-5.11594e-05
9.26955e-12
-5.11594e-05
-2.01046e-11
-5.11594e-05
7.85819e-12
-5.11594e-05
-1.78043e-11
-5.11594e-05
5.37743e-12
-5.11594e-05
-1.3662e-11
-5.11594e-05
2.23781e-12
-5.11594e-05
-8.31485e-12
-5.11594e-05
-1.4173e-12
-5.11594e-05
-1.66821e-12
-5.11594e-05
-4.88234e-12
2.15593e-12
-7.68219e-05
1.3954e-12
-7.68219e-05
-1.05609e-11
-7.68219e-05
5.99264e-12
-7.68219e-05
-2.43263e-11
-7.68219e-05
7.36334e-12
-7.68219e-05
-3.11253e-11
-7.68219e-05
6.64079e-12
-7.68219e-05
-3.41344e-11
-7.68219e-05
5.36006e-12
-7.68219e-05
-3.34871e-11
-7.68219e-05
3.13537e-12
-7.68219e-05
-2.92434e-11
-7.68219e-05
1.22948e-13
-7.68219e-05
-2.21495e-11
-7.68219e-05
-3.16734e-12
-7.68219e-05
-1.32191e-11
-7.68219e-05
-6.71932e-12
-7.68219e-05
-2.71868e-12
-7.68219e-05
-8.8255e-12
3.04826e-12
-9.61516e-05
1.56718e-12
-9.61516e-05
-1.48831e-11
-9.61516e-05
5.76226e-12
-9.61516e-05
-3.27922e-11
-9.61516e-05
5.60919e-12
-9.61516e-05
-4.12947e-11
-9.61516e-05
3.33388e-12
-9.61516e-05
-4.47894e-11
-9.61516e-05
8.74206e-13
-9.61516e-05
-4.34899e-11
-9.61516e-05
-2.20297e-12
-9.61516e-05
-3.75928e-11
-9.61516e-05
-5.67343e-12
-9.61516e-05
-2.8141e-11
-9.61516e-05
-8.94266e-12
-9.61516e-05
-1.64316e-11
-9.61516e-05
-1.21439e-11
-9.61516e-05
-3.09082e-12
-9.61516e-05
-1.25065e-11
3.81781e-12
-0.000109148
2.03432e-12
-0.000109148
-1.81767e-11
-0.000109148
5.81051e-12
-0.000109148
-3.90113e-11
-0.000109148
4.05947e-12
-0.000109148
-4.84175e-11
-0.000109148
2.30463e-13
-0.000109148
-5.19606e-11
-0.000109148
-3.43551e-12
-0.000109148
-4.99301e-11
-0.000109148
-7.37713e-12
-0.000109148
-4.26639e-11
-0.000109148
-1.12829e-11
-0.000109148
-3.14552e-11
-0.000109148
-1.44777e-11
-0.000109148
-1.77877e-11
-0.000109148
-1.7253e-11
-0.000109148
-2.62223e-12
-0.000109148
-1.57249e-11
4.55637e-12
-0.000115812
2.6304e-12
-0.000115812
-2.06503e-11
-0.000115812
5.77377e-12
-0.000115812
-4.32845e-11
-0.000115813
2.24938e-12
-0.000115812
-5.29166e-11
-0.000115813
-3.17073e-12
-0.000115812
-5.61509e-11
-0.000115813
-8.05718e-12
-0.000115812
-5.33429e-11
-0.000115813
-1.28156e-11
-0.000115812
-4.49778e-11
-0.000115813
-1.70383e-11
-0.000115812
-3.25557e-11
-0.000115813
-1.99903e-11
-0.000115812
-1.76563e-11
-0.000115813
-2.21378e-11
-0.000115813
-1.56744e-12
-0.000115813
-1.84779e-11
5.15963e-12
-0.000116144
3.23615e-12
-0.000116144
-2.24916e-11
-0.000116144
5.47323e-12
-0.000116144
-4.59147e-11
-0.000116144
2.37531e-14
-0.000116144
-5.52246e-11
-0.000116144
-6.98656e-12
-0.000116144
-5.78756e-11
-0.000116144
-1.30598e-11
-0.000116144
-5.42759e-11
-0.000116144
-1.85365e-11
-0.000116144
-4.50614e-11
-0.000116144
-2.29129e-11
-0.000116144
-3.19003e-11
-0.000116144
-2.54228e-11
-0.000116144
-1.63866e-11
-0.000116144
-2.67193e-11
-0.000116144
-1.4043e-13
-0.000116144
-2.07175e-11
5.57922e-12
-0.000110142
3.78627e-12
-0.000110142
-2.38117e-11
-0.000110142
4.84406e-12
-0.000110142
-4.71193e-11
-0.000110142
-2.60328e-12
-0.000110142
-5.56841e-11
-0.000110142
-1.11365e-11
-0.000110142
-5.75612e-11
-0.000110142
-1.83065e-11
-0.000110142
-5.31974e-11
-0.000110142
-2.43632e-11
-0.000110142
-4.33781e-11
-0.000110142
-2.87142e-11
-0.000110142
-2.98985e-11
-0.000110142
-3.05961e-11
-0.000110142
-1.42945e-11
-0.000110142
-3.08467e-11
-0.000110142
1.4628e-12
-0.000110142
-2.2383e-11
5.78005e-12
-9.78078e-05
4.25686e-12
-9.78078e-05
-2.46506e-11
-9.78078e-05
3.91452e-12
-9.78078e-05
-4.70401e-11
-9.78078e-05
-5.4828e-12
-9.78078e-05
-5.45507e-11
-9.78078e-05
-1.53875e-11
-9.78078e-05
-5.55431e-11
-9.78078e-05
-2.35048e-11
-9.78078e-05
-5.04896e-11
-9.78078e-05
-2.99755e-11
-9.78078e-05
-4.03152e-11
-9.78078e-05
-3.41317e-11
-9.78078e-05
-2.68981e-11
-9.78078e-05
-3.52469e-11
-9.78078e-05
-1.16539e-11
-9.78078e-05
-3.43231e-11
-9.78078e-05
3.07267e-12
-9.78078e-05
-2.34148e-11
5.74635e-12
-7.91406e-05
4.64468e-12
-7.91406e-05
-2.49998e-11
-7.91406e-05
2.76549e-12
-7.91406e-05
-4.57796e-11
-7.91406e-05
-8.39536e-12
-7.91406e-05
-5.20349e-11
-7.91406e-05
-1.9434e-11
-7.91406e-05
-5.21079e-11
-7.91406e-05
-2.82938e-11
-7.91406e-05
-4.64867e-11
-7.91406e-05
-3.49954e-11
-7.91406e-05
-3.62159e-11
-7.91406e-05
-3.88123e-11
-7.91406e-05
-2.32093e-11
-7.91406e-05
-3.90883e-11
-7.91406e-05
-8.71176e-12
-7.91406e-05
-3.69467e-11
-7.91406e-05
4.54242e-12
-7.91406e-05
-2.37728e-11
5.48011e-12
-5.41406e-05
4.94875e-12
-5.41406e-05
-2.48293e-11
-5.41406e-05
1.49647e-12
-5.41406e-05
-4.34403e-11
-5.41406e-05
-1.11058e-11
-5.41406e-05
-4.83443e-11
-5.41406e-05
-2.29647e-11
-5.41406e-05
-4.75365e-11
-5.41406e-05
-3.23158e-11
-5.41406e-05
-4.15139e-11
-5.41406e-05
-3.90566e-11
-5.41406e-05
-3.14116e-11
-5.41406e-05
-4.24228e-11
-5.41406e-05
-1.91284e-11
-5.41406e-05
-4.18574e-11
-5.41406e-05
-5.70265e-12
-5.41406e-05
-3.85434e-11
-5.41406e-05
5.7451e-12
-5.41406e-05
-2.34497e-11
4.99902e-12
-2.28078e-05
5.15946e-12
-2.28078e-05
-2.41058e-11
-2.28078e-05
2.09974e-13
-2.28078e-05
-4.01451e-11
-2.28078e-05
-1.33917e-11
-2.28078e-05
-4.37015e-11
-2.28078e-05
-2.56956e-11
-2.28078e-05
-4.21196e-11
-2.28078e-05
-3.52513e-11
-2.28078e-05
-3.58998e-11
-2.28078e-05
-4.18382e-11
-2.28078e-05
-2.62297e-11
-2.28078e-05
-4.4679e-11
-2.28078e-05
-1.49413e-11
-2.28078e-05
-4.33374e-11
-2.28078e-05
-2.84851e-12
-2.28078e-05
-3.89828e-11
-2.28078e-05
6.57921e-12
-2.28078e-05
-2.24728e-11
4.33552e-12
1.48578e-05
5.2542e-12
1.48578e-05
-2.28049e-11
1.48578e-05
-9.89463e-13
1.48578e-05
-3.60384e-11
1.48578e-05
-1.50488e-11
1.48578e-05
-3.83383e-11
1.48578e-05
-2.73749e-11
1.48578e-05
-3.61469e-11
1.48578e-05
-3.68221e-11
1.48578e-05
-2.9961e-11
1.48578e-05
-4.30665e-11
1.48578e-05
-2.09764e-11
1.48578e-05
-4.53454e-11
1.48578e-05
-1.09066e-11
1.48578e-05
-4.33555e-11
1.48578e-05
-3.41875e-13
1.48578e-05
-3.81758e-11
1.48578e-05
6.98186e-12
1.48578e-05
-2.08959e-11
3.53746e-12
5.88562e-05
5.19817e-12
5.88562e-05
-2.09151e-11
5.88562e-05
-1.98541e-12
5.88562e-05
-3.12675e-11
5.88562e-05
-1.58765e-11
5.88563e-05
-3.24633e-11
5.88562e-05
-2.776e-11
5.88563e-05
-2.98653e-11
5.88562e-05
-3.67642e-11
5.88563e-05
-2.39559e-11
5.88562e-05
-4.24862e-11
5.88563e-05
-1.58897e-11
5.88562e-05
-4.4207e-11
5.88563e-05
-7.21377e-12
5.88562e-05
-4.17568e-11
5.88563e-05
1.68873e-12
5.88562e-05
-3.60549e-11
5.88563e-05
6.95048e-12
5.88563e-05
-1.87778e-11
2.67252e-12
0.000109187
4.95019e-12
0.000109187
-1.84358e-11
0.000109187
-2.63943e-12
0.000109187
-2.59527e-11
0.000109187
-1.56595e-11
0.000109188
-2.62181e-11
0.000109187
-2.65903e-11
0.000109188
-2.34256e-11
0.000109187
-3.47951e-11
0.000109188
-1.80264e-11
0.000109187
-3.98245e-11
0.000109188
-1.10838e-11
0.000109187
-4.10341e-11
0.000109188
-3.93411e-12
0.000109187
-3.83718e-11
0.000109188
3.21788e-12
0.000109187
-3.2548e-11
0.000109188
6.563e-12
0.000109188
-1.6156e-11
1.8341e-12
0.000165852
4.46352e-12
0.000165852
-1.53738e-11
0.000165852
-2.79403e-12
0.000165852
-2.01653e-11
0.000165852
-1.41673e-11
0.000165852
-1.96502e-11
0.000165852
-2.35829e-11
0.000165852
-1.68517e-11
0.000165852
-3.06074e-11
0.000165852
-1.21684e-11
0.000165852
-3.47864e-11
0.000165852
-6.52211e-12
0.000165852
-3.55746e-11
0.000165852
-1.00041e-12
0.000165852
-3.30064e-11
0.000165852
4.3371e-12
0.000165852
-2.75623e-11
0.000165852
5.97691e-12
0.000165852
-1.30306e-11
1.14265e-12
0.000228848
3.79586e-12
0.000228848
-1.16855e-11
0.000228848
-2.18359e-12
0.000228848
-1.37783e-11
0.000228848
-1.10588e-11
0.000228848
-1.25075e-11
0.000228848
-1.83449e-11
0.000228848
-9.79836e-12
0.000228848
-2.37982e-11
0.000228848
-5.97611e-12
0.000228848
-2.70027e-11
0.000228848
-1.77499e-12
0.000228848
-2.75247e-11
0.000228848
2.00016e-12
0.000228848
-2.54362e-11
0.000228848
5.4114e-12
0.000228848
-2.09938e-11
0.000228848
5.49686e-12
0.000228848
-9.35461e-12
7.36272e-13
0.000298178
2.70174e-12
0.000298178
-7.62682e-12
0.000298178
-1.15419e-12
0.000298178
-7.32356e-12
0.000298178
-6.78662e-12
0.000298178
-5.48549e-12
0.000298178
-1.13665e-11
0.000298178
-3.04847e-12
0.000298178
-1.48462e-11
0.000298178
-2.42458e-13
0.000298178
-1.69048e-11
0.000298178
2.42722e-12
0.000298178
-1.72357e-11
0.000298178
4.46298e-12
0.000298178
-1.5909e-11
0.000298178
6.00685e-12
0.000298178
-1.29856e-11
0.000298178
4.91716e-12
0.000298178
-5.17994e-12
6.51738e-13
0.000373841
1.58857e-12
0.000373841
-2.99494e-12
0.000373841
6.58389e-13
0.000373841
-4.23266e-13
0.000373841
-1.09075e-12
0.000373841
1.98243e-12
0.000373841
-2.49675e-12
0.000373841
4.09193e-12
0.000373841
-3.72234e-12
0.000373841
5.79072e-12
0.000373841
-4.58058e-12
0.000373841
6.83303e-12
0.000373841
-4.89098e-12
0.000373841
7.04955e-12
0.000373841
-4.67194e-12
0.000373841
6.6503e-12
0.000373841
-3.81627e-12
0.000373841
4.52862e-12
0.000373841
-6.21273e-13
8.59219e-13
0.000455836
0.000455836
0.000455836
0.000455836
0.000455836
0.000455836
0.000455836
0.000455836
0.000455836
0.000455836
0.000455836
0.000455836
0.000455836
0.000455836
0.000455836
0.000455836
0.000455836
0.000455836
0.000455836
)
;

boundaryField
{
    top
    {
        type            calculated;
        value           uniform 0;
    }
    bottom
    {
        type            calculated;
        value           uniform 0;
    }
    inlet
    {
        type            calculated;
        value           nonuniform List<scalar> 
20
(
1.91641e-05
5.11594e-05
7.68219e-05
9.61516e-05
0.000109148
0.000115812
0.000116144
0.000110142
9.78078e-05
7.91406e-05
5.41406e-05
2.28078e-05
-1.48578e-05
-5.88562e-05
-0.000109187
-0.000165852
-0.000228848
-0.000298178
-0.000373841
-0.000455836
)
;
    }
    outlet
    {
        type            calculated;
        value           nonuniform List<scalar> 
20
(
-1.91641e-05
-5.11594e-05
-7.68219e-05
-9.61516e-05
-0.000109148
-0.000115813
-0.000116144
-0.000110142
-9.78078e-05
-7.91406e-05
-5.41406e-05
-2.28078e-05
1.48578e-05
5.88563e-05
0.000109188
0.000165852
0.000228848
0.000298178
0.000373841
0.000455836
)
;
    }
    frontAndBack
    {
        type            empty;
        value           nonuniform 0();
    }
}


// ************************************************************************* //
