/*--------------------------------*- C++ -*----------------------------------*\
| =========                 |                                                 |
| \\      /  F ield         | OpenFOAM: The Open Source CFD Toolbox           |
|  \\    /   O peration     | Version:  4.1                                   |
|   \\  /    A nd           | Web:      www.OpenFOAM.org                      |
|    \\/     M anipulation  |                                                 |
\*---------------------------------------------------------------------------*/
FoamFile
{
    version     2.0;
    format      ascii;
    class       volVectorField;
    location    "4.8";
    object      U;
}
// * * * * * * * * * * * * * * * * * * * * * * * * * * * * * * * * * * * * * //

dimensions      [0 1 -1 0 0 0 0];

internalField   nonuniform List<vector> 
400
(
(-0.383281 2.17262e-10 0)
(-0.383281 -7.27372e-10 0)
(-0.383281 -2.97965e-10 0)
(-0.383281 -2.21124e-09 0)
(-0.383281 -8.01641e-10 0)
(-0.383281 -3.17173e-09 0)
(-0.383281 -1.273e-09 0)
(-0.383281 -3.70076e-09 0)
(-0.383281 -1.59114e-09 0)
(-0.383281 -3.8258e-09 0)
(-0.383281 -1.76793e-09 0)
(-0.383281 -3.56508e-09 0)
(-0.383281 -1.80994e-09 0)
(-0.383281 -2.93404e-09 0)
(-0.383281 -1.71519e-09 0)
(-0.383281 -2.10548e-09 0)
(-0.383281 -1.53023e-09 0)
(-0.383281 -1.08713e-09 0)
(-0.383281 -1.2455e-09 0)
(-0.383281 -1.50739e-10 0)
(-1.02319 1.821e-09 0)
(-1.02319 -2.89324e-09 0)
(-1.02319 8.49285e-09 0)
(-1.02319 -8.82413e-09 0)
(-1.02319 1.2922e-08 0)
(-1.02319 -1.17139e-08 0)
(-1.02319 1.49842e-08 0)
(-1.02319 -1.30811e-08 0)
(-1.02319 1.55645e-08 0)
(-1.02319 -1.29645e-08 0)
(-1.02319 1.4384e-08 0)
(-1.02319 -1.13028e-08 0)
(-1.02319 1.15729e-08 0)
(-1.02319 -8.30343e-09 0)
(-1.02319 7.59852e-09 0)
(-1.02319 -4.5401e-09 0)
(-1.02319 2.75552e-09 0)
(-1.02319 3.18799e-10 0)
(-1.02319 -2.51528e-09 0)
(-1.02319 2.58324e-09 0)
(-1.53644 1.02762e-09 0)
(-1.53644 -8.36276e-09 0)
(-1.53644 3.96521e-09 0)
(-1.53644 -1.98771e-08 0)
(-1.53644 4.53625e-09 0)
(-1.53644 -2.58181e-08 0)
(-1.53644 3.62266e-09 0)
(-1.53644 -2.85618e-08 0)
(-1.53644 2.45007e-09 0)
(-1.53644 -2.82342e-08 0)
(-1.53644 7.19474e-10 0)
(-1.53644 -2.49118e-08 0)
(-1.53644 -1.47153e-09 0)
(-1.53644 -1.91903e-08 0)
(-1.53644 -3.75648e-09 0)
(-1.53644 -1.19089e-08 0)
(-1.53644 -6.16579e-09 0)
(-1.53644 -3.23617e-09 0)
(-1.53644 -7.52967e-09 0)
(-1.53644 1.8981e-09 0)
(-1.92303 1.63519e-09 0)
(-1.92303 -1.26438e-08 0)
(-1.92303 6.50434e-09 0)
(-1.92303 -2.82778e-08 0)
(-1.92303 7.46495e-09 0)
(-1.92303 -3.57297e-08 0)
(-1.92303 6.17878e-09 0)
(-1.92303 -3.8838e-08 0)
(-1.92303 4.39415e-09 0)
(-1.92303 -3.77739e-08 0)
(-1.92303 1.69809e-09 0)
(-1.92303 -3.26732e-08 0)
(-1.92303 -1.70433e-09 0)
(-1.92303 -2.44459e-08 0)
(-1.92303 -5.23244e-09 0)
(-1.92303 -1.42293e-08 0)
(-1.92303 -8.92163e-09 0)
(-1.92303 -2.432e-09 0)
(-1.92303 -1.04768e-08 0)
(-1.92303 3.68123e-09 0)
(-2.18297 1.89432e-09 0)
(-2.18297 -1.63893e-08 0)
(-2.18297 5.86206e-09 0)
(-2.18297 -3.5591e-08 0)
(-2.18297 4.88327e-09 0)
(-2.18297 -4.44377e-08 0)
(-2.18297 1.81285e-09 0)
(-2.18297 -4.78932e-08 0)
(-2.18297 -1.27259e-09 0)
(-2.18297 -4.62101e-08 0)
(-2.18297 -4.8004e-09 0)
(-2.18297 -3.96643e-08 0)
(-2.18297 -8.49817e-09 0)
(-2.18297 -2.94144e-08 0)
(-2.18297 -1.17297e-08 0)
(-2.18297 -1.6837e-08 0)
(-2.18297 -1.47109e-08 0)
(-2.18297 -2.72703e-09 0)
(-2.18297 -1.409e-08 0)
(-2.18297 4.20866e-09 0)
(-2.31625 2.43053e-09 0)
(-2.31625 -1.93022e-08 0)
(-2.31625 5.87959e-09 0)
(-2.31625 -4.0898e-08 0)
(-2.31625 3.23845e-09 0)
(-2.31625 -5.03212e-08 0)
(-2.31625 -1.38638e-09 0)
(-2.31625 -5.36524e-08 0)
(-2.31625 -5.6733e-09 0)
(-2.31625 -5.12161e-08 0)
(-2.31625 -1.00376e-08 0)
(-2.31625 -4.34253e-08 0)
(-2.31625 -1.41155e-08 0)
(-2.31625 -3.16733e-08 0)
(-2.31625 -1.72e-08 0)
(-2.31625 -1.74798e-08 0)
(-2.31625 -1.96714e-08 0)
(-2.31625 -1.97206e-09 0)
(-2.31625 -1.70599e-08 0)
(-2.31625 4.90018e-09 0)
(-2.32287 3.03132e-09 0)
(-2.32287 -2.1483e-08 0)
(-2.32287 5.69223e-09 0)
(-2.32287 -4.44005e-08 0)
(-2.32288 1.2033e-09 0)
(-2.32287 -5.37988e-08 0)
(-2.32288 -5.00862e-09 0)
(-2.32287 -5.66977e-08 0)
(-2.32288 -1.04943e-08 0)
(-2.32288 -5.34816e-08 0)
(-2.32288 -1.56208e-08 0)
(-2.32288 -4.47135e-08 0)
(-2.32288 -1.99298e-08 0)
(-2.32288 -3.19723e-08 0)
(-2.32288 -2.26695e-08 0)
(-2.32288 -1.68345e-08 0)
(-2.32288 -2.44e-08 0)
(-2.32288 -7.63991e-10 0)
(-2.32288 -1.95528e-08 0)
(-2.32288 5.41169e-09 0)
(-2.20284 3.60894e-09 0)
(-2.20284 -2.30807e-08 0)
(-2.20284 5.21324e-09 0)
(-2.20284 -4.63613e-08 0)
(-2.20284 -1.23069e-09 0)
(-2.20284 -5.52464e-08 0)
(-2.20284 -8.99306e-09 0)
(-2.20284 -5.74796e-08 0)
(-2.20284 -1.56141e-08 0)
(-2.20284 -5.34914e-08 0)
(-2.20284 -2.13846e-08 0)
(-2.20284 -4.3992e-08 0)
(-2.20284 -2.57548e-08 0)
(-2.20284 -3.07112e-08 0)
(-2.20284 -2.79596e-08 0)
(-2.20284 -1.52052e-08 0)
(-2.20284 -2.87427e-08 0)
(-2.20284 7.19478e-10 0)
(-2.20284 -2.14996e-08 0)
(-2.20284 5.72252e-09 0)
(-1.95616 4.11968e-09 0)
(-1.95616 -2.41681e-08 0)
(-1.95616 4.42813e-09 0)
(-1.95616 -4.69559e-08 0)
(-1.95616 -3.9786e-09 0)
(-1.95616 -5.49619e-08 0)
(-1.95616 -1.31804e-08 0)
(-1.95616 -5.63777e-08 0)
(-1.95616 -2.08166e-08 0)
(-1.95616 -5.16674e-08 0)
(-1.95616 -2.70799e-08 0)
(-1.95616 -4.16866e-08 0)
(-1.95616 -3.13391e-08 0)
(-1.95616 -2.82691e-08 0)
(-1.95616 -3.28497e-08 0)
(-1.95616 -1.28836e-08 0)
(-1.95616 -3.25267e-08 0)
(-1.95616 2.29861e-09 0)
(-1.95616 -2.28423e-08 0)
(-1.95616 5.80693e-09 0)
(-1.58281 4.54915e-09 0)
(-1.58281 -2.47637e-08 0)
(-1.58281 3.3891e-09 0)
(-1.58281 -4.63098e-08 0)
(-1.58281 -6.86085e-09 0)
(-1.58281 -5.31772e-08 0)
(-1.58281 -1.73073e-08 0)
(-1.58281 -5.37018e-08 0)
(-1.58281 -2.57819e-08 0)
(-1.58281 -4.83686e-08 0)
(-1.58281 -3.23644e-08 0)
(-1.58281 -3.81617e-08 0)
(-1.58281 -3.63573e-08 0)
(-1.58281 -2.49741e-08 0)
(-1.58281 -3.70702e-08 0)
(-1.58281 -1.01305e-08 0)
(-1.58281 -3.55568e-08 0)
(-1.58281 3.81535e-09 0)
(-1.58281 -2.3533e-08 0)
(-1.58281 5.65802e-09 0)
(-1.08281 4.89349e-09 0)
(-1.08281 -2.48492e-08 0)
(-1.08281 2.18632e-09 0)
(-1.08281 -4.45249e-08 0)
(-1.08281 -9.65056e-09 0)
(-1.08281 -5.0101e-08 0)
(-1.08281 -2.10655e-08 0)
(-1.08281 -4.9734e-08 0)
(-1.08281 -3.01506e-08 0)
(-1.08281 -4.39214e-08 0)
(-1.08281 -3.68659e-08 0)
(-1.08281 -3.37508e-08 0)
(-1.08281 -4.04663e-08 0)
(-1.08281 -2.11254e-08 0)
(-1.08281 -4.03457e-08 0)
(-1.08281 -7.18349e-09 0)
(-1.08281 -3.7645e-08 0)
(-1.08281 5.13605e-09 0)
(-1.08281 -2.35485e-08 0)
(-1.08281 5.28685e-09 0)
(-0.456156 5.14533e-09 0)
(-0.456156 -2.43967e-08 0)
(-0.456156 9.19711e-10 0)
(-0.456156 -4.17173e-08 0)
(-0.456156 -1.21207e-08 0)
(-0.456156 -4.59516e-08 0)
(-0.456156 -2.41589e-08 0)
(-0.456156 -4.4763e-08 0)
(-0.456156 -3.35858e-08 0)
(-0.456156 -3.86548e-08 0)
(-0.456156 -4.02422e-08 0)
(-0.456156 -2.87849e-08 0)
(-0.456156 -4.33583e-08 0)
(-0.456156 -1.70149e-08 0)
(-0.456156 -4.24372e-08 0)
(-0.456156 -4.27059e-09 0)
(-0.456156 -3.86397e-08 0)
(-0.456156 6.14785e-09 0)
(-0.456156 -2.28976e-08 0)
(-0.456156 4.71919e-09 0)
(0.297156 5.2869e-09 0)
(0.297156 -2.33806e-08 0)
(0.297156 -3.09593e-10 0)
(0.297156 -3.80252e-08 0)
(0.297156 -1.40623e-08 0)
(0.297156 -4.09614e-08 0)
(0.297156 -2.63253e-08 0)
(0.297156 -3.90846e-08 0)
(0.297156 -3.57947e-08 0)
(0.297156 -3.28966e-08 0)
(0.297156 -4.2202e-08 0)
(0.297156 -2.35848e-08 0)
(0.297156 -4.47788e-08 0)
(0.297156 -1.2918e-08 0)
(0.297156 -4.3153e-08 0)
(0.297156 -1.60065e-09 0)
(0.297156 -3.8435e-08 0)
(0.297156 6.76841e-09 0)
(0.297156 -2.16223e-08 0)
(0.297156 3.99502e-09 0)
(1.17712 5.29086e-09 0)
(1.17712 -2.17829e-08 0)
(1.17712 -1.38832e-09 0)
(1.17712 -3.35917e-08 0)
(1.17712 -1.52691e-08 0)
(1.17712 -3.53464e-08 0)
(1.17712 -2.73125e-08 0)
(1.17712 -3.29618e-08 0)
(1.17712 -3.65014e-08 0)
(1.17712 -2.69287e-08 0)
(1.17712 -4.24787e-08 0)
(1.17712 -1.84174e-08 0)
(1.17712 -4.45013e-08 0)
(1.17712 -9.05414e-09 0)
(1.17713 -4.23295e-08 0)
(1.17712 6.69808e-10 0)
(1.17713 -3.69502e-08 0)
(1.17712 6.9673e-09 0)
(1.17713 -1.97778e-08 0)
(1.17713 3.17195e-09 0)
(2.18375 5.12415e-09 0)
(2.18375 -1.95984e-08 0)
(2.18375 -2.18938e-09 0)
(2.18375 -2.85492e-08 0)
(2.18375 -1.55358e-08 0)
(2.18375 -2.92815e-08 0)
(2.18375 -2.68723e-08 0)
(2.18375 -2.65939e-08 0)
(2.18375 -3.54356e-08 0)
(2.18375 -2.0952e-08 0)
(2.18375 -4.08055e-08 0)
(2.18375 -1.34601e-08 0)
(2.18375 -4.23007e-08 0)
(2.18375 -5.5555e-09 0)
(2.18375 -3.98038e-08 0)
(2.18375 2.46191e-09 0)
(2.18375 -3.41186e-08 0)
(2.18375 6.77912e-09 0)
(2.18375 -1.7411e-08 0)
(2.18375 2.32807e-09 0)
(3.31703 4.70326e-09 0)
(3.31703 -1.68614e-08 0)
(3.31703 -2.6195e-09 0)
(3.31703 -2.30574e-08 0)
(3.31703 -1.47e-08 0)
(3.31703 -2.29488e-08 0)
(3.31703 -2.47933e-08 0)
(3.31703 -2.01701e-08 0)
(3.31703 -3.23575e-08 0)
(3.31703 -1.51422e-08 0)
(3.31703 -3.69486e-08 0)
(3.31703 -8.85262e-09 0)
(3.31703 -3.79725e-08 0)
(3.31703 -2.51032e-09 0)
(3.31703 -3.54171e-08 0)
(3.31703 3.74342e-09 0)
(3.31703 -2.98565e-08 0)
(3.31703 6.28475e-09 0)
(3.31703 -1.45439e-08 0)
(3.31703 1.56798e-09 0)
(4.57697 4.53408e-09 0)
(4.57697 -1.31997e-08 0)
(4.57697 -1.78539e-09 0)
(4.57697 -1.62329e-08 0)
(4.57697 -1.168e-08 0)
(4.57697 -1.5019e-08 0)
(4.57697 -1.9918e-08 0)
(4.57697 -1.20644e-08 0)
(4.57697 -2.61525e-08 0)
(4.57697 -7.73354e-09 0)
(4.57697 -2.9928e-08 0)
(4.57697 -2.85429e-09 0)
(4.57697 -3.07588e-08 0)
(4.57697 1.63602e-09 0)
(4.57697 -2.86695e-08 0)
(4.57697 5.76558e-09 0)
(4.57697 -2.39925e-08 0)
(4.57697 6.2989e-09 0)
(4.57697 -1.1099e-08 0)
(4.57697 1.06738e-09 0)
(5.96356 1.96998e-09 0)
(5.96356 -1.05766e-08 0)
(5.96356 -3.46842e-09 0)
(5.96356 -1.29641e-08 0)
(5.96356 -1.11032e-08 0)
(5.96356 -1.24951e-08 0)
(5.96356 -1.71872e-08 0)
(5.96356 -1.06234e-08 0)
(5.96356 -2.15498e-08 0)
(5.96356 -7.59603e-09 0)
(5.96356 -2.38743e-08 0)
(5.96356 -4.01698e-09 0)
(5.96356 -2.38921e-08 0)
(5.96356 -5.64081e-10 0)
(5.96356 -2.1732e-08 0)
(5.96356 2.74964e-09 0)
(5.96356 -1.76097e-08 0)
(5.96356 3.51473e-09 0)
(5.96356 -7.70808e-09 0)
(5.96356 4.66108e-10 0)
(7.47681 3.72296e-09 0)
(7.47681 -4.58764e-09 0)
(7.47681 1.90164e-09 0)
(7.47681 -1.37085e-09 0)
(7.47681 -1.67917e-09 0)
(7.47681 2.10661e-09 0)
(7.47681 -4.79394e-09 0)
(7.47681 5.30201e-09 0)
(7.47681 -7.50243e-09 0)
(7.47681 8.01167e-09 0)
(7.47681 -9.46514e-09 0)
(7.47681 9.81812e-09 0)
(7.47681 -1.03414e-08 0)
(7.47681 1.03919e-08 0)
(7.47681 -1.016e-08 0)
(7.47681 1.00548e-08 0)
(7.47681 -8.69456e-09 0)
(7.47681 6.94105e-09 0)
(7.47681 -2.89673e-09 0)
(7.47681 8.12383e-10 0)
(9.11672 -7.04437e-10 0)
(9.11672 -2.18532e-09 0)
(9.11672 -1.71084e-09 0)
(9.11672 -2.87017e-09 0)
(9.11672 -2.73838e-09 0)
(9.11672 -3.1365e-09 0)
(9.11672 -3.40509e-09 0)
(9.11672 -3.0858e-09 0)
(9.11672 -3.73737e-09 0)
(9.11672 -2.73377e-09 0)
(9.11672 -3.73332e-09 0)
(9.11672 -2.15868e-09 0)
(9.11672 -3.40618e-09 0)
(9.11672 -1.4529e-09 0)
(9.11672 -2.85371e-09 0)
(9.11672 -6.72847e-10 0)
(9.11672 -1.9726e-09 0)
(9.11672 -9.86051e-11 0)
(9.11672 -5.99999e-10 0)
(9.11672 2.14809e-10 0)
)
;

boundaryField
{
    top
    {
        type            fixedValue;
        value           uniform (10 0 0);
    }
    bottom
    {
        type            fixedValue;
        value           uniform (0 0 0);
    }
    inlet
    {
        type            zeroGradient;
    }
    outlet
    {
        type            zeroGradient;
    }
    frontAndBack
    {
        type            empty;
    }
}


// ************************************************************************* //
