/*--------------------------------*- C++ -*----------------------------------*\
| =========                 |                                                 |
| \\      /  F ield         | OpenFOAM: The Open Source CFD Toolbox           |
|  \\    /   O peration     | Version:  4.1                                   |
|   \\  /    A nd           | Web:      www.OpenFOAM.org                      |
|    \\/     M anipulation  |                                                 |
\*---------------------------------------------------------------------------*/
FoamFile
{
    version     2.0;
    format      ascii;
    class       volScalarField;
    location    "1.7";
    object      p;
}
// * * * * * * * * * * * * * * * * * * * * * * * * * * * * * * * * * * * * * //

dimensions      [0 2 -2 0 0 0 0];

internalField   nonuniform List<scalar> 
400
(
2.9109e-08
3.23765e-08
2.77196e-08
2.95538e-08
2.61309e-08
2.70755e-08
2.44782e-08
2.47221e-08
2.27342e-08
2.24428e-08
2.09328e-08
2.02062e-08
1.9102e-08
1.79872e-08
1.72646e-08
1.57652e-08
1.54483e-08
1.35589e-08
1.3789e-08
1.30834e-08
2.90034e-08
3.22682e-08
2.77115e-08
2.95516e-08
2.61311e-08
2.70752e-08
2.44784e-08
2.4722e-08
2.27343e-08
2.24427e-08
2.09329e-08
2.02062e-08
1.9102e-08
1.79873e-08
1.72645e-08
1.57652e-08
1.54471e-08
1.35597e-08
1.37167e-08
1.3007e-08
2.89438e-08
3.21916e-08
2.77016e-08
2.95514e-08
2.61298e-08
2.7076e-08
2.44777e-08
2.47225e-08
2.27339e-08
2.2443e-08
2.09327e-08
2.02063e-08
1.9102e-08
1.79872e-08
1.72647e-08
1.57649e-08
1.54466e-08
1.35589e-08
1.36601e-08
1.29547e-08
2.89252e-08
3.21557e-08
2.76923e-08
2.95517e-08
2.61284e-08
2.7077e-08
2.44769e-08
2.47231e-08
2.27334e-08
2.24434e-08
2.09325e-08
2.02064e-08
1.9102e-08
1.79871e-08
1.72649e-08
1.57645e-08
1.54464e-08
1.3557e-08
1.36277e-08
1.2928e-08
2.89311e-08
3.21483e-08
2.76834e-08
2.95518e-08
2.61272e-08
2.70777e-08
2.44762e-08
2.47236e-08
2.2733e-08
2.24437e-08
2.09323e-08
2.02065e-08
1.9102e-08
1.7987e-08
1.72651e-08
1.57642e-08
1.54462e-08
1.35546e-08
1.3614e-08
1.29188e-08
2.89532e-08
3.21598e-08
2.76747e-08
2.95518e-08
2.61263e-08
2.70783e-08
2.44757e-08
2.4724e-08
2.27327e-08
2.24439e-08
2.09322e-08
2.02066e-08
1.9102e-08
1.79869e-08
1.72652e-08
1.57639e-08
1.54461e-08
1.35518e-08
1.36154e-08
1.29232e-08
2.89868e-08
3.21846e-08
2.76657e-08
2.95518e-08
2.61255e-08
2.70788e-08
2.44753e-08
2.47243e-08
2.27325e-08
2.24441e-08
2.09321e-08
2.02066e-08
1.9102e-08
1.79869e-08
1.72653e-08
1.57638e-08
1.54462e-08
1.35489e-08
1.36295e-08
1.29389e-08
2.90263e-08
3.22169e-08
2.76564e-08
2.95516e-08
2.61248e-08
2.70792e-08
2.4475e-08
2.47246e-08
2.27323e-08
2.24442e-08
2.0932e-08
2.02067e-08
1.9102e-08
1.79868e-08
1.72654e-08
1.57636e-08
1.54462e-08
1.35462e-08
1.36531e-08
1.29628e-08
2.90662e-08
3.22509e-08
2.76468e-08
2.95511e-08
2.61243e-08
2.70794e-08
2.44748e-08
2.47247e-08
2.27322e-08
2.24443e-08
2.09319e-08
2.02067e-08
1.9102e-08
1.79868e-08
1.72655e-08
1.57635e-08
1.54463e-08
1.35438e-08
1.36828e-08
1.29912e-08
2.91014e-08
3.22813e-08
2.7637e-08
2.95505e-08
2.6124e-08
2.70795e-08
2.44747e-08
2.47248e-08
2.27321e-08
2.24443e-08
2.09319e-08
2.02067e-08
1.9102e-08
1.79868e-08
1.72655e-08
1.57635e-08
1.54463e-08
1.3542e-08
1.37145e-08
1.30202e-08
2.91275e-08
3.23035e-08
2.76271e-08
2.95495e-08
2.61238e-08
2.70795e-08
2.44747e-08
2.47248e-08
2.27322e-08
2.24443e-08
2.09319e-08
2.02067e-08
1.9102e-08
1.79868e-08
1.72655e-08
1.57636e-08
1.54463e-08
1.35408e-08
1.37445e-08
1.30462e-08
2.91413e-08
3.23142e-08
2.76172e-08
2.95482e-08
2.61237e-08
2.70793e-08
2.44749e-08
2.47247e-08
2.27322e-08
2.24442e-08
2.0932e-08
2.02067e-08
1.9102e-08
1.79868e-08
1.72655e-08
1.57636e-08
1.54462e-08
1.35402e-08
1.37691e-08
1.30658e-08
2.91404e-08
3.23114e-08
2.76077e-08
2.95466e-08
2.61238e-08
2.7079e-08
2.44751e-08
2.47245e-08
2.27324e-08
2.24441e-08
2.0932e-08
2.02066e-08
1.9102e-08
1.79868e-08
1.72655e-08
1.57638e-08
1.54459e-08
1.35403e-08
1.37855e-08
1.30762e-08
2.91245e-08
3.22946e-08
2.75987e-08
2.95447e-08
2.61241e-08
2.70786e-08
2.44754e-08
2.47243e-08
2.27326e-08
2.2444e-08
2.09321e-08
2.02066e-08
1.9102e-08
1.79868e-08
1.72654e-08
1.57639e-08
1.54454e-08
1.35409e-08
1.37916e-08
1.30756e-08
2.90943e-08
3.22649e-08
2.75906e-08
2.95426e-08
2.61245e-08
2.7078e-08
2.44758e-08
2.47239e-08
2.27328e-08
2.24438e-08
2.09322e-08
2.02065e-08
1.9102e-08
1.79869e-08
1.72653e-08
1.57641e-08
1.54448e-08
1.35418e-08
1.3786e-08
1.3063e-08
2.90526e-08
3.22254e-08
2.75837e-08
2.95403e-08
2.6125e-08
2.70773e-08
2.44763e-08
2.47235e-08
2.27331e-08
2.24436e-08
2.09324e-08
2.02064e-08
1.9102e-08
1.7987e-08
1.72652e-08
1.57643e-08
1.5444e-08
1.35431e-08
1.37692e-08
1.30388e-08
2.9003e-08
3.21807e-08
2.75781e-08
2.95377e-08
2.61258e-08
2.70765e-08
2.4477e-08
2.4723e-08
2.27335e-08
2.24433e-08
2.09326e-08
2.02063e-08
1.91021e-08
1.7987e-08
1.72651e-08
1.57646e-08
1.5443e-08
1.35445e-08
1.37425e-08
1.30042e-08
2.89527e-08
3.21387e-08
2.75743e-08
2.95349e-08
2.61268e-08
2.70755e-08
2.44778e-08
2.47224e-08
2.2734e-08
2.24429e-08
2.09328e-08
2.02062e-08
1.91021e-08
1.79871e-08
1.72648e-08
1.57649e-08
1.54419e-08
1.35459e-08
1.37091e-08
1.29621e-08
2.89139e-08
3.21075e-08
2.75715e-08
2.95325e-08
2.61276e-08
2.70745e-08
2.44785e-08
2.47218e-08
2.27344e-08
2.24426e-08
2.0933e-08
2.02061e-08
1.91021e-08
1.79872e-08
1.72646e-08
1.57651e-08
1.54407e-08
1.35472e-08
1.36711e-08
1.29168e-08
2.89069e-08
3.20938e-08
2.75678e-08
2.95319e-08
2.61271e-08
2.70748e-08
2.44782e-08
2.4722e-08
2.27343e-08
2.24428e-08
2.09329e-08
2.02062e-08
1.91021e-08
1.79872e-08
1.72647e-08
1.57649e-08
1.544e-08
1.35477e-08
1.36352e-08
1.28816e-08
)
;

boundaryField
{
    top
    {
        type            zeroGradient;
    }
    bottom
    {
        type            zeroGradient;
    }
    inlet
    {
        type            fixedValue;
        value           uniform 0;
    }
    outlet
    {
        type            fixedValue;
        value           uniform 0;
    }
    frontAndBack
    {
        type            empty;
    }
}


// ************************************************************************* //
