/*--------------------------------*- C++ -*----------------------------------*\
| =========                 |                                                 |
| \\      /  F ield         | OpenFOAM: The Open Source CFD Toolbox           |
|  \\    /   O peration     | Version:  4.1                                   |
|   \\  /    A nd           | Web:      www.OpenFOAM.org                      |
|    \\/     M anipulation  |                                                 |
\*---------------------------------------------------------------------------*/
FoamFile
{
    version     2.0;
    format      ascii;
    class       surfaceScalarField;
    location    "1.7";
    object      phi;
}
// * * * * * * * * * * * * * * * * * * * * * * * * * * * * * * * * * * * * * //

dimensions      [0 3 -1 0 0 0 0];

internalField   nonuniform List<scalar> 
760
(
1.24995e-06
-4.52336e-14
1.24995e-06
-3.0944e-14
1.24995e-06
3.20873e-16
1.24995e-06
-2.13684e-15
1.24995e-06
1.41274e-15
1.24995e-06
-1.19661e-15
1.24995e-06
9.48201e-16
1.24995e-06
-7.4631e-16
1.24995e-06
5.66386e-16
1.24995e-06
-4.06075e-16
1.24995e-06
2.5993e-16
1.24995e-06
-1.23572e-16
1.24995e-06
-7.02451e-18
1.24995e-06
1.34956e-16
1.24995e-06
-2.69323e-16
1.24995e-06
3.79813e-16
1.24995e-06
-7.65424e-16
1.24995e-06
1.09888e-15
1.24995e-06
-1.85258e-14
-2.74454e-14
3.74984e-06
-1.36657e-13
3.74984e-06
-1.08371e-13
3.74984e-06
-2.39551e-15
3.74984e-06
-5.21435e-15
3.74984e-06
2.95664e-15
3.74984e-06
-2.59218e-15
3.74984e-06
2.035e-15
3.74984e-06
-1.60423e-15
3.74984e-06
1.216e-15
3.74984e-06
-8.70688e-16
3.74984e-06
5.55654e-16
3.74984e-06
-2.61522e-16
3.74984e-06
-2.04227e-17
3.74984e-06
2.9578e-16
3.74984e-06
-5.93814e-16
3.74984e-06
7.90223e-16
3.74984e-06
-2.03414e-15
3.74984e-06
2.92452e-15
3.74984e-06
-6.83172e-14
-8.85587e-14
6.24974e-06
-2.47165e-13
6.24974e-06
-2.13768e-13
6.24974e-06
-8.55186e-15
6.24974e-06
-8.0225e-15
6.24974e-06
3.79699e-15
6.24974e-06
-3.48502e-15
6.24974e-06
2.70304e-15
6.24974e-06
-2.13532e-15
6.24974e-06
1.61599e-15
6.24974e-06
-1.15512e-15
6.24974e-06
7.34263e-16
6.24974e-06
-3.4101e-16
6.24974e-06
-3.63412e-17
6.24974e-06
4.03442e-16
6.24974e-06
-8.1575e-16
6.24974e-06
1.00888e-15
6.24974e-06
-3.38931e-15
6.24974e-06
4.94408e-15
6.24974e-06
-1.40389e-13
-1.69254e-13
8.74965e-06
-3.60093e-13
8.74965e-06
-3.28936e-13
8.74965e-06
-1.69985e-14
8.74965e-06
-1.04401e-14
8.74965e-06
4.02314e-15
8.74965e-06
-3.92281e-15
8.74965e-06
2.99629e-15
8.74965e-06
-2.37348e-15
8.74965e-06
1.79263e-15
8.74965e-06
-1.27872e-15
8.74965e-06
8.08848e-16
8.74965e-06
-3.69385e-16
8.74965e-06
-5.2814e-17
8.74965e-06
4.61462e-16
8.74965e-06
-9.41482e-16
8.74965e-06
1.06089e-15
8.74965e-06
-4.73623e-15
8.74965e-06
7.01601e-15
8.74965e-06
-2.24101e-13
-2.58915e-13
1.12496e-05
-4.61082e-13
1.12496e-05
-4.37844e-13
1.12496e-05
-2.65036e-14
1.12496e-05
-1.23368e-14
1.12496e-05
3.73303e-15
1.12496e-05
-3.95772e-15
1.12496e-05
2.96265e-15
1.12496e-05
-2.35559e-15
1.12496e-05
1.77448e-15
1.12496e-05
-1.26239e-15
1.12496e-05
7.93459e-16
1.12496e-05
-3.54376e-16
1.12496e-05
-6.8071e-17
1.12496e-05
4.74178e-16
1.12496e-05
-9.78716e-16
1.12496e-05
9.729e-16
1.12496e-05
-5.9735e-15
1.12496e-05
9.00389e-15
1.12496e-05
-3.09234e-13
-3.47387e-13
1.37495e-05
-5.3913e-13
1.37495e-05
-5.27772e-13
1.37495e-05
-3.58581e-14
1.37495e-05
-1.35953e-14
1.37495e-05
3.03041e-15
1.37495e-05
-3.64658e-15
1.37495e-05
2.6537e-15
1.37495e-05
-2.12141e-15
1.37495e-05
1.59221e-15
1.37495e-05
-1.12852e-15
1.37495e-05
7.03009e-16
1.37495e-05
-3.03984e-16
1.37495e-05
-8.06467e-17
1.37495e-05
4.46784e-16
1.37495e-05
-9.36755e-16
1.37495e-05
7.72393e-16
1.37495e-05
-7.00441e-15
1.37495e-05
1.07649e-14
1.37495e-05
-3.86555e-13
-4.25536e-13
1.62494e-05
-5.86643e-13
1.62494e-05
-5.89461e-13
1.62494e-05
-4.398e-14
1.62494e-05
-1.41277e-14
1.62494e-05
2.02186e-15
1.62494e-05
-3.05054e-15
1.62494e-05
2.124e-15
1.62494e-05
-1.71301e-15
1.62494e-05
1.27821e-15
1.62494e-05
-9.00661e-16
1.62494e-05
5.5305e-16
1.62494e-05
-2.26361e-16
1.62494e-05
-8.9423e-17
1.62494e-05
3.85318e-16
1.62494e-05
-8.26545e-16
1.62494e-05
4.87325e-16
1.62494e-05
-7.74559e-15
1.62494e-05
1.21523e-14
1.62494e-05
-4.48453e-13
-4.85892e-13
1.87494e-05
-5.99836e-13
1.87494e-05
-6.17601e-13
1.87494e-05
-5.00072e-14
1.87494e-05
-1.3891e-14
1.87494e-05
8.13314e-16
1.87494e-05
-2.23437e-15
1.87494e-05
1.43016e-15
1.87494e-05
-1.17416e-15
1.87494e-05
8.6605e-16
1.87494e-05
-6.03119e-16
1.87494e-05
3.5952e-16
1.87494e-05
-1.29645e-16
1.87494e-05
-9.36964e-17
1.87494e-05
2.96584e-16
1.87494e-05
-6.60613e-16
1.87494e-05
1.45535e-16
1.87494e-05
-8.13487e-15
1.87494e-05
1.30274e-14
1.87494e-05
-4.89352e-13
-5.23078e-13
2.12493e-05
-5.78556e-13
2.12493e-05
-6.10729e-13
2.12493e-05
-5.33713e-14
2.12493e-05
-1.28968e-14
2.12493e-05
-4.92834e-16
2.12493e-05
-1.26589e-15
2.12493e-05
6.30046e-16
2.12493e-05
-5.49745e-16
2.12493e-05
3.9007e-16
2.12493e-05
-2.60673e-16
2.12493e-05
1.38519e-16
2.12493e-05
-2.18488e-17
2.12493e-05
-9.31773e-17
2.12493e-05
1.88047e-16
2.12493e-05
-4.5298e-16
2.12493e-05
-2.25551e-16
2.12493e-05
-8.13728e-15
2.12493e-05
1.32785e-14
2.12493e-05
-5.06e-13
-5.34113e-13
2.37493e-05
-5.26093e-13
2.37493e-05
-5.71091e-13
2.37493e-05
-5.38387e-14
2.37493e-05
-1.12174e-14
2.37493e-05
-1.80013e-15
2.37493e-05
-2.15338e-16
2.37493e-05
-2.18008e-16
2.37493e-05
1.14794e-16
2.37493e-05
-1.15076e-16
2.37493e-05
1.01766e-16
2.37493e-05
-9.39236e-17
2.37493e-05
8.92504e-17
2.37493e-05
-8.79945e-17
2.37493e-05
6.77588e-17
2.37493e-05
-2.18983e-16
2.37493e-05
-5.99188e-16
2.37493e-05
-7.74918e-15
2.37493e-05
1.28422e-14
2.37493e-05
-4.97571e-13
-5.18542e-13
2.62493e-05
-4.48677e-13
2.62493e-05
-5.0415e-13
2.62493e-05
-5.15154e-14
2.62493e-05
-8.98636e-15
2.62493e-05
-3.01976e-15
2.62493e-05
8.45334e-16
2.62493e-05
-1.05587e-15
2.62493e-05
7.73974e-16
2.62493e-05
-6.14852e-16
2.62493e-05
4.59453e-16
2.62493e-05
-3.21978e-16
2.62493e-05
1.96184e-16
2.62493e-05
-7.87009e-17
2.62493e-05
-5.579e-17
2.62493e-05
2.49258e-17
2.62493e-05
-9.49598e-16
2.62493e-05
-7.00004e-15
2.62493e-05
1.17226e-14
2.62493e-05
-4.65605e-13
-4.7838e-13
2.87493e-05
-3.54789e-13
2.87493e-05
-4.17882e-13
2.87493e-05
-4.68141e-14
2.87493e-05
-6.39169e-15
2.87493e-05
-4.07147e-15
2.87493e-05
1.84321e-15
2.87493e-05
-1.82633e-15
2.87493e-05
1.38279e-15
2.87493e-05
-1.07518e-15
2.87493e-05
7.88056e-16
2.87493e-05
-5.30202e-16
2.87493e-05
2.91838e-16
2.87493e-05
-6.62028e-17
2.87493e-05
-1.73791e-16
2.87493e-05
2.61466e-16
2.87493e-05
-1.25217e-15
2.87493e-05
-5.95154e-15
2.87493e-05
1.00035e-14
2.87493e-05
-4.13754e-13
-4.17866e-13
3.12494e-05
-2.54363e-13
3.12494e-05
-3.21927e-13
3.12494e-05
-4.03794e-14
3.12494e-05
-3.66472e-15
3.12494e-05
-4.88358e-15
3.12494e-05
2.70534e-15
3.12494e-05
-2.47366e-15
3.12494e-05
1.89717e-15
3.12494e-05
-1.46277e-15
3.12494e-05
1.06385e-15
3.12494e-05
-7.0368e-16
3.12494e-05
3.69522e-16
3.12494e-05
-5.17017e-17
3.12494e-05
-2.77335e-16
3.12494e-05
4.72904e-16
3.12494e-05
-1.48386e-15
3.12494e-05
-4.69424e-15
3.12494e-05
7.84825e-15
3.12494e-05
-3.47416e-13
-3.43091e-13
3.37494e-05
-1.57681e-13
3.37494e-05
-2.26402e-13
3.37494e-05
-3.29893e-14
3.37494e-05
-1.06309e-15
3.37494e-05
-5.39222e-15
3.37494e-05
3.35971e-15
3.37494e-05
-2.94418e-15
3.37494e-05
2.27442e-15
3.37494e-05
-1.74551e-15
3.37494e-05
1.26406e-15
3.37494e-05
-8.28107e-16
3.37494e-05
4.22891e-16
3.37494e-05
-3.65794e-17
3.37494e-05
-3.57534e-16
3.37494e-05
6.41317e-16
3.37494e-05
-1.62357e-15
3.37494e-05
-3.34158e-15
3.37494e-05
5.49009e-15
3.37494e-05
-2.73131e-13
-2.61365e-13
3.62495e-05
-7.44936e-14
3.62495e-05
-1.40928e-13
3.62495e-05
-2.54238e-14
3.62495e-05
1.14826e-15
3.62495e-05
-5.53998e-15
3.62495e-05
3.73618e-15
3.62495e-05
-3.18667e-15
3.62495e-05
2.47358e-15
3.62495e-05
-1.89267e-15
3.62495e-05
1.36687e-15
3.62495e-05
-8.89891e-16
3.62495e-05
4.46046e-16
3.62495e-05
-2.23052e-17
3.62495e-05
-4.05838e-16
3.62495e-05
7.49146e-16
3.62495e-05
-1.65275e-15
3.62495e-05
-2.0222e-15
3.62495e-05
3.2027e-15
3.62495e-05
-1.98051e-13
-1.80642e-13
3.87496e-05
-1.24893e-14
3.87496e-05
-7.29995e-14
3.87496e-05
-1.83485e-14
3.87496e-05
2.71801e-15
3.87496e-05
-5.2741e-15
3.87496e-05
3.76757e-15
3.87496e-05
-3.1528e-15
3.87496e-05
2.45585e-15
3.87496e-05
-1.87513e-15
3.87496e-05
1.35165e-15
3.87496e-05
-8.76146e-16
3.87496e-05
4.33376e-16
3.87496e-05
-1.02838e-17
3.87496e-05
-4.14169e-16
3.87496e-05
7.79498e-16
3.87496e-05
-1.556e-15
3.87496e-05
-8.70511e-16
3.87496e-05
1.26803e-15
3.87496e-05
-1.28979e-13
-1.08515e-13
4.12496e-05
2.31961e-14
4.12496e-05
-2.73931e-14
4.12496e-05
-1.21812e-14
4.12496e-05
3.42597e-15
4.12496e-05
-4.54475e-15
4.12496e-05
3.39083e-15
4.12496e-05
-2.79753e-15
4.12496e-05
2.18498e-15
4.12496e-05
-1.66572e-15
4.12496e-05
1.1991e-15
4.12496e-05
-7.74826e-16
4.12496e-05
3.79595e-16
4.12496e-05
-1.71221e-18
4.12496e-05
-3.75228e-16
4.12496e-05
7.16714e-16
4.12496e-05
-1.32195e-15
4.12496e-05
-1.73917e-17
4.12496e-05
-7.67411e-17
4.12496e-05
-7.19465e-14
-5.17197e-14
4.37497e-05
3.21609e-14
4.37497e-05
-3.94585e-15
4.37497e-05
-7.03966e-15
4.37497e-05
3.09746e-15
4.37497e-05
-3.30317e-15
4.37497e-05
2.5478e-15
4.37497e-05
-2.07926e-15
4.37497e-05
1.62745e-15
4.37497e-05
-1.23927e-15
4.37497e-05
8.9126e-16
4.37497e-05
-5.74625e-16
4.37497e-05
2.79579e-16
4.37497e-05
2.61009e-18
4.37497e-05
-2.82742e-16
4.37497e-05
5.46651e-16
4.37497e-05
-9.43947e-16
4.37497e-05
4.19194e-16
4.37497e-05
-6.73817e-16
4.37497e-05
-3.07687e-14
-1.46419e-14
4.62498e-05
1.80465e-14
4.62498e-05
1.80457e-15
4.62498e-05
-2.6874e-15
4.62498e-05
1.60653e-15
4.62498e-05
-1.49951e-15
4.62498e-05
1.18537e-15
4.62498e-05
-9.59599e-16
4.62498e-05
7.52297e-16
4.62498e-05
-5.72378e-16
4.62498e-05
4.11383e-16
4.62498e-05
-2.64821e-16
4.62498e-05
1.28231e-16
4.62498e-05
2.42982e-18
4.62498e-05
-1.31629e-16
4.62498e-05
2.57006e-16
4.62498e-05
-4.204e-16
4.62498e-05
3.40681e-16
4.62498e-05
-5.0027e-16
4.62498e-05
-7.23201e-15
5.60916e-16
4.87499e-05
4.87499e-05
4.87499e-05
4.87499e-05
4.87499e-05
4.87499e-05
4.87499e-05
4.87499e-05
4.87499e-05
4.87499e-05
4.87499e-05
4.87499e-05
4.87499e-05
4.87499e-05
4.87499e-05
4.87499e-05
4.87499e-05
4.87499e-05
4.87499e-05
)
;

boundaryField
{
    top
    {
        type            calculated;
        value           uniform 0;
    }
    bottom
    {
        type            calculated;
        value           uniform 0;
    }
    inlet
    {
        type            calculated;
        value           nonuniform List<scalar> 
20
(
-1.24995e-06
-3.74984e-06
-6.24974e-06
-8.74965e-06
-1.12496e-05
-1.37495e-05
-1.62494e-05
-1.87494e-05
-2.12493e-05
-2.37493e-05
-2.62493e-05
-2.87493e-05
-3.12494e-05
-3.37494e-05
-3.62495e-05
-3.87496e-05
-4.12496e-05
-4.37497e-05
-4.62498e-05
-4.87499e-05
)
;
    }
    outlet
    {
        type            calculated;
        value           nonuniform List<scalar> 
20
(
1.24995e-06
3.74984e-06
6.24974e-06
8.74965e-06
1.12496e-05
1.37495e-05
1.62494e-05
1.87494e-05
2.12493e-05
2.37493e-05
2.62493e-05
2.87493e-05
3.12494e-05
3.37494e-05
3.62495e-05
3.87496e-05
4.12496e-05
4.37497e-05
4.62498e-05
4.87499e-05
)
;
    }
    frontAndBack
    {
        type            empty;
        value           nonuniform 0();
    }
}


// ************************************************************************* //
