/*--------------------------------*- C++ -*----------------------------------*\
| =========                 |                                                 |
| \\      /  F ield         | OpenFOAM: The Open Source CFD Toolbox           |
|  \\    /   O peration     | Version:  4.1                                   |
|   \\  /    A nd           | Web:      www.OpenFOAM.org                      |
|    \\/     M anipulation  |                                                 |
\*---------------------------------------------------------------------------*/
FoamFile
{
    version     2.0;
    format      ascii;
    class       volVectorField;
    location    "1.7";
    object      U;
}
// * * * * * * * * * * * * * * * * * * * * * * * * * * * * * * * * * * * * * //

dimensions      [0 1 -1 0 0 0 0];

internalField   nonuniform List<vector> 
400
(
(0.0249989 -2.00484e-11 0)
(0.0249989 -1.2372e-11 0)
(0.0249989 4.32346e-13 0)
(0.0249989 -1.06464e-12 0)
(0.0249989 7.43966e-13 0)
(0.0249989 -6.23302e-13 0)
(0.0249989 4.9557e-13 0)
(0.0249989 -3.89862e-13 0)
(0.0249989 2.96044e-13 0)
(0.0249989 -2.12393e-13 0)
(0.0249989 1.36151e-13 0)
(0.0249989 -6.50207e-14 0)
(0.0249989 -3.09253e-15 0)
(0.0249989 6.98938e-14 0)
(0.0249989 -1.39294e-13 0)
(0.0249989 1.99868e-13 0)
(0.0249989 -3.67821e-13 0)
(0.0249989 4.81723e-13 0)
(0.0249989 -6.95216e-12 0)
(0.0249989 -1.14699e-11 0)
(0.0749968 -8.46612e-11 0)
(0.0749968 -6.21866e-11 0)
(0.0749968 -2.66348e-13 0)
(0.0749968 -3.61546e-12 0)
(0.0749968 2.26201e-12 0)
(0.0749968 -1.93881e-12 0)
(0.0749968 1.53123e-12 0)
(0.0749968 -1.20588e-12 0)
(0.0749968 9.14764e-13 0)
(0.0749968 -6.55533e-13 0)
(0.0749968 4.19133e-13 0)
(0.0749968 -1.985e-13 0)
(0.0749968 -1.28936e-14 0)
(0.0749968 2.19725e-13 0)
(0.0749968 -4.39467e-13 0)
(0.0749968 6.06634e-13 0)
(0.0749968 -1.34024e-12 0)
(0.0749968 1.96391e-12 0)
(0.0749968 -3.79016e-11 0)
(0.0749968 -5.26269e-11 0)
(0.124995 -1.8801e-10 0)
(0.124995 -1.55673e-10 0)
(0.124995 -4.80127e-12 0)
(0.124995 -6.63585e-12 0)
(0.124995 3.4909e-12 0)
(0.124995 -3.11671e-12 0)
(0.124995 2.435e-12 0)
(0.124995 -1.92114e-12 0)
(0.124995 1.45529e-12 0)
(0.124995 -1.04132e-12 0)
(0.124995 6.635e-13 0)
(0.124995 -3.10635e-13 0)
(0.124995 -2.775e-14 0)
(0.124995 3.57724e-13 0)
(0.124995 -7.20301e-13 0)
(0.124995 9.30308e-13 0)
(0.124995 -2.68214e-12 0)
(0.124995 3.84168e-12 0)
(0.124995 -9.97922e-11 0)
(0.124995 -1.24677e-10 0)
(0.174993 -3.04273e-10 0)
(0.174993 -2.70316e-10 0)
(0.174993 -1.23081e-11 0)
(0.174993 -9.33875e-12 0)
(0.174993 4.05367e-12 0)
(0.174993 -3.81181e-12 0)
(0.174993 2.93813e-12 0)
(0.174993 -2.32358e-12 0)
(0.174993 1.75702e-12 0)
(0.174993 -1.25485e-12 0)
(0.174993 7.9604e-13 0)
(0.174993 -3.67157e-13 0)
(0.174993 -4.45904e-14 0)
(0.174993 4.4433e-13 0)
(0.174993 -9.0173e-13 0)
(0.174993 1.07368e-12 0)
(0.174993 -4.07404e-12 0)
(0.174993 5.96893e-12 0)
(0.174993 -1.80324e-10 0)
(0.174993 -2.12805e-10 0)
(0.224991 -4.14862e-10 0)
(0.224991 -3.8638e-10 0)
(0.224991 -2.1623e-11 0)
(0.224991 -1.1539e-11 0)
(0.224991 4.00027e-12 0)
(0.224991 -4.03858e-12 0)
(0.224991 3.05856e-12 0)
(0.224991 -2.42657e-12 0)
(0.224991 1.8307e-12 0)
(0.224991 -1.30438e-12 0)
(0.224991 8.22845e-13 0)
(0.224991 -3.72247e-13 0)
(0.224991 -6.09264e-14 0)
(0.224991 4.79001e-13 0)
(0.224991 -9.82084e-13 0)
(0.224991 1.04988e-12 0)
(0.224991 -5.39617e-12 0)
(0.224991 8.03338e-12 0)
(0.224991 -2.67409e-10 0)
(0.224991 -3.04551e-10 0)
(0.27499 -5.06701e-10 0)
(0.27499 -4.88599e-10 0)
(0.27499 -3.13571e-11 0)
(0.27499 -1.3137e-11 0)
(0.27499 3.47263e-12 0)
(0.27499 -3.88179e-12 0)
(0.27499 2.87084e-12 0)
(0.27499 -2.28782e-12 0)
(0.27499 1.72071e-12 0)
(0.27499 -1.22217e-12 0)
(0.27499 7.65232e-13 0)
(0.27499 -3.37091e-13 0)
(0.27499 -7.51747e-14 0)
(0.27499 4.69849e-13 0)
(0.27499 -9.76355e-13 0)
(0.27499 8.97418e-13 0)
(0.27499 -6.55097e-12 0)
(0.27499 9.94424e-12 0)
(0.27499 -3.50752e-10 0)
(0.27499 -3.89929e-10 0)
(0.324988 -5.70871e-10 0)
(0.324988 -5.66216e-10 0)
(0.324988 -4.03483e-11 0)
(0.324988 -1.40475e-11 0)
(0.324988 2.58897e-12 0)
(0.324988 -3.41133e-12 0)
(0.324988 2.4367e-12 0)
(0.324988 -1.95508e-12 0)
(0.324988 1.46378e-12 0)
(0.324988 -1.03493e-12 0)
(0.324988 6.40833e-13 0)
(0.324988 -2.70919e-13 0)
(0.324988 -8.60831e-14 0)
(0.324988 4.23698e-13 0)
(0.324988 -8.97082e-13 0)
(0.324988 6.47342e-13 0)
(0.324988 -7.45438e-12 0)
(0.324988 1.15559e-11 0)
(0.324988 -4.21981e-10 0)
(0.324988 -4.60756e-10 0)
(0.374988 -6.01721e-10 0)
(0.374988 -6.11985e-10 0)
(0.374988 -4.76091e-11 0)
(0.374988 -1.42002e-11 0)
(0.374988 1.45444e-12 0)
(0.374988 -2.68883e-12 0)
(0.374988 1.81075e-12 0)
(0.374988 -1.47048e-12 0)
(0.374988 1.09229e-12 0)
(0.374988 -7.66147e-13 0)
(0.374988 4.65118e-13 0)
(0.374988 -1.81744e-13 0)
(0.374988 -9.27389e-14 0)
(0.374988 3.46842e-13 0)
(0.374988 -7.55728e-13 0)
(0.374988 3.27136e-13 0)
(0.374988 -8.03169e-12 0)
(0.374988 1.27229e-11 0)
(0.374988 -4.74468e-10 0)
(0.374988 -5.10565e-10 0)
(0.424987 -5.97304e-10 0)
(0.424987 -6.22545e-10 0)
(0.424987 -5.24115e-11 0)
(0.424987 -1.35753e-11 0)
(0.424987 1.72238e-13 0)
(0.424987 -1.77941e-12 0)
(0.424987 1.04936e-12 0)
(0.424987 -8.77643e-13 0)
(0.424987 6.39666e-13 0)
(0.424987 -4.39991e-13 0)
(0.424987 2.53865e-13 0)
(0.424987 -7.7526e-14 0)
(0.424987 -9.46376e-14 0)
(0.424987 2.46287e-13 0)
(0.424987 -5.65305e-13 0)
(0.424987 -3.5951e-14 0)
(0.424987 -8.23251e-12 0)
(0.424987 1.33129e-11 0)
(0.424987 -5.03748e-10 0)
(0.424987 -5.35109e-10 0)
(0.474987 -5.59262e-10 0)
(0.474987 -5.98352e-10 0)
(0.474987 -5.43471e-11 0)
(0.474987 -1.22136e-11 0)
(0.474987 -1.15779e-12 0)
(0.474987 -7.52146e-13 0)
(0.474987 2.10711e-13 0)
(0.474987 -2.21805e-13 0)
(0.474987 1.40455e-13 0)
(0.474987 -8.1342e-14 0)
(0.474987 2.31611e-14 0)
(0.474987 3.38278e-14 0)
(0.474987 -9.17011e-14 0)
(0.474987 1.29807e-13 0)
(0.474987 -3.40511e-13 0)
(0.474987 -4.14807e-13 0)
(0.474987 -8.03662e-12 0)
(0.474987 1.32327e-11 0)
(0.474987 -5.0777e-10 0)
(0.474987 -5.32654e-10 0)
(0.524987 -4.92506e-10 0)
(0.524987 -5.4341e-10 0)
(0.524987 -5.33547e-11 0)
(0.524987 -1.02188e-11 0)
(0.524987 -2.44253e-12 0)
(0.524987 3.21579e-13 0)
(0.524987 -6.46688e-13 0)
(0.524987 4.51378e-13 0)
(0.524987 -3.70595e-13 0)
(0.524987 2.84864e-13 0)
(0.524987 -2.10996e-13 0)
(0.524987 1.44664e-13 0)
(0.524987 -8.42753e-14 0)
(0.524987 5.71975e-15 0)
(0.524987 -9.73257e-14 0)
(0.524987 -7.83079e-13 0)
(0.524987 -7.45685e-12 0)
(0.524987 1.24481e-11 0)
(0.524987 -4.86932e-10 0)
(0.524987 -5.04015e-10 0)
(0.574987 -4.04577e-10 0)
(0.574987 -4.64631e-10 0)
(0.574987 -4.97071e-11 0)
(0.574987 -7.75387e-12 0)
(0.574987 -3.59722e-12 0)
(0.574987 1.36905e-12 0)
(0.574987 -1.46495e-12 0)
(0.574987 1.0965e-12 0)
(0.574987 -8.59055e-13 0)
(0.574987 6.34e-13 0)
(0.574987 -4.32921e-13 0)
(0.574987 2.47676e-13 0)
(0.574987 -7.31084e-14 0)
(0.574987 -1.17279e-13 0)
(0.574987 1.47291e-13 0)
(0.574987 -1.11548e-12 0)
(0.574987 -6.5393e-12 0)
(0.574987 1.1001e-11 0)
(0.574987 -4.43905e-10 0)
(0.574987 -4.52399e-10 0)
(0.624988 -3.04927e-10 0)
(0.624988 -3.71081e-10 0)
(0.624988 -4.39546e-11 0)
(0.624988 -5.0322e-12 0)
(0.624988 -4.54585e-12 0)
(0.624988 2.31701e-12 0)
(0.624988 -2.18739e-12 0)
(0.624988 1.66883e-12 0)
(0.624988 -1.2911e-12 0)
(0.624988 9.4195e-13 0)
(0.624988 -6.27379e-13 0)
(0.624988 3.35945e-13 0)
(0.624988 -5.92742e-14 0)
(0.624988 -2.3027e-13 0)
(0.624988 3.75717e-13 0)
(0.624988 -1.38807e-12 0)
(0.624988 -5.36126e-12 0)
(0.624988 9.01585e-12 0)
(0.624988 -3.83339e-10 0)
(0.624988 -3.83099e-10 0)
(0.674988 -2.03903e-10 0)
(0.674988 -2.72902e-10 0)
(0.674988 -3.68386e-11 0)
(0.674988 -2.30267e-12 0)
(0.674988 -5.22109e-12 0)
(0.674988 3.09283e-12 0)
(0.674988 -2.75926e-12 0)
(0.674988 2.12497e-12 0)
(0.674988 -1.63402e-12 0)
(0.674988 1.18546e-12 0)
(0.674988 -7.79767e-13 0)
(0.674988 4.02969e-13 0)
(0.674988 -4.40923e-14 0)
(0.674988 -3.24317e-13 0)
(0.674988 5.7005e-13 0)
(0.674988 -1.57869e-12 0)
(0.674988 -4.02642e-12 0)
(0.674988 6.69564e-12 0)
(0.674988 -3.11343e-10 0)
(0.674988 -3.02963e-10 0)
(0.72499 -1.11812e-10 0)
(0.72499 -1.80298e-10 0)
(0.72499 -2.91725e-11 0)
(0.72499 1.70402e-13 0)
(0.72499 -5.56431e-12 0)
(0.72499 3.62651e-12 0)
(0.72499 -3.12908e-12 0)
(0.72499 2.42383e-12 0)
(0.72499 -1.85697e-12 0)
(0.72499 1.34264e-12 0)
(0.72499 -8.76413e-13 0)
(0.72499 4.42776e-13 0)
(0.72499 -2.90159e-14 0)
(0.72499 -3.90793e-13 0)
(0.72499 7.12737e-13 0)
(0.72499 -1.6678e-12 0)
(0.72499 -2.65734e-12 0)
(0.72499 4.30119e-12 0)
(0.72499 -2.34958e-10 0)
(0.72499 -2.19822e-10 0)
(0.774991 -3.76179e-11 0)
(0.774991 -1.02117e-10 0)
(0.774991 -2.17151e-11 0)
(0.774991 2.12645e-12 0)
(0.774991 -5.52266e-12 0)
(0.774991 3.85058e-12 0)
(0.774991 -3.24813e-12 0)
(0.774991 2.52634e-12 0)
(0.774991 -1.93064e-12 0)
(0.774991 1.39273e-12 0)
(0.774991 -9.04379e-13 0)
(0.774991 4.49765e-13 0)
(0.774991 -1.55043e-14 0)
(0.774991 -4.21487e-13 0)
(0.774991 7.86776e-13 0)
(0.774991 -1.63868e-12 0)
(0.774991 -1.38686e-12 0)
(0.774991 2.12021e-12 0)
(0.774991 -1.61318e-10 0)
(0.774991 -1.41613e-10 0)
(0.824993 1.1729e-11 0)
(0.824993 -4.48991e-11 0)
(0.824993 -1.50067e-11 0)
(0.824993 3.31281e-12 0)
(0.824993 -5.03154e-12 0)
(0.824993 3.68916e-12 0)
(0.824993 -3.06107e-12 0)
(0.824993 2.38818e-12 0)
(0.824993 -1.82173e-12 0)
(0.824993 1.31205e-12 0)
(0.824993 -8.48817e-13 0)
(0.824993 4.17351e-13 0)
(0.824993 -4.91e-15 0)
(0.824993 -4.07486e-13 0)
(0.824993 7.73507e-13 0)
(0.824993 -1.47387e-12 0)
(0.824993 -3.5206e-13 0)
(0.824993 4.32073e-13 0)
(0.824993 -9.70262e-11 0)
(0.824993 -7.57724e-11 0)
(0.874995 3.31437e-11 0)
(0.874995 -1.08792e-11 0)
(0.874995 -9.2883e-12 0)
(0.874995 3.47404e-12 0)
(0.874995 -4.00662e-12 0)
(0.874995 3.05063e-12 0)
(0.874995 -2.50023e-12 0)
(0.874995 1.95527e-12 0)
(0.874995 -1.48951e-12 0)
(0.874995 1.07157e-12 0)
(0.874995 -6.91403e-13 0)
(0.874995 3.37188e-13 0)
(0.874995 1.55683e-15 0)
(0.874995 -3.38502e-13 0)
(0.874995 6.51063e-13 0)
(0.874995 -1.15525e-12 0)
(0.874995 2.99976e-13 0)
(0.874995 -5.62249e-13 0)
(0.874995 -4.71483e-11 0)
(0.874995 -2.81953e-11 0)
(0.924997 2.86319e-11 0)
(0.924997 2.17097e-12 0)
(0.924997 -4.54458e-12 0)
(0.924997 2.51975e-12 0)
(0.924997 -2.4412e-12 0)
(0.924997 1.91546e-12 0)
(0.924997 -1.55485e-12 0)
(0.924997 1.21829e-12 0)
(0.924997 -9.27192e-13 0)
(0.924997 6.66528e-13 0)
(0.924997 -4.29271e-13 0)
(0.924997 2.08155e-13 0)
(0.924997 3.36095e-15 0)
(0.924997 -2.12858e-13 0)
(0.924997 4.13857e-13 0)
(0.924997 -6.91321e-13 0)
(0.924997 4.72513e-13 0)
(0.924997 -7.12118e-13 0)
(0.924997 -1.52203e-11 0)
(0.924997 -2.72751e-12 0)
(0.974999 1.06739e-11 0)
(0.974999 2.32891e-12 0)
(0.974999 -1.24754e-12 0)
(0.974999 8.72944e-13 0)
(0.974999 -7.75945e-13 0)
(0.974999 6.19013e-13 0)
(0.974999 -4.99593e-13 0)
(0.974999 3.91957e-13 0)
(0.974999 -2.98144e-13 0)
(0.974999 2.14256e-13 0)
(0.974999 -1.37864e-13 0)
(0.974999 6.66578e-14 0)
(0.974999 1.47735e-15 0)
(0.974999 -6.87525e-14 0)
(0.974999 1.34694e-13 0)
(0.974999 -2.16841e-13 0)
(0.974999 2.05556e-13 0)
(0.974999 -3.36086e-13 0)
(0.974999 -1.98882e-12 0)
(0.974999 2.20798e-12 0)
)
;

boundaryField
{
    top
    {
        type            fixedValue;
        value           uniform (1 0 0);
    }
    bottom
    {
        type            fixedValue;
        value           uniform (0 0 0);
    }
    inlet
    {
        type            zeroGradient;
    }
    outlet
    {
        type            zeroGradient;
    }
    frontAndBack
    {
        type            empty;
    }
}


// ************************************************************************* //
