/*--------------------------------*- C++ -*----------------------------------*\
| =========                 |                                                 |
| \\      /  F ield         | OpenFOAM: The Open Source CFD Toolbox           |
|  \\    /   O peration     | Version:  4.1                                   |
|   \\  /    A nd           | Web:      www.OpenFOAM.org                      |
|    \\/     M anipulation  |                                                 |
\*---------------------------------------------------------------------------*/
FoamFile
{
    version     2.0;
    format      ascii;
    class       surfaceScalarField;
    location    "1.3";
    object      phi;
}
// * * * * * * * * * * * * * * * * * * * * * * * * * * * * * * * * * * * * * //

dimensions      [0 3 -1 0 0 0 0];

internalField   nonuniform List<scalar> 
760
(
-1.91635e-05
-1.34314e-12
-1.91635e-05
1.0061e-12
-1.91635e-05
-6.45861e-12
-1.91635e-05
-2.9872e-12
-1.91635e-05
-1.20737e-11
-1.91635e-05
-5.22347e-12
-1.91635e-05
-1.57487e-11
-1.91635e-05
-6.51639e-12
-1.91635e-05
-1.73778e-11
-1.91635e-05
-7.12905e-12
-1.91635e-05
-1.72657e-11
-1.91635e-05
-7.1756e-12
-1.91635e-05
-1.5532e-11
-1.91635e-05
-6.80375e-12
-1.91635e-05
-1.23998e-11
-1.91635e-05
-6.12528e-12
-1.91635e-05
-8.45188e-12
-1.91635e-05
-4.98223e-12
-1.91635e-05
-4.71955e-12
-2.53085e-12
-5.11576e-05
-2.33162e-12
-5.11576e-05
1.60413e-12
-5.11577e-05
-1.33783e-11
-5.11577e-05
-1.01929e-11
-5.11577e-05
-2.6588e-11
-5.11577e-05
-1.64356e-11
-5.11577e-05
-3.44754e-11
-5.11577e-05
-1.96896e-11
-5.11577e-05
-3.78101e-11
-5.11577e-05
-2.08521e-11
-5.11577e-05
-3.7394e-11
-5.11577e-05
-2.02806e-11
-5.11577e-05
-3.35741e-11
-5.11577e-05
-1.83649e-11
-5.11577e-05
-2.68137e-11
-5.11577e-05
-1.54772e-11
-5.11577e-05
-1.8189e-11
-5.11577e-05
-1.2235e-11
-5.11577e-05
-9.93171e-12
-3.74798e-12
-7.6819e-05
-2.44266e-12
-7.6819e-05
2.51192e-12
-7.68191e-05
-2.01695e-11
-7.68191e-05
-2.00063e-11
-7.68191e-05
-4.2251e-11
-7.68191e-05
-3.14158e-11
-7.68191e-05
-5.44516e-11
-7.68191e-05
-3.70395e-11
-7.68191e-05
-5.93864e-11
-7.68191e-05
-3.86732e-11
-7.68191e-05
-5.84801e-11
-7.68191e-05
-3.70265e-11
-7.68191e-05
-5.23469e-11
-7.68191e-05
-3.2794e-11
-7.68191e-05
-4.17569e-11
-7.68191e-05
-2.67078e-11
-7.68191e-05
-2.81405e-11
-7.68191e-05
-2.08838e-11
-7.68191e-05
-1.41948e-11
-3.5383e-12
-9.61477e-05
-1.29318e-12
-9.61477e-05
3.81596e-12
-9.61477e-05
-2.655e-11
-9.61477e-05
-3.17666e-11
-9.61477e-05
-5.8106e-11
-9.61477e-05
-4.92147e-11
-9.61477e-05
-7.45751e-11
-9.61477e-05
-5.75342e-11
-9.61477e-05
-8.10262e-11
-9.61477e-05
-5.9612e-11
-9.61477e-05
-7.95652e-11
-9.61477e-05
-5.65626e-11
-9.61477e-05
-7.10962e-11
-9.61477e-05
-4.94314e-11
-9.61477e-05
-5.67232e-11
-9.61477e-05
-3.93562e-11
-9.61477e-05
-3.81253e-11
-9.61477e-05
-3.0471e-11
-9.61477e-05
-1.71989e-11
-2.0068e-12
-0.000109144
1.4542e-12
-0.000109144
6.60815e-12
-0.000109144
-3.14158e-11
-0.000109144
-4.277e-11
-0.000109144
-7.18293e-11
-0.000109144
-6.60323e-11
-0.000109144
-9.19806e-11
-0.000109144
-7.68839e-11
-0.000109144
-9.96663e-11
-0.000109144
-7.93352e-11
-0.000109144
-9.76628e-11
-0.000109144
-7.49037e-11
-0.000109144
-8.71454e-11
-0.000109144
-6.49658e-11
-0.000109144
-6.95217e-11
-0.000109144
-5.10246e-11
-0.000109144
-4.66059e-11
-0.000109144
-3.9417e-11
-0.000109144
-1.80619e-11
1.11436e-12
-0.000115807
5.44018e-12
-0.000115807
1.05298e-11
-0.000115807
-3.49464e-11
-0.000115807
-5.25965e-11
-0.000115807
-8.31708e-11
-0.000115807
-8.11875e-11
-0.000115807
-1.06334e-10
-0.000115807
-9.43281e-11
-0.000115807
-1.14965e-10
-0.000115807
-9.71011e-11
-0.000115807
-1.12456e-10
-0.000115807
-9.13946e-11
-0.000115807
-1.00223e-10
-0.000115807
-7.88826e-11
-0.000115807
-7.99412e-11
-0.000115807
-6.13754e-11
-0.000115807
-5.34574e-11
-0.000115807
-4.74061e-11
-0.000115807
-1.69285e-11
5.47541e-12
-0.000116137
1.01127e-11
-0.000116137
1.51126e-11
-0.000116137
-3.73032e-11
-0.000116137
-6.0799e-11
-0.000116137
-9.18655e-11
-0.000116137
-9.39191e-11
-0.000116137
-1.17256e-10
-0.000116137
-1.0899e-10
-0.000116137
-1.26507e-10
-0.000116137
-1.12027e-10
-0.000116137
-1.23531e-10
-0.000116137
-1.0523e-10
-0.000116137
-1.09952e-10
-0.000116137
-9.05211e-11
-0.000116137
-8.76599e-11
-0.000116137
-6.9946e-11
-0.000116137
-5.84447e-11
-0.000116137
-5.40679e-11
-0.000116137
-1.40791e-11
1.06572e-11
-0.000110135
1.47775e-11
-0.000110135
1.96617e-11
-0.000110135
-3.87267e-11
-0.000110135
-6.72065e-11
-0.000110135
-9.78701e-11
-0.000110135
-1.03849e-10
-0.000110135
-1.24647e-10
-0.000110135
-1.20422e-10
-0.000110135
-1.34181e-10
-0.000110135
-1.23657e-10
-0.000110135
-1.30781e-10
-0.000110135
-1.15991e-10
-0.000110135
-1.1623e-10
-0.000110135
-9.95366e-11
-0.000110135
-9.25878e-11
-0.000110135
-7.64986e-11
-0.000110135
-6.15031e-11
-0.000110135
-5.91674e-11
-0.000110135
-1.00516e-11
1.60808e-11
-9.78006e-05
1.87293e-11
-9.78006e-05
2.34431e-11
-9.78006e-05
-3.94189e-11
-9.78006e-05
-7.17413e-11
-9.78006e-05
-1.01198e-10
-9.78006e-05
-1.10747e-10
-9.78006e-05
-1.28499e-10
-9.78006e-05
-1.2834e-10
-9.78006e-05
-1.37987e-10
-9.78007e-05
-1.31701e-10
-9.78006e-05
-1.34211e-10
-9.78007e-05
-1.23408e-10
-9.78006e-05
-1.19069e-10
-9.78006e-05
-1.05704e-10
-9.78006e-05
-9.47339e-11
-9.78006e-05
-8.08791e-11
-9.78006e-05
-6.2651e-11
-9.78006e-05
-6.25494e-11
-9.78007e-05
-5.50417e-12
2.11031e-11
-7.91333e-05
2.13537e-11
-7.91333e-05
2.57941e-11
-7.91333e-05
-3.9512e-11
-7.91333e-05
-7.43446e-11
-7.91333e-05
-1.01866e-10
-7.91333e-05
-1.14443e-10
-7.91333e-05
-1.28831e-10
-7.91333e-05
-1.32536e-10
-7.91333e-05
-1.3796e-10
-7.91333e-05
-1.35938e-10
-7.91333e-05
-1.33874e-10
-7.91333e-05
-1.27275e-10
-7.91333e-05
-1.18528e-10
-7.91333e-05
-1.08851e-10
-7.91333e-05
-9.41516e-11
-7.91333e-05
-8.29694e-11
-7.91333e-05
-6.19519e-11
-7.91333e-05
-6.40851e-11
-7.91333e-05
-1.09729e-12
2.50923e-11
-5.41333e-05
2.22097e-11
-5.41333e-05
2.62114e-11
-5.41333e-05
-3.90823e-11
-5.41333e-05
-7.49753e-11
-5.41333e-05
-9.99113e-11
-5.41333e-05
-1.14839e-10
-5.41333e-05
-1.25711e-10
-5.41333e-05
-1.32889e-10
-5.41333e-05
-1.34197e-10
-5.41333e-05
-1.36242e-10
-5.41333e-05
-1.29888e-10
-5.41333e-05
-1.27472e-10
-5.41333e-05
-1.1473e-10
-5.41333e-05
-1.08877e-10
-5.41333e-05
-9.09531e-11
-5.41333e-05
-8.2705e-11
-5.41333e-05
-5.95205e-11
-5.41333e-05
-6.3687e-11
-5.41333e-05
2.60199e-12
2.75097e-11
-2.28007e-05
2.10924e-11
-2.28007e-05
2.44333e-11
-2.28006e-05
-3.8154e-11
-2.28006e-05
-7.36019e-11
-2.28006e-05
-9.54051e-11
-2.28006e-05
-1.11905e-10
-2.28006e-05
-1.19268e-10
-2.28006e-05
-1.29363e-10
-2.28006e-05
-1.26869e-10
-2.28006e-05
-1.32577e-10
-2.28006e-05
-1.22444e-10
-2.28006e-05
-1.23965e-10
-2.28006e-05
-1.07865e-10
-2.28006e-05
-1.0576e-10
-2.28006e-05
-8.53053e-11
-2.28006e-05
-8.00788e-11
-2.28006e-05
-5.55122e-11
-2.28006e-05
-6.13232e-11
-2.28006e-05
5.19984e-12
2.7987e-11
1.48646e-05
1.80834e-11
1.48646e-05
2.0516e-11
1.48646e-05
-3.66936e-11
1.48646e-05
-7.01966e-11
1.48646e-05
-8.84512e-11
1.48646e-05
-1.05674e-10
1.48646e-05
-1.09694e-10
1.48646e-05
-1.2201e-10
1.48646e-05
-1.16211e-10
1.48646e-05
-1.24994e-10
1.48646e-05
-1.11797e-10
1.48646e-05
-1.16808e-10
1.48646e-05
-9.81813e-11
1.48646e-05
-9.95507e-11
1.48646e-05
-7.74209e-11
1.48646e-05
-7.51398e-11
1.48646e-05
-5.01061e-11
1.48646e-05
-5.70323e-11
1.48646e-05
6.53289e-12
2.63998e-11
5.88625e-05
1.35586e-11
5.88625e-05
1.48878e-11
5.88625e-05
-3.45759e-11
5.88625e-05
-6.4712e-11
5.88625e-05
-7.91643e-11
5.88625e-05
-9.62165e-11
5.88625e-05
-9.72143e-11
5.88625e-05
-1.10928e-10
5.88625e-05
-1.02498e-10
5.88625e-05
-1.13601e-10
5.88625e-05
-9.82336e-11
5.88625e-05
-1.06108e-10
5.88625e-05
-8.59494e-11
5.88625e-05
-9.03479e-11
5.88625e-05
-6.75298e-11
5.88625e-05
-6.79726e-11
5.88625e-05
-4.34733e-11
5.88625e-05
-5.09289e-11
5.88625e-05
6.67991e-12
2.29146e-11
0.000109193
8.17148e-12
0.000109193
8.33524e-12
0.000109193
-3.16092e-11
0.000109193
-5.71322e-11
0.000109193
-6.7725e-11
0.000109193
-8.36998e-11
0.000109193
-8.21532e-11
0.000109193
-9.63339e-11
0.000109193
-8.61057e-11
0.000109193
-9.86214e-11
0.000109193
-8.21374e-11
0.000109193
-9.20751e-11
0.000109193
-7.1523e-11
0.000109193
-7.83347e-11
0.000109193
-5.59245e-11
0.000109193
-5.87248e-11
0.000109193
-3.58013e-11
0.000109193
-4.32292e-11
0.000109193
5.93619e-12
1.80033e-11
0.000165856
2.73076e-12
0.000165856
1.87861e-12
0.000165856
-2.76136e-11
0.000165856
-4.76071e-11
0.000165856
-5.45226e-11
0.000165856
-6.85362e-11
0.000165856
-6.51108e-11
0.000165856
-7.87202e-11
0.000165856
-6.77095e-11
0.000165856
-8.05557e-11
0.000165856
-6.41823e-11
0.000165856
-7.51735e-11
0.000165856
-5.55174e-11
0.000165856
-6.39012e-11
0.000165856
-4.31083e-11
0.000165856
-4.77012e-11
0.000165856
-2.73942e-11
0.000165856
-3.43295e-11
0.000165856
4.67095e-12
1.23857e-11
0.000228852
-1.62968e-12
0.000228852
-2.97702e-12
0.000228852
-2.20237e-11
0.000228852
-3.59776e-11
0.000228852
-3.95401e-11
0.000228852
-5.07821e-11
0.000228852
-4.62017e-11
0.000228852
-5.82005e-11
0.000228852
-4.74661e-11
0.000228852
-5.95338e-11
0.000228852
-4.45369e-11
0.000228852
-5.55317e-11
0.000228852
-3.80989e-11
0.000228852
-4.71639e-11
0.000228852
-2.92244e-11
0.000228852
-3.50123e-11
0.000228852
-1.82987e-11
0.000228852
-2.45187e-11
0.000228852
3.50158e-12
7.03519e-12
0.000298181
-4.36865e-12
0.000298181
-5.82309e-12
0.000298181
-1.58961e-11
0.000298181
-2.41169e-11
0.000298181
-2.53836e-11
0.000298181
-3.31872e-11
0.000298181
-2.88411e-11
0.000298181
-3.78909e-11
0.000298181
-2.91514e-11
0.000298181
-3.87105e-11
0.000298181
-2.69671e-11
0.000298181
-3.6067e-11
0.000298181
-2.27027e-11
0.000298181
-3.05788e-11
0.000298181
-1.70991e-11
0.000298181
-2.25329e-11
0.000298181
-1.04449e-11
0.000298181
-1.51967e-11
0.000298181
1.99621e-12
2.63365e-12
0.000373842
-4.16272e-12
0.000373842
-4.87711e-12
0.000373842
-8.20609e-12
0.000373842
-1.15684e-11
0.000373842
-1.14396e-11
0.000373842
-1.54503e-11
0.000373842
-1.24025e-11
0.000373842
-1.75682e-11
0.000373842
-1.21395e-11
0.000373842
-1.79233e-11
0.000373842
-1.08959e-11
0.000373842
-1.66783e-11
0.000373842
-8.84846e-12
0.000373842
-1.41161e-11
0.000373842
-6.35753e-12
0.000373842
-1.02912e-11
0.000373842
-3.58739e-12
0.000373842
-6.58331e-12
0.000373842
1.04253e-12
2.07422e-13
0.000455837
0.000455837
0.000455837
0.000455837
0.000455837
0.000455837
0.000455837
0.000455837
0.000455837
0.000455837
0.000455837
0.000455837
0.000455837
0.000455837
0.000455837
0.000455837
0.000455837
0.000455837
0.000455837
)
;

boundaryField
{
    top
    {
        type            calculated;
        value           uniform 0;
    }
    bottom
    {
        type            calculated;
        value           uniform 0;
    }
    inlet
    {
        type            calculated;
        value           nonuniform List<scalar> 
20
(
1.91635e-05
5.11576e-05
7.6819e-05
9.61477e-05
0.000109144
0.000115807
0.000116137
0.000110135
9.78006e-05
7.91333e-05
5.41333e-05
2.28007e-05
-1.48646e-05
-5.88625e-05
-0.000109193
-0.000165856
-0.000228852
-0.000298181
-0.000373842
-0.000455837
)
;
    }
    outlet
    {
        type            calculated;
        value           nonuniform List<scalar> 
20
(
-1.91635e-05
-5.11577e-05
-7.68191e-05
-9.61477e-05
-0.000109144
-0.000115807
-0.000116137
-0.000110135
-9.78007e-05
-7.91333e-05
-5.41333e-05
-2.28006e-05
1.48646e-05
5.88625e-05
0.000109193
0.000165856
0.000228852
0.000298181
0.000373842
0.000455837
)
;
    }
    frontAndBack
    {
        type            empty;
        value           nonuniform 0();
    }
}


// ************************************************************************* //
