/*--------------------------------*- C++ -*----------------------------------*\
| =========                 |                                                 |
| \\      /  F ield         | OpenFOAM: The Open Source CFD Toolbox           |
|  \\    /   O peration     | Version:  4.1                                   |
|   \\  /    A nd           | Web:      www.OpenFOAM.org                      |
|    \\/     M anipulation  |                                                 |
\*---------------------------------------------------------------------------*/
FoamFile
{
    version     2.0;
    format      ascii;
    class       volVectorField;
    location    "1.3";
    object      U;
}
// * * * * * * * * * * * * * * * * * * * * * * * * * * * * * * * * * * * * * //

dimensions      [0 1 -1 0 0 0 0];

internalField   nonuniform List<vector> 
400
(
(-0.38327 -7.91392e-10 0)
(-0.38327 3.87767e-10 0)
(-0.38327 -3.34206e-09 0)
(-0.38327 -1.37285e-09 0)
(-0.38327 -6.03226e-09 0)
(-0.38327 -2.39833e-09 0)
(-0.38327 -7.87078e-09 0)
(-0.38327 -3.02266e-09 0)
(-0.38327 -8.69847e-09 0)
(-0.38327 -3.34023e-09 0)
(-0.38327 -8.65342e-09 0)
(-0.38327 -3.39625e-09 0)
(-0.38327 -7.79813e-09 0)
(-0.38327 -3.25896e-09 0)
(-0.38327 -6.23175e-09 0)
(-0.38327 -2.97437e-09 0)
(-0.38327 -4.2628e-09 0)
(-0.38327 -2.40662e-09 0)
(-0.38327 -2.44883e-09 0)
(-0.38327 -1.42894e-09 0)
(-1.02315 -2.07394e-09 0)
(-1.02315 1.22219e-09 0)
(-1.02315 -1.00017e-08 0)
(-1.02315 -5.9939e-09 0)
(-1.02315 -1.90954e-08 0)
(-1.02315 -9.9333e-09 0)
(-1.02315 -2.48344e-08 0)
(-1.02315 -1.21054e-08 0)
(-1.02315 -2.73246e-08 0)
(-1.02315 -1.30076e-08 0)
(-1.02315 -2.70895e-08 0)
(-1.02315 -1.28513e-08 0)
(-1.02315 -2.43574e-08 0)
(-1.02315 -1.18888e-08 0)
(-1.02315 -1.94507e-08 0)
(-1.02315 -1.03378e-08 0)
(-1.02315 -1.32293e-08 0)
(-1.02315 -8.26762e-09 0)
(-1.02315 -7.45505e-09 0)
(-1.02315 -3.46566e-09 0)
(-1.53638 -2.70902e-09 0)
(-1.53638 1.80204e-09 0)
(-1.53638 -1.69385e-08 0)
(-1.53638 -1.47603e-08 0)
(-1.53638 -3.43886e-08 0)
(-1.53638 -2.34034e-08 0)
(-1.53638 -4.44389e-08 0)
(-1.53638 -2.77893e-08 0)
(-1.53638 -4.86007e-08 0)
(-1.53638 -2.92033e-08 0)
(-1.53638 -4.79629e-08 0)
(-1.53638 -2.81635e-08 0)
(-1.53638 -4.29987e-08 0)
(-1.53638 -2.52036e-08 0)
(-1.53638 -3.43212e-08 0)
(-1.53638 -2.08621e-08 0)
(-1.53638 -2.32107e-08 0)
(-1.53638 -1.63666e-08 0)
(-1.53638 -1.23552e-08 0)
(-1.53638 -4.03824e-09 0)
(-1.92295 -2.20005e-09 0)
(-1.92295 2.90723e-09 0)
(-1.92295 -2.35273e-08 0)
(-1.92295 -2.57466e-08 0)
(-1.92295 -5.03076e-08 0)
(-1.92295 -4.00946e-08 0)
(-1.92295 -6.46928e-08 0)
(-1.92295 -4.7044e-08 0)
(-1.92295 -7.0422e-08 0)
(-1.92295 -4.89091e-08 0)
(-1.92295 -6.92508e-08 0)
(-1.92295 -4.65947e-08 0)
(-1.92295 -6.19362e-08 0)
(-1.92295 -4.09677e-08 0)
(-1.92295 -4.94143e-08 0)
(-1.92295 -3.29605e-08 0)
(-1.92295 -3.32631e-08 0)
(-1.92295 -2.56175e-08 0)
(-1.92295 -1.60934e-08 0)
(-1.92295 -3.12003e-09 0)
(-2.18287 -2.20013e-10 0)
(-2.18287 4.96896e-09 0)
(-2.18287 -2.9194e-08 0)
(-2.18287 -3.73652e-08 0)
(-2.18287 -6.53113e-08 0)
(-2.18287 -5.77518e-08 0)
(-2.18287 -8.37246e-08 0)
(-2.18287 -6.73578e-08 0)
(-2.18287 -9.08423e-08 0)
(-2.18287 -6.96302e-08 0)
(-2.18287 -8.91098e-08 0)
(-2.18287 -6.5887e-08 0)
(-2.18287 -7.95698e-08 0)
(-2.18287 -5.73422e-08 0)
(-2.18287 -6.34824e-08 0)
(-2.18287 -4.53235e-08 0)
(-2.18287 -4.26148e-08 0)
(-2.18287 -3.50454e-08 0)
(-2.18287 -1.80696e-08 0)
(-2.18287 -7.41953e-10 0)
(-2.31614 3.24233e-09 0)
(-2.31614 8.38775e-09 0)
(-2.31614 -3.34103e-08 0)
(-2.31614 -4.79628e-08 0)
(-2.31614 -7.79927e-08 0)
(-2.31614 -7.40192e-08 0)
(-2.31614 -9.97951e-08 0)
(-2.31614 -8.60739e-08 0)
(-2.31614 -1.08015e-07 0)
(-2.31614 -8.86954e-08 0)
(-2.31614 -1.05751e-07 0)
(-2.31614 -8.35957e-08 0)
(-2.31614 -9.43079e-08 0)
(-2.31614 -7.23086e-08 0)
(-2.31614 -7.52333e-08 0)
(-2.31614 -5.65043e-08 0)
(-2.31614 -5.03779e-08 0)
(-2.31614 -4.36432e-08 0)
(-2.31614 -1.79027e-08 0)
(-2.31614 3.08014e-09 0)
(-2.32275 7.7268e-09 0)
(-2.32275 1.27921e-08 0)
(-2.32275 -3.63109e-08 0)
(-2.32275 -5.7033e-08 0)
(-2.32275 -8.80424e-08 0)
(-2.32275 -8.80708e-08 0)
(-2.32275 -1.1248e-07 0)
(-2.32275 -1.02253e-07 0)
(-2.32275 -1.21485e-07 0)
(-2.32275 -1.05167e-07 0)
(-2.32275 -1.18733e-07 0)
(-2.32275 -9.88731e-08 0)
(-2.32275 -1.05753e-07 0)
(-2.32275 -8.51793e-08 0)
(-2.32275 -8.43368e-08 0)
(-2.32275 -6.6029e-08 0)
(-2.32275 -5.63199e-08 0)
(-2.32275 -5.10261e-08 0)
(-2.32275 -1.57938e-08 0)
(-2.32275 7.98316e-09 0)
(-2.20271 1.25683e-08 0)
(-2.20271 1.75353e-08 0)
(-2.20271 -3.81541e-08 0)
(-2.20271 -6.43615e-08 0)
(-2.20271 -9.53982e-08 0)
(-2.20271 -9.94643e-08 0)
(-2.20271 -1.21651e-07 0)
(-2.20271 -1.15375e-07 0)
(-2.20271 -1.31108e-07 0)
(-2.20271 -1.18522e-07 0)
(-2.20271 -1.27909e-07 0)
(-2.20271 -1.11242e-07 0)
(-2.20271 -1.13768e-07 0)
(-2.20271 -9.55648e-08 0)
(-2.20271 -9.06694e-08 0)
(-2.20271 -7.36308e-08 0)
(-2.20271 -6.03472e-08 0)
(-2.20271 -5.69452e-08 0)
(-2.20271 -1.22021e-08 0)
(-2.20271 1.34387e-08 0)
(-1.95601 1.70402e-08 0)
(-1.95601 2.18735e-08 0)
(-1.95601 -3.91737e-08 0)
(-1.95601 -6.98421e-08 0)
(-1.95601 -1.00062e-07 0)
(-1.95601 -1.07917e-07 0)
(-1.95601 -1.27274e-07 0)
(-1.95601 -1.25098e-07 0)
(-1.95601 -1.36846e-07 0)
(-1.95601 -1.28409e-07 0)
(-1.95601 -1.33245e-07 0)
(-1.95601 -1.20379e-07 0)
(-1.95601 -1.18321e-07 0)
(-1.95601 -1.03196e-07 0)
(-1.95601 -9.42008e-08 0)
(-1.95601 -7.91247e-08 0)
(-1.95601 -6.24416e-08 0)
(-1.95601 -6.12141e-08 0)
(-1.95601 -7.75072e-09 0)
(-1.95601 1.88176e-08 0)
(-1.58267 2.046e-08 0)
(-1.58267 2.50846e-08 0)
(-1.58267 -3.95385e-08 0)
(-1.58267 -7.34143e-08 0)
(-1.58267 -1.02052e-07 0)
(-1.58267 -1.13237e-07 0)
(-1.58267 -1.29356e-07 0)
(-1.58267 -1.31185e-07 0)
(-1.58267 -1.38721e-07 0)
(-1.58267 -1.34581e-07 0)
(-1.58267 -1.34774e-07 0)
(-1.58267 -1.2605e-07 0)
(-1.58267 -1.19451e-07 0)
(-1.58267 -1.07878e-07 0)
(-1.58267 -9.49655e-08 0)
(-1.58267 -8.23775e-08 0)
(-1.58267 -6.26467e-08 0)
(-1.58267 -6.36939e-08 0)
(-1.58267 -3.12523e-09 0)
(-1.58267 2.3463e-08 0)
(-1.08267 2.22806e-08 0)
(-1.08267 2.65645e-08 0)
(-1.08267 -3.93527e-08 0)
(-1.08267 -7.50326e-08 0)
(-1.08267 -1.01396e-07 0)
(-1.08267 -1.15293e-07 0)
(-1.08267 -1.27942e-07 0)
(-1.08267 -1.33473e-07 0)
(-1.08267 -1.36801e-07 0)
(-1.08267 -1.36867e-07 0)
(-1.08267 -1.32583e-07 0)
(-1.08267 -1.28097e-07 0)
(-1.08267 -1.17251e-07 0)
(-1.08267 -1.09477e-07 0)
(-1.08267 -9.30488e-08 0)
(-1.08267 -8.32987e-08 0)
(-1.08267 -6.10547e-08 0)
(-1.08267 -6.42775e-08 0)
(-1.08267 1.03692e-09 0)
(-1.08267 2.67699e-08 0)
(-0.456013 2.21652e-08 0)
(-0.456013 2.59115e-08 0)
(-0.456013 -3.86677e-08 0)
(-0.456013 -7.46631e-08 0)
(-0.456013 -9.81475e-08 0)
(-0.456013 -1.14022e-07 0)
(-0.456013 -1.2313e-07 0)
(-0.456013 -1.31885e-07 0)
(-0.456013 -1.31218e-07 0)
(-0.456013 -1.35186e-07 0)
(-0.456013 -1.26827e-07 0)
(-0.456013 -1.26442e-07 0)
(-0.456013 -1.1188e-07 0)
(-0.456013 -1.07931e-07 0)
(-0.456013 -8.85915e-08 0)
(-0.456013 -8.18524e-08 0)
(-0.456013 -5.78033e-08 0)
(-0.456013 -6.29026e-08 0)
(-0.456013 4.23899e-09 0)
(-0.456013 2.82671e-08 0)
(0.297292 2.00454e-08 0)
(0.297292 2.30091e-08 0)
(0.297292 -3.7482e-08 0)
(0.297292 -7.22763e-08 0)
(0.297292 -9.23927e-08 0)
(0.297292 -1.09426e-07 0)
(0.297292 -1.15078e-07 0)
(0.297292 -1.26429e-07 0)
(0.297292 -1.22174e-07 0)
(0.297292 -1.29545e-07 0)
(0.297292 -1.17727e-07 0)
(0.297292 -1.21095e-07 0)
(0.297292 -1.03556e-07 0)
(0.297292 -1.03255e-07 0)
(0.297292 -8.17835e-08 0)
(0.297292 -7.80592e-08 0)
(0.297292 -5.30624e-08 0)
(0.297292 -5.95673e-08 0)
(0.297292 6.19555e-09 0)
(0.297292 2.76951e-08 0)
(1.17725 1.61521e-08 0)
(1.17725 1.80935e-08 0)
(1.17725 -3.57212e-08 0)
(1.17725 -6.78346e-08 0)
(1.17725 -8.42401e-08 0)
(1.17725 -1.01555e-07 0)
(1.17725 -1.03995e-07 0)
(1.17725 -1.17178e-07 0)
(1.17725 -1.09923e-07 0)
(1.17725 -1.20024e-07 0)
(1.17725 -1.05556e-07 0)
(1.17725 -1.12135e-07 0)
(1.17725 -9.25375e-08 0)
(1.17725 -9.55229e-08 0)
(1.17725 -7.28463e-08 0)
(1.17725 -7.19858e-08 0)
(1.17725 -4.70094e-08 0)
(1.17725 -5.43424e-08 0)
(1.17725 6.86896e-09 0)
(1.17725 2.50695e-08 0)
(2.18386 1.10096e-08 0)
(2.18386 1.17754e-08 0)
(2.18386 -3.32298e-08 0)
(2.18386 -6.1305e-08 0)
(2.18386 -7.38336e-08 0)
(2.18386 -9.05237e-08 0)
(2.18386 -9.01495e-08 0)
(2.18386 -1.04284e-07 0)
(2.18386 -9.47848e-08 0)
(2.18386 -1.06781e-07 0)
(2.18386 -9.0642e-08 0)
(2.18386 -9.97162e-08 0)
(2.18386 -7.91314e-08 0)
(2.18386 -8.48706e-08 0)
(2.18386 -6.2036e-08 0)
(2.18386 -6.37434e-08 0)
(2.18386 -3.98215e-08 0)
(2.18386 -4.73889e-08 0)
(2.18386 6.46238e-09 0)
(2.18386 2.07139e-08 0)
(3.31713 5.38541e-09 0)
(3.31713 5.01392e-09 0)
(3.31713 -2.97621e-08 0)
(3.31713 -5.26728e-08 0)
(3.31713 -6.13593e-08 0)
(3.31713 -7.65165e-08 0)
(3.31713 -7.38793e-08 0)
(3.31713 -8.79854e-08 0)
(3.31713 -7.71482e-08 0)
(3.31713 -9.00605e-08 0)
(3.31713 -7.33761e-08 0)
(3.31713 -8.40658e-08 0)
(3.31713 -6.36976e-08 0)
(3.31713 -7.14929e-08 0)
(3.31713 -4.96482e-08 0)
(3.31713 -5.34884e-08 0)
(3.31713 -3.16711e-08 0)
(3.31713 -3.89715e-08 0)
(3.31713 5.36291e-09 0)
(3.31713 1.52495e-08 0)
(4.57705 2.194e-10 0)
(4.57705 -9.71856e-10 0)
(4.57705 -2.50271e-08 0)
(4.57705 -4.20111e-08 0)
(4.57705 -4.71174e-08 0)
(4.57705 -5.9877e-08 0)
(4.57705 -5.56815e-08 0)
(4.57705 -6.87025e-08 0)
(4.57705 -5.75774e-08 0)
(4.57705 -7.0294e-08 0)
(4.57705 -5.4323e-08 0)
(4.57705 -6.55856e-08 0)
(4.57705 -4.67525e-08 0)
(4.57705 -5.57291e-08 0)
(4.57705 -3.61055e-08 0)
(4.57705 -4.14909e-08 0)
(4.57705 -2.27954e-08 0)
(4.57705 -2.9471e-08 0)
(4.57705 4.03686e-09 0)
(4.57705 9.52515e-09 0)
(5.96362 -3.64446e-09 0)
(5.96362 -5.18434e-09 0)
(5.96362 -1.92892e-08 0)
(5.96362 -3.02316e-08 0)
(5.96362 -3.24519e-08 0)
(5.96362 -4.20768e-08 0)
(5.96362 -3.73749e-08 0)
(5.96362 -4.81297e-08 0)
(5.96362 -3.80895e-08 0)
(5.96362 -4.92053e-08 0)
(5.96362 -3.54933e-08 0)
(5.96362 -4.58751e-08 0)
(5.96362 -3.01298e-08 0)
(5.96362 -3.89316e-08 0)
(5.96362 -2.29138e-08 0)
(5.96362 -2.87946e-08 0)
(5.96362 -1.41926e-08 0)
(5.96362 -1.97633e-08 0)
(5.96362 2.60705e-09 0)
(5.96362 4.41806e-09 0)
(7.47685 -4.94611e-09 0)
(7.47685 -6.1665e-09 0)
(7.47685 -1.23211e-08 0)
(7.47685 -1.78679e-08 0)
(7.47685 -1.81584e-08 0)
(7.47685 -2.41646e-08 0)
(7.47685 -2.01368e-08 0)
(7.47685 -2.75262e-08 0)
(7.47685 -2.00383e-08 0)
(7.47685 -2.81047e-08 0)
(7.47685 -1.82744e-08 0)
(7.47685 -2.61723e-08 0)
(7.47685 -1.51305e-08 0)
(7.47685 -2.21723e-08 0)
(7.47685 -1.11708e-08 0)
(7.47685 -1.62467e-08 0)
(7.47685 -6.63101e-09 0)
(7.47685 -1.06455e-08 0)
(7.47685 1.47152e-09 0)
(7.47685 9.65516e-10 0)
(9.11673 -2.42011e-09 0)
(9.11673 -2.87589e-09 0)
(9.11673 -4.34757e-09 0)
(9.11673 -5.91913e-09 0)
(9.11673 -5.76923e-09 0)
(9.11673 -7.81193e-09 0)
(9.11673 -6.1862e-09 0)
(9.11673 -8.8641e-09 0)
(9.11673 -6.01857e-09 0)
(9.11673 -9.03874e-09 0)
(9.11673 -5.37227e-09 0)
(9.11673 -8.40844e-09 0)
(9.11673 -4.33325e-09 0)
(9.11673 -7.11286e-09 0)
(9.11673 -3.09543e-09 0)
(9.11673 -5.17288e-09 0)
(9.11673 -1.74355e-09 0)
(9.11673 -3.24166e-09 0)
(9.11673 4.28943e-10 0)
(9.11673 -1.17872e-10 0)
)
;

boundaryField
{
    top
    {
        type            fixedValue;
        value           uniform (10 0 0);
    }
    bottom
    {
        type            fixedValue;
        value           uniform (0 0 0);
    }
    inlet
    {
        type            zeroGradient;
    }
    outlet
    {
        type            zeroGradient;
    }
    frontAndBack
    {
        type            empty;
    }
}


// ************************************************************************* //
