/*--------------------------------*- C++ -*----------------------------------*\
| =========                 |                                                 |
| \\      /  F ield         | OpenFOAM: The Open Source CFD Toolbox           |
|  \\    /   O peration     | Version:  4.1                                   |
|   \\  /    A nd           | Web:      www.OpenFOAM.org                      |
|    \\/     M anipulation  |                                                 |
\*---------------------------------------------------------------------------*/
FoamFile
{
    version     2.0;
    format      ascii;
    class       surfaceScalarField;
    location    "2.3";
    object      phi;
}
// * * * * * * * * * * * * * * * * * * * * * * * * * * * * * * * * * * * * * //

dimensions      [0 3 -1 0 0 0 0];

internalField   nonuniform List<scalar> 
760
(
-1.9164e-05
1.06591e-13
-1.9164e-05
1.29457e-12
-1.9164e-05
9.04586e-13
-1.9164e-05
3.05439e-12
-1.9164e-05
1.65315e-12
-1.9164e-05
4.32459e-12
-1.9164e-05
2.43918e-12
-1.9164e-05
4.95623e-12
-1.9164e-05
2.99402e-12
-1.9164e-05
5.0885e-12
-1.9164e-05
3.2333e-12
-1.9164e-05
4.73399e-12
-1.9164e-05
3.2015e-12
-1.9164e-05
3.95233e-12
-1.9164e-05
2.90079e-12
-1.9164e-05
2.88175e-12
-1.9164e-05
2.50035e-12
-1.9164e-05
1.39652e-12
-1.9164e-05
1.8433e-12
5.54078e-13
-5.11593e-05
1.08868e-12
-5.11593e-05
4.75616e-12
-5.11593e-05
2.59293e-12
-5.11593e-05
9.44638e-12
-5.11593e-05
4.97616e-12
-5.11593e-05
1.21967e-11
-5.11593e-05
7.41314e-12
-5.11593e-05
1.34605e-11
-5.11593e-05
9.05654e-12
-5.11593e-05
1.33753e-11
-5.11593e-05
9.75609e-12
-5.11593e-05
1.20894e-11
-5.11593e-05
9.60987e-12
-5.11593e-05
9.71771e-12
-5.11593e-05
8.67137e-12
-5.11593e-05
6.72951e-12
-5.11593e-05
7.30445e-12
-5.11593e-05
2.80528e-12
-5.11593e-05
4.98006e-12
1.4342e-12
-7.68218e-05
2.57019e-12
-7.68218e-05
9.04228e-12
-7.68218e-05
4.79102e-12
-7.68218e-05
1.6557e-11
-7.68218e-05
9.31329e-12
-7.68218e-05
2.06062e-11
-7.68218e-05
1.3703e-11
-7.68218e-05
2.24255e-11
-7.68218e-05
1.65705e-11
-7.68218e-05
2.2006e-11
-7.68218e-05
1.77153e-11
-7.68218e-05
1.96715e-11
-7.68218e-05
1.73115e-11
-7.68218e-05
1.55753e-11
-7.68218e-05
1.54784e-11
-7.68218e-05
1.05766e-11
-7.68218e-05
1.27988e-11
-7.68218e-05
4.12648e-12
-7.68218e-05
8.34348e-12
2.60146e-12
-9.61515e-05
4.20685e-12
-9.61515e-05
1.33252e-11
-9.61515e-05
6.99666e-12
-9.61515e-05
2.34056e-11
-9.61514e-05
1.35378e-11
-9.61515e-05
2.8684e-11
-9.61514e-05
1.97459e-11
-9.61515e-05
3.1069e-11
-9.61514e-05
2.37275e-11
-9.61515e-05
3.0357e-11
-9.61515e-05
2.52501e-11
-9.61515e-05
2.70373e-11
-9.61515e-05
2.45635e-11
-9.61515e-05
2.12968e-11
-9.61515e-05
2.18512e-11
-9.61515e-05
1.43702e-11
-9.61515e-05
1.79112e-11
-9.61515e-05
5.46999e-12
-9.61515e-05
1.15131e-11
3.86811e-12
-0.000109148
5.84017e-12
-0.000109148
1.73922e-11
-0.000109148
9.19323e-12
-0.000109148
2.96671e-11
-0.000109148
1.75955e-11
-0.000109148
3.60788e-11
-0.000109148
2.54424e-11
-0.000109148
3.90073e-11
-0.000109148
3.04046e-11
-0.000109148
3.80545e-11
-0.000109148
3.22239e-11
-0.000109148
3.38501e-11
-0.000109148
3.12291e-11
-0.000109148
2.66204e-11
-0.000109148
2.76552e-11
-0.000109148
1.79323e-11
-0.000109148
2.25289e-11
-0.000109148
6.79918e-12
-0.000109148
1.43422e-11
5.1593e-12
-0.000115812
7.35954e-12
-0.000115812
2.10251e-11
-0.000115812
1.12631e-11
-0.000115812
3.50825e-11
-0.000115812
2.12368e-11
-0.000115812
4.24964e-11
-0.000115812
3.04649e-11
-0.000115812
4.59053e-11
-0.000115812
3.62344e-11
-0.000115812
4.47574e-11
-0.000115812
3.82692e-11
-0.000115812
3.97899e-11
-0.000115812
3.69712e-11
-0.000115812
3.12794e-11
-0.000115812
3.26111e-11
-0.000115812
2.1059e-11
-0.000115812
2.64471e-11
-0.000115812
8.01562e-12
-0.000115812
1.67071e-11
6.33001e-12
-0.000116144
8.69368e-12
-0.000116144
2.40487e-11
-0.000116144
1.31276e-11
-0.000116144
3.94554e-11
-0.000116144
2.43024e-11
-0.000116144
4.77041e-11
-0.000116144
3.46013e-11
-0.000116144
5.14989e-11
-0.000116144
4.09779e-11
-0.000116144
5.01969e-11
-0.000116144
4.31445e-11
-0.000116144
4.46078e-11
-0.000116144
4.15646e-11
-0.000116144
3.5066e-11
-0.000116144
3.65308e-11
-0.000116144
2.35946e-11
-0.000116144
2.95203e-11
-0.000116144
9.04032e-12
-0.000116144
1.85252e-11
7.26513e-12
-0.000110142
9.80063e-12
-0.000110142
2.63375e-11
-0.000110142
1.47164e-11
-0.000110142
4.268e-11
-0.000110142
2.66758e-11
-0.000110142
5.15683e-11
-0.000110142
3.77058e-11
-0.000110142
5.56344e-11
-0.000110142
4.44746e-11
-0.000110142
5.42112e-11
-0.000110142
4.66921e-11
-0.000110142
4.8151e-11
-0.000110142
4.4864e-11
-0.000110142
3.78507e-11
-0.000110142
3.9299e-11
-0.000110142
2.544e-11
-0.000110142
3.16579e-11
-0.000110142
9.8127e-12
-0.000110142
1.97625e-11
7.87176e-12
-9.78076e-05
1.0654e-11
-9.78076e-05
2.78059e-11
-9.78076e-05
1.59528e-11
-9.78076e-05
4.4699e-11
-9.78076e-05
2.82691e-11
-9.78076e-05
5.40023e-11
-9.78076e-05
3.96795e-11
-9.78076e-05
5.82107e-11
-9.78076e-05
4.66228e-11
-9.78076e-05
5.66928e-11
-9.78076e-05
4.88164e-11
-9.78076e-05
5.03176e-11
-9.78076e-05
4.67858e-11
-9.78076e-05
3.95428e-11
-9.78076e-05
4.08567e-11
-9.78076e-05
2.65269e-11
-9.78076e-05
3.28145e-11
-9.78076e-05
1.02784e-11
-9.78076e-05
2.04184e-11
8.0943e-12
-7.91404e-05
1.12347e-11
-7.91404e-05
2.84096e-11
-7.91404e-05
1.67515e-11
-7.91404e-05
4.54954e-11
-7.91404e-05
2.90172e-11
-7.91404e-05
5.49625e-11
-7.91404e-05
4.04627e-11
-7.91404e-05
5.9177e-11
-7.91404e-05
4.73707e-11
-7.91404e-05
5.75848e-11
-7.91404e-05
4.94768e-11
-7.91404e-05
5.10543e-11
-7.91404e-05
4.7302e-11
-7.91404e-05
4.00912e-11
-7.91404e-05
4.11948e-11
-7.91404e-05
2.68187e-11
-7.91404e-05
3.29881e-11
-7.91404e-05
1.03933e-11
-7.91404e-05
2.05183e-11
7.92161e-12
-5.41404e-05
1.15242e-11
-5.41404e-05
2.81432e-11
-5.41404e-05
1.70282e-11
-5.41404e-05
4.50759e-11
-5.41404e-05
2.88791e-11
-5.41404e-05
5.44351e-11
-5.41404e-05
4.00316e-11
-5.41404e-05
5.85184e-11
-5.41404e-05
4.67113e-11
-5.41404e-05
5.68698e-11
-5.41404e-05
4.86798e-11
-5.41404e-05
5.03469e-11
-5.41404e-05
4.64317e-11
-5.41404e-05
3.94787e-11
-5.41404e-05
4.0345e-11
-5.41404e-05
2.63077e-11
-5.41404e-05
3.22135e-11
-5.41404e-05
1.01285e-11
-5.41404e-05
2.0098e-11
7.38642e-12
-2.28076e-05
1.14997e-11
-2.28076e-05
2.70358e-11
-2.28076e-05
1.67149e-11
-2.28076e-05
4.34602e-11
-2.28076e-05
2.78432e-11
-2.28076e-05
5.24304e-11
-2.28076e-05
3.84007e-11
-2.28076e-05
5.62511e-11
-2.28076e-05
4.46809e-11
-2.28076e-05
5.45671e-11
-2.28076e-05
4.64753e-11
-2.28076e-05
4.82174e-11
-2.28076e-05
4.42364e-11
-2.28076e-05
3.77221e-11
-2.28076e-05
3.83715e-11
-2.28076e-05
2.50151e-11
-2.28076e-05
3.05558e-11
-2.28076e-05
9.47922e-12
-2.28076e-05
1.9191e-11
6.55741e-12
1.4858e-05
1.11349e-11
1.4858e-05
2.51437e-11
1.4858e-05
1.57775e-11
1.4858e-05
4.06772e-11
1.4858e-05
2.59327e-11
1.4858e-05
4.89825e-11
1.4858e-05
3.56247e-11
1.4858e-05
5.24224e-11
1.4858e-05
4.13582e-11
1.4858e-05
5.07324e-11
1.4858e-05
4.2954e-11
1.4858e-05
4.47248e-11
1.4858e-05
4.08144e-11
1.4858e-05
3.48749e-11
1.4858e-05
3.53645e-11
1.4858e-05
2.29912e-11
1.4858e-05
2.81017e-11
1.4858e-05
8.47366e-12
1.4858e-05
1.7821e-11
5.52532e-12
5.88564e-05
1.04045e-11
5.88564e-05
2.25457e-11
5.88564e-05
1.42325e-11
5.88564e-05
3.67708e-11
5.88564e-05
2.32148e-11
5.88564e-05
4.41562e-11
5.88564e-05
3.18063e-11
5.88564e-05
4.71171e-11
5.88564e-05
3.68695e-11
5.88564e-05
4.54646e-11
5.88564e-05
3.82507e-11
5.88564e-05
3.99693e-11
5.88564e-05
3.63006e-11
5.88564e-05
3.10309e-11
5.88564e-05
3.14384e-11
5.88564e-05
2.03155e-11
5.88564e-05
2.49526e-11
5.88564e-05
7.17837e-12
5.88564e-05
1.60033e-11
4.38736e-12
0.000109188
9.29277e-12
0.000109188
1.93354e-11
0.000109188
1.21541e-11
0.000109188
3.18087e-11
0.000109188
1.97996e-11
0.000109188
3.8054e-11
0.000109188
2.70923e-11
0.000109188
4.0464e-11
0.000109188
3.1381e-11
0.000109188
3.89091e-11
0.000109188
3.25354e-11
0.000109188
3.40939e-11
0.000109188
3.08563e-11
0.000109188
2.63248e-11
0.000109188
2.67246e-11
0.000109188
1.70947e-11
0.000109188
2.12112e-11
0.000109188
5.69608e-12
0.000109188
1.37506e-11
3.23264e-12
0.000165852
7.79566e-12
0.000165852
1.56372e-11
0.000165852
9.68914e-12
0.000165852
2.59174e-11
0.000165852
1.58705e-11
0.000165852
3.08508e-11
0.000165852
2.17132e-11
0.000165852
3.26681e-11
0.000165852
2.51434e-11
0.000165852
3.12846e-11
0.000165852
2.60581e-11
0.000165852
2.73054e-11
0.000165852
2.47071e-11
0.000165852
2.09435e-11
0.000165852
2.14039e-11
0.000165852
1.34673e-11
0.000165852
1.70036e-11
0.000165852
4.15928e-12
0.000165852
1.10939e-11
2.13929e-12
0.000228849
5.96699e-12
0.000228849
1.16071e-11
0.000228849
7.06364e-12
0.000228849
1.93095e-11
0.000228849
1.16878e-11
0.000228849
2.2828e-11
0.000228849
1.5978e-11
0.000228849
2.40523e-11
0.000228849
1.84784e-11
0.000228849
2.29255e-11
0.000228849
1.91273e-11
0.000228849
1.9916e-11
0.000228849
1.81177e-11
0.000228849
1.51601e-11
0.000228849
1.56828e-11
0.000228849
9.63234e-12
0.000228849
1.24529e-11
0.000228849
2.72707e-12
0.000228849
8.09539e-12
1.17597e-12
0.000298178
3.80187e-12
0.000298178
7.44626e-12
0.000298178
4.39449e-12
0.000298178
1.21556e-11
0.000298178
7.42708e-12
0.000298178
1.41472e-11
0.000298178
1.01221e-11
0.000298178
1.47678e-11
0.000298178
1.1654e-11
0.000298178
1.39607e-11
0.000298178
1.20202e-11
0.000298178
1.20204e-11
0.000298178
1.13472e-11
0.000298178
9.03445e-12
0.000298178
9.78089e-12
0.000298178
5.60653e-12
0.000298178
7.71629e-12
0.000298178
1.40994e-12
0.000298178
4.83526e-12
4.29897e-13
0.000373841
1.62959e-12
0.000373841
3.33492e-12
0.000373841
1.92634e-12
0.000373841
4.81823e-12
0.000373841
3.33224e-12
0.000373841
5.2734e-12
0.000373841
4.40198e-12
0.000373841
5.33834e-12
0.000373841
4.92142e-12
0.000373841
4.91406e-12
0.000373841
4.95954e-12
0.000373841
4.10479e-12
0.000373841
4.57157e-12
0.000373841
2.96063e-12
0.000373841
3.82696e-12
0.000373841
1.6783e-12
0.000373841
2.88307e-12
0.000373841
2.57121e-13
0.000373841
1.49528e-12
-3.2934e-14
0.000455836
0.000455836
0.000455836
0.000455836
0.000455836
0.000455836
0.000455836
0.000455836
0.000455836
0.000455836
0.000455836
0.000455836
0.000455836
0.000455836
0.000455836
0.000455836
0.000455836
0.000455836
0.000455836
)
;

boundaryField
{
    top
    {
        type            calculated;
        value           uniform 0;
    }
    bottom
    {
        type            calculated;
        value           uniform 0;
    }
    inlet
    {
        type            calculated;
        value           nonuniform List<scalar> 
20
(
1.9164e-05
5.11593e-05
7.68218e-05
9.61514e-05
0.000109148
0.000115812
0.000116144
0.000110142
9.78076e-05
7.91404e-05
5.41404e-05
2.28076e-05
-1.4858e-05
-5.88564e-05
-0.000109188
-0.000165852
-0.000228849
-0.000298178
-0.000373841
-0.000455836
)
;
    }
    outlet
    {
        type            calculated;
        value           nonuniform List<scalar> 
20
(
-1.9164e-05
-5.11593e-05
-7.68218e-05
-9.61515e-05
-0.000109148
-0.000115812
-0.000116144
-0.000110142
-9.78076e-05
-7.91404e-05
-5.41404e-05
-2.28076e-05
1.4858e-05
5.88564e-05
0.000109188
0.000165852
0.000228849
0.000298178
0.000373841
0.000455836
)
;
    }
    frontAndBack
    {
        type            empty;
        value           nonuniform 0();
    }
}


// ************************************************************************* //
