/*--------------------------------*- C++ -*----------------------------------*\
| =========                 |                                                 |
| \\      /  F ield         | OpenFOAM: The Open Source CFD Toolbox           |
|  \\    /   O peration     | Version:  4.1                                   |
|   \\  /    A nd           | Web:      www.OpenFOAM.org                      |
|    \\/     M anipulation  |                                                 |
\*---------------------------------------------------------------------------*/
FoamFile
{
    version     2.0;
    format      ascii;
    class       volVectorField;
    location    "2.3";
    object      U;
}
// * * * * * * * * * * * * * * * * * * * * * * * * * * * * * * * * * * * * * //

dimensions      [0 1 -1 0 0 0 0];

internalField   nonuniform List<vector> 
400
(
(-0.383281 -1.26551e-11 0)
(-0.383281 8.65479e-10 0)
(-0.383281 1.29959e-09 0)
(-0.383281 9.75968e-10 0)
(-0.383281 2.44243e-09 0)
(-0.383281 1.32395e-09 0)
(-0.383281 3.1158e-09 0)
(-0.383281 1.53527e-09 0)
(-0.383281 3.49923e-09 0)
(-0.383281 1.61056e-09 0)
(-0.383281 3.50068e-09 0)
(-0.383281 1.53353e-09 0)
(-0.383281 3.22191e-09 0)
(-0.383281 1.3489e-09 0)
(-0.383281 2.62381e-09 0)
(-0.383281 1.1197e-09 0)
(-0.383281 1.93297e-09 0)
(-0.383281 7.4466e-10 0)
(-0.383281 7.61545e-10 0)
(-0.383281 6.25981e-10 0)
(-1.02319 7.56792e-10 0)
(-1.02319 3.07153e-09 0)
(-1.02319 1.39658e-09 0)
(-1.02319 7.26617e-09 0)
(-1.02319 2.12267e-09 0)
(-1.02319 9.62143e-09 0)
(-1.02319 3.50633e-09 0)
(-1.02319 1.06702e-08 0)
(-1.02319 4.52175e-09 0)
(-1.02319 1.06432e-08 0)
(-1.02319 5.099e-09 0)
(-1.02319 9.6384e-09 0)
(-1.02319 5.2154e-09 0)
(-1.02319 7.76824e-09 0)
(-1.02319 4.9608e-09 0)
(-1.02319 5.36046e-09 0)
(-1.02319 4.44876e-09 0)
(-1.02319 2.22562e-09 0)
(-1.02319 3.61264e-09 0)
(-1.02319 5.08158e-10 0)
(-1.53644 1.82215e-09 0)
(-1.53644 7.13744e-09 0)
(-1.53644 4.56946e-09 0)
(-1.53644 1.27923e-08 0)
(-1.53644 8.84993e-09 0)
(-1.53644 1.61391e-08 0)
(-1.53644 1.25749e-08 0)
(-1.53644 1.77168e-08 0)
(-1.53644 1.49722e-08 0)
(-1.53644 1.75603e-08 0)
(-1.53644 1.57851e-08 0)
(-1.53644 1.59093e-08 0)
(-1.53644 1.52366e-08 0)
(-1.53644 1.26826e-08 0)
(-1.53644 1.33869e-08 0)
(-1.53644 8.78362e-09 0)
(-1.53644 1.08539e-08 0)
(-1.53644 3.74113e-09 0)
(-1.53644 6.64949e-09 0)
(-1.53644 2.44339e-09 0)
(-1.92303 3.36338e-09 0)
(-1.92303 1.11555e-08 0)
(-1.92303 5.58976e-09 0)
(-1.92303 2.00956e-08 0)
(-1.92303 1.09043e-08 0)
(-1.92303 2.4731e-08 0)
(-1.92303 1.61318e-08 0)
(-1.92303 2.67917e-08 0)
(-1.92303 1.95356e-08 0)
(-1.92303 2.6157e-08 0)
(-1.92303 2.09147e-08 0)
(-1.92303 2.34042e-08 0)
(-1.92303 2.04564e-08 0)
(-1.92303 1.83465e-08 0)
(-1.92303 1.83217e-08 0)
(-1.92303 1.23003e-08 0)
(-1.92303 1.51582e-08 0)
(-1.92303 4.59283e-09 0)
(-1.92303 9.91654e-09 0)
(-1.92303 3.02504e-09 0)
(-2.18297 4.97762e-09 0)
(-2.18297 1.53264e-08 0)
(-2.18297 7.96924e-09 0)
(-2.18297 2.64517e-08 0)
(-2.18297 1.54269e-08 0)
(-2.18297 3.22298e-08 0)
(-2.18297 2.24467e-08 0)
(-2.18297 3.48477e-08 0)
(-2.18297 2.69221e-08 0)
(-2.18297 3.39515e-08 0)
(-2.18297 2.86077e-08 0)
(-2.18297 3.02513e-08 0)
(-2.18297 2.77928e-08 0)
(-2.18297 2.3778e-08 0)
(-2.18297 2.46816e-08 0)
(-2.18297 1.60033e-08 0)
(-2.18297 2.01825e-08 0)
(-2.18297 6.02453e-09 0)
(-2.18297 1.29122e-08 0)
(-2.18297 4.4732e-09 0)
(-2.31625 6.5628e-09 0)
(-2.31625 1.91883e-08 0)
(-2.31625 1.00724e-08 0)
(-2.31625 3.23025e-08 0)
(-2.31625 1.92356e-08 0)
(-2.31625 3.91508e-08 0)
(-2.31625 2.77638e-08 0)
(-2.31625 4.22863e-08 0)
(-2.31625 3.31346e-08 0)
(-2.31625 4.12099e-08 0)
(-2.31625 3.50832e-08 0)
(-2.31625 3.66248e-08 0)
(-2.31625 3.39727e-08 0)
(-2.31625 2.87804e-08 0)
(-2.31625 3.00506e-08 0)
(-2.31625 1.93627e-08 0)
(-2.31625 2.44515e-08 0)
(-2.31625 7.30338e-09 0)
(-2.31625 1.55282e-08 0)
(-2.31625 5.71519e-09 0)
(-2.32287 7.98709e-09 0)
(-2.32287 2.25059e-08 0)
(-2.32287 1.20256e-08 0)
(-2.32287 3.71378e-08 0)
(-2.32287 2.25712e-08 0)
(-2.32287 4.48942e-08 0)
(-2.32287 3.2317e-08 0)
(-2.32287 4.84613e-08 0)
(-2.32287 3.83941e-08 0)
(-2.32287 4.72296e-08 0)
(-2.32287 4.05163e-08 0)
(-2.32287 4.19594e-08 0)
(-2.32287 3.91155e-08 0)
(-2.32287 3.2963e-08 0)
(-2.32287 3.44658e-08 0)
(-2.32287 2.21676e-08 0)
(-2.32287 2.79306e-08 0)
(-2.32287 8.41518e-09 0)
(-2.32287 1.76067e-08 0)
(-2.32287 6.78624e-09 0)
(-2.20284 9.21281e-09 0)
(-2.20284 2.51738e-08 0)
(-2.20284 1.37568e-08 0)
(-2.20284 4.09546e-08 0)
(-2.20284 2.52883e-08 0)
(-2.20284 4.94614e-08 0)
(-2.20284 3.59369e-08 0)
(-2.20284 5.3364e-08 0)
(-2.20284 4.2515e-08 0)
(-2.20284 5.19934e-08 0)
(-2.20284 4.47301e-08 0)
(-2.20284 4.61813e-08 0)
(-2.20284 4.30653e-08 0)
(-2.20284 3.62861e-08 0)
(-2.20284 3.78143e-08 0)
(-2.20284 2.43875e-08 0)
(-2.20284 3.05417e-08 0)
(-2.20284 9.3339e-09 0)
(-2.20284 1.91451e-08 0)
(-2.20284 7.56976e-09 0)
(-1.95615 1.01934e-08 0)
(-1.95615 2.70531e-08 0)
(-1.95615 1.51759e-08 0)
(-1.95615 4.35686e-08 0)
(-1.95615 2.72666e-08 0)
(-1.95615 5.26082e-08 0)
(-1.95615 3.84673e-08 0)
(-1.95615 5.672e-08 0)
(-1.95615 4.5326e-08 0)
(-1.95615 5.52442e-08 0)
(-1.95615 4.75537e-08 0)
(-1.95615 4.90406e-08 0)
(-1.95615 4.5664e-08 0)
(-1.95615 3.85308e-08 0)
(-1.95615 3.99662e-08 0)
(-1.95615 2.586e-08 0)
(-1.95615 3.21807e-08 0)
(-1.95615 9.96118e-09 0)
(-1.95615 2.00892e-08 0)
(-1.95615 7.99195e-09 0)
(-1.58281 1.09118e-08 0)
(-1.58281 2.80886e-08 0)
(-1.58281 1.6204e-08 0)
(-1.58281 4.49748e-08 0)
(-1.58281 2.84338e-08 0)
(-1.58281 5.43095e-08 0)
(-1.58281 3.9837e-08 0)
(-1.58281 5.84972e-08 0)
(-1.58281 4.67619e-08 0)
(-1.58281 5.69382e-08 0)
(-1.58281 4.89324e-08 0)
(-1.58281 5.04995e-08 0)
(-1.58281 4.6869e-08 0)
(-1.58281 3.96584e-08 0)
(-1.58281 4.09008e-08 0)
(-1.58281 2.65548e-08 0)
(-1.58281 3.28355e-08 0)
(-1.58281 1.02576e-08 0)
(-1.58281 2.04638e-08 0)
(-1.58281 8.01775e-09 0)
(-1.08281 1.13505e-08 0)
(-1.08281 2.82569e-08 0)
(-1.08281 1.67562e-08 0)
(-1.08281 4.51701e-08 0)
(-1.08281 2.8739e-08 0)
(-1.08281 5.45372e-08 0)
(-1.08281 4.00081e-08 0)
(-1.08281 5.86629e-08 0)
(-1.08281 4.67972e-08 0)
(-1.08281 5.70382e-08 0)
(-1.08281 4.88529e-08 0)
(-1.08281 5.05238e-08 0)
(-1.08281 4.66791e-08 0)
(-1.08281 3.96343e-08 0)
(-1.08281 4.06323e-08 0)
(-1.08281 2.64495e-08 0)
(-1.08281 3.25243e-08 0)
(-1.08281 1.01853e-08 0)
(-1.08281 2.03011e-08 0)
(-1.08281 7.65838e-09 0)
(-0.456152 1.14888e-08 0)
(-0.456152 2.75707e-08 0)
(-0.456152 1.67535e-08 0)
(-0.456152 4.41655e-08 0)
(-0.456152 2.81559e-08 0)
(-0.456152 5.32895e-08 0)
(-0.456152 3.89765e-08 0)
(-0.456152 5.72177e-08 0)
(-0.456152 4.54476e-08 0)
(-0.456152 5.55448e-08 0)
(-0.456152 4.73447e-08 0)
(-0.456152 4.91173e-08 0)
(-0.456152 4.51365e-08 0)
(-0.456152 3.84578e-08 0)
(-0.456152 3.92105e-08 0)
(-0.456152 2.55506e-08 0)
(-0.456152 3.12982e-08 0)
(-0.456152 9.72608e-09 0)
(-0.456152 1.9637e-08 0)
(-0.456152 6.96595e-09 0)
(0.29716 1.13011e-08 0)
(0.29716 2.60739e-08 0)
(0.29716 1.61424e-08 0)
(0.29716 4.19793e-08 0)
(0.29716 2.66904e-08 0)
(0.29716 5.05872e-08 0)
(0.29716 3.67776e-08 0)
(0.29716 5.41918e-08 0)
(0.29716 4.27725e-08 0)
(0.29716 5.24939e-08 0)
(0.29716 4.44806e-08 0)
(0.29716 4.63191e-08 0)
(0.29716 4.23238e-08 0)
(0.29716 3.61625e-08 0)
(0.29716 3.67152e-08 0)
(0.29716 2.38928e-08 0)
(0.29716 2.9236e-08 0)
(0.29716 8.89054e-09 0)
(0.29716 1.85005e-08 0)
(0.29716 6.02228e-09 0)
(1.17713 1.07614e-08 0)
(1.17713 2.38191e-08 0)
(1.17713 1.48978e-08 0)
(1.17713 3.86359e-08 0)
(1.17713 2.43592e-08 0)
(1.17713 4.64553e-08 0)
(1.17713 3.34531e-08 0)
(1.17713 4.96266e-08 0)
(1.17713 3.88325e-08 0)
(1.17713 4.79403e-08 0)
(1.17713 4.03308e-08 0)
(1.17713 4.21899e-08 0)
(1.17713 3.83182e-08 0)
(1.17713 3.28083e-08 0)
(1.17713 3.32204e-08 0)
(1.17713 2.15328e-08 0)
(1.17713 2.64078e-08 0)
(1.17713 7.72258e-09 0)
(1.17713 1.69018e-08 0)
(1.17713 4.91871e-09 0)
(2.18375 9.84427e-09 0)
(2.18375 2.09432e-08 0)
(2.18375 1.31089e-08 0)
(2.18375 3.42579e-08 0)
(2.18375 2.13413e-08 0)
(2.18375 4.10491e-08 0)
(2.18375 2.9249e-08 0)
(2.18375 4.37027e-08 0)
(2.18375 3.39128e-08 0)
(2.18375 4.20758e-08 0)
(2.18375 3.51887e-08 0)
(2.18375 3.69104e-08 0)
(2.18375 3.33924e-08 0)
(2.18375 2.85542e-08 0)
(2.18375 2.89387e-08 0)
(2.18375 1.85935e-08 0)
(2.18375 2.3002e-08 0)
(2.18375 6.32225e-09 0)
(2.18375 1.48822e-08 0)
(2.18375 3.76494e-09 0)
(3.31703 8.55306e-09 0)
(3.31703 1.74736e-08 0)
(3.31703 1.08327e-08 0)
(3.31703 2.88409e-08 0)
(3.31703 1.76576e-08 0)
(3.31703 3.44115e-08 0)
(3.31703 2.41823e-08 0)
(3.31703 3.64967e-08 0)
(3.31703 2.80243e-08 0)
(3.31703 3.50044e-08 0)
(3.31703 2.90659e-08 0)
(3.31703 3.05966e-08 0)
(3.31703 2.75832e-08 0)
(3.31703 2.35239e-08 0)
(3.31703 2.38714e-08 0)
(3.31703 1.5179e-08 0)
(3.31703 1.90051e-08 0)
(3.31703 4.80752e-09 0)
(3.31703 1.24193e-08 0)
(3.31703 2.62714e-09 0)
(4.57697 6.60185e-09 0)
(4.57697 1.36039e-08 0)
(4.57697 8.04061e-09 0)
(4.57697 2.24016e-08 0)
(4.57697 1.34236e-08 0)
(4.57697 2.6465e-08 0)
(4.57697 1.85006e-08 0)
(4.57697 2.78605e-08 0)
(4.57697 2.15178e-08 0)
(4.57697 2.65359e-08 0)
(4.57697 2.23823e-08 0)
(4.57697 2.30255e-08 0)
(4.57697 2.13693e-08 0)
(4.57697 1.75054e-08 0)
(4.57697 1.85027e-08 0)
(4.57697 1.10884e-08 0)
(4.57697 1.47647e-08 0)
(4.57697 3.1163e-09 0)
(4.57697 9.5532e-09 0)
(4.57697 1.64965e-09 0)
(5.96356 5.64443e-09 0)
(5.96356 9.44034e-09 0)
(5.96356 6.52638e-09 0)
(5.96356 1.64306e-08 0)
(5.96356 1.02116e-08 0)
(5.96356 1.97382e-08 0)
(5.96356 1.35884e-08 0)
(5.96356 2.10279e-08 0)
(5.96356 1.54444e-08 0)
(5.96356 2.0238e-08 0)
(5.96356 1.57814e-08 0)
(5.96356 1.7781e-08 0)
(5.96356 1.48159e-08 0)
(5.96356 1.37465e-08 0)
(5.96356 1.26589e-08 0)
(5.96356 8.97585e-09 0)
(5.96356 9.7965e-09 0)
(5.96356 2.86912e-09 0)
(5.96356 6.61316e-09 0)
(5.96356 7.2567e-10 0)
(7.47681 1.90112e-09 0)
(7.47681 5.76663e-09 0)
(7.47681 2.61008e-09 0)
(7.47681 8.3797e-09 0)
(7.47681 5.49505e-09 0)
(7.47681 9.15769e-09 0)
(7.47681 7.77497e-09 0)
(7.47681 9.17615e-09 0)
(7.47681 9.09552e-09 0)
(7.47681 8.35849e-09 0)
(7.47681 9.42385e-09 0)
(7.47681 6.87414e-09 0)
(7.47681 8.99842e-09 0)
(7.47681 4.8379e-09 0)
(7.47681 7.78507e-09 0)
(7.47681 2.60194e-09 0)
(7.47681 6.22908e-09 0)
(7.47681 2.28836e-10 0)
(7.47681 3.24698e-09 0)
(7.47681 4.18773e-10 0)
(9.11672 1.3972e-09 0)
(9.11672 1.18264e-09 0)
(9.11672 1.48354e-09 0)
(9.11672 2.66367e-09 0)
(9.11672 1.86779e-09 0)
(9.11672 3.43277e-09 0)
(9.11672 2.15458e-09 0)
(9.11672 3.84813e-09 0)
(9.11672 2.1679e-09 0)
(9.11672 3.86813e-09 0)
(9.11672 1.95826e-09 0)
(9.11672 3.5616e-09 0)
(9.11672 1.58909e-09 0)
(9.11672 2.9287e-09 0)
(9.11672 1.22251e-09 0)
(9.11672 2.09942e-09 0)
(9.11672 7.2509e-10 0)
(9.11672 9.73329e-10 0)
(9.11672 7.72477e-10 0)
(9.11672 -1.59649e-10 0)
)
;

boundaryField
{
    top
    {
        type            fixedValue;
        value           uniform (10 0 0);
    }
    bottom
    {
        type            fixedValue;
        value           uniform (0 0 0);
    }
    inlet
    {
        type            zeroGradient;
    }
    outlet
    {
        type            zeroGradient;
    }
    frontAndBack
    {
        type            empty;
    }
}


// ************************************************************************* //
