/*--------------------------------*- C++ -*----------------------------------*\
| =========                 |                                                 |
| \\      /  F ield         | OpenFOAM: The Open Source CFD Toolbox           |
|  \\    /   O peration     | Version:  4.1                                   |
|   \\  /    A nd           | Web:      www.OpenFOAM.org                      |
|    \\/     M anipulation  |                                                 |
\*---------------------------------------------------------------------------*/
FoamFile
{
    version     2.0;
    format      ascii;
    class       surfaceScalarField;
    location    "4";
    object      phi;
}
// * * * * * * * * * * * * * * * * * * * * * * * * * * * * * * * * * * * * * //

dimensions      [0 3 -1 0 0 0 0];

internalField   nonuniform List<scalar> 
760
(
-1.91641e-05
2.20879e-13
-1.91641e-05
5.60987e-13
-1.91641e-05
2.10934e-12
-1.91641e-05
1.48095e-12
-1.91641e-05
3.46542e-12
-1.91641e-05
2.67526e-12
-1.91641e-05
4.19777e-12
-1.91641e-05
3.60028e-12
-1.91641e-05
4.50354e-12
-1.91641e-05
4.0574e-12
-1.91641e-05
4.44635e-12
-1.91641e-05
4.04249e-12
-1.91641e-05
4.09114e-12
-1.91641e-05
3.58422e-12
-1.91641e-05
3.3994e-12
-1.91641e-05
2.94866e-12
-1.91641e-05
2.46598e-12
-1.91641e-05
1.90557e-12
-1.91641e-05
1.4577e-12
9.69129e-13
-5.11594e-05
1.27144e-12
-5.11594e-05
2.79425e-12
-5.11594e-05
5.89057e-12
-5.11594e-05
5.95756e-12
-5.11594e-05
8.47598e-12
-5.11594e-05
1.01831e-11
-5.11594e-05
9.45821e-12
-5.11594e-05
1.30993e-11
-5.11594e-05
9.95673e-12
-5.11594e-05
1.4076e-11
-5.11594e-05
9.88338e-12
-5.11594e-05
1.34367e-11
-5.11594e-05
9.30271e-12
-5.11594e-05
1.12523e-11
-5.11594e-05
8.05621e-12
-5.11594e-05
8.60257e-12
-5.11594e-05
6.04376e-12
-5.11594e-05
4.87611e-12
-5.11594e-05
3.96034e-12
2.12407e-12
-7.68219e-05
2.73362e-12
-7.68219e-05
5.85308e-12
-7.68219e-05
1.00591e-11
-7.68219e-05
1.17531e-11
-7.68219e-05
1.36048e-11
-7.68219e-05
1.96175e-11
-7.68219e-05
1.46811e-11
-7.68219e-05
2.47031e-11
-7.68219e-05
1.54399e-11
-7.68219e-05
2.60712e-11
-7.68219e-05
1.54249e-11
-7.68219e-05
2.45153e-11
-7.68219e-05
1.47187e-11
-7.68219e-05
2.01303e-11
-7.68219e-05
1.29837e-11
-7.68219e-05
1.50143e-11
-7.68219e-05
9.90102e-12
-7.68219e-05
8.01048e-12
-7.68219e-05
6.77326e-12
3.37291e-12
-9.61516e-05
4.30407e-12
-9.61516e-05
8.92083e-12
-9.61516e-05
1.42191e-11
-9.61516e-05
1.73093e-11
-9.61516e-05
1.87035e-11
-9.61516e-05
2.861e-11
-9.61516e-05
1.99433e-11
-9.61516e-05
3.56764e-11
-9.61516e-05
2.10287e-11
-9.61516e-05
3.73519e-11
-9.61516e-05
2.10811e-11
-9.61516e-05
3.49021e-11
-9.61516e-05
2.02214e-11
-9.61516e-05
2.84246e-11
-9.61516e-05
1.79356e-11
-9.61516e-05
2.10067e-11
-9.61516e-05
1.374e-11
-9.61516e-05
1.08857e-11
-9.61516e-05
9.54338e-12
4.60343e-12
-0.000109148
5.8614e-12
-0.000109148
1.18721e-11
-0.000109148
1.81236e-11
-0.000109148
2.2526e-11
-0.000109148
2.34763e-11
-0.000109148
3.69335e-11
-0.000109148
2.49532e-11
-0.000109148
4.57286e-11
-0.000109148
2.64011e-11
-0.000109148
4.76357e-11
-0.000109148
2.65233e-11
-0.000109148
4.4335e-11
-0.000109148
2.55059e-11
-0.000109148
3.59413e-11
-0.000109148
2.26348e-11
-0.000109148
2.64322e-11
-0.000109148
1.73922e-11
-0.000109148
1.34324e-11
-0.000109148
1.21135e-11
5.74414e-12
-0.000115812
7.30022e-12
-0.000115812
1.45583e-11
-0.000115813
2.15732e-11
-0.000115812
2.71668e-11
-0.000115813
2.76733e-11
-0.000115812
4.42071e-11
-0.000115813
2.94024e-11
-0.000115812
5.44404e-11
-0.000115813
3.11705e-11
-0.000115812
5.65232e-11
-0.000115813
3.13392e-11
-0.000115812
5.24536e-11
-0.000115813
3.01709e-11
-0.000115812
4.24005e-11
-0.000115813
2.67332e-11
-0.000115813
3.10693e-11
-0.000115813
2.06085e-11
-0.000115813
1.55514e-11
-0.000115813
1.43067e-11
6.69313e-12
-0.000116144
8.54486e-12
-0.000116144
1.687e-11
-0.000116144
2.44343e-11
-0.000116144
3.10547e-11
-0.000116144
3.11318e-11
-0.000116144
5.01475e-11
-0.000116144
3.30851e-11
-0.000116144
6.14994e-11
-0.000116144
3.50757e-11
-0.000116144
6.37137e-11
-0.000116144
3.52458e-11
-0.000116144
5.8991e-11
-0.000116144
3.39313e-11
-0.000116144
4.75971e-11
-0.000116144
2.99825e-11
-0.000116144
3.47602e-11
-0.000116144
2.31939e-11
-0.000116144
1.71828e-11
-0.000116144
1.59957e-11
7.37893e-12
-0.000110142
9.54585e-12
-0.000110142
1.87224e-11
-0.000110142
2.664e-11
-0.000110142
3.40565e-11
-0.000110142
3.37764e-11
-0.000110142
5.45627e-11
-0.000110142
3.58886e-11
-0.000110142
6.6705e-11
-0.000110142
3.79658e-11
-0.000110142
6.90154e-11
-0.000110142
3.80752e-11
-0.000110142
6.37835e-11
-0.000110142
3.66096e-11
-0.000110142
5.1406e-11
-0.000110142
3.22332e-11
-0.000110142
3.74119e-11
-0.000110142
2.50112e-11
-0.000110142
1.83041e-11
-0.000110142
1.71075e-11
7.75678e-12
-9.78078e-05
1.027e-11
-9.78078e-05
2.00397e-11
-9.78078e-05
2.81526e-11
-9.78078e-05
3.60638e-11
-9.78078e-05
3.55619e-11
-9.78078e-05
5.73239e-11
-9.78078e-05
3.77348e-11
-9.78078e-05
6.99283e-11
-9.78078e-05
3.9745e-11
-9.78078e-05
7.23024e-11
-9.78078e-05
3.97248e-11
-9.78078e-05
6.67278e-11
-9.78078e-05
3.8098e-11
-9.78078e-05
5.37448e-11
-9.78078e-05
3.34037e-11
-9.78078e-05
3.89712e-11
-9.78078e-05
2.5969e-11
-9.78078e-05
1.89076e-11
-9.78078e-05
1.76161e-11
7.80983e-12
-7.91406e-05
1.0698e-11
-7.91406e-05
2.07537e-11
-7.91406e-05
2.89515e-11
-7.91406e-05
3.69942e-11
-7.91406e-05
3.64581e-11
-7.91406e-05
5.8364e-11
-7.91406e-05
3.85698e-11
-7.91406e-05
7.11083e-11
-7.91406e-05
4.03635e-11
-7.91406e-05
7.35117e-11
-7.91406e-05
4.01502e-11
-7.91406e-05
6.77772e-11
-7.91406e-05
3.83558e-11
-7.91406e-05
5.45713e-11
-7.91406e-05
3.34763e-11
-7.91406e-05
3.94229e-11
-7.91406e-05
2.60275e-11
-7.91406e-05
1.89949e-11
-7.91406e-05
1.75388e-11
7.54963e-12
-5.41406e-05
1.08216e-11
-5.41406e-05
2.08086e-11
-5.41406e-05
2.90189e-11
-5.41406e-05
3.67966e-11
-5.41406e-05
3.64346e-11
-5.41406e-05
5.76719e-11
-5.41406e-05
3.83531e-11
-5.41406e-05
7.02408e-11
-5.41406e-05
3.98056e-11
-5.41406e-05
7.26334e-11
-5.41406e-05
3.93532e-11
-5.41406e-05
6.69297e-11
-5.41406e-05
3.73999e-11
-5.41406e-05
5.38757e-11
-5.41406e-05
3.24859e-11
-5.41406e-05
3.87809e-11
-5.41406e-05
2.51994e-11
-5.41406e-05
1.8571e-11
-5.41406e-05
1.69236e-11
7.01327e-12
-2.28078e-05
1.06395e-11
-2.28078e-05
2.01711e-11
-2.28078e-05
2.83339e-11
-2.28078e-05
3.54593e-11
-2.28078e-05
3.54563e-11
-2.28078e-05
5.52896e-11
-2.28078e-05
3.70592e-11
-2.28078e-05
6.7373e-11
-2.28078e-05
3.80875e-11
-2.28078e-05
6.97068e-11
-2.28078e-05
3.73781e-11
-2.28078e-05
6.4223e-11
-2.28078e-05
3.52994e-11
-2.28078e-05
5.168e-11
-2.28078e-05
3.05113e-11
-2.28078e-05
3.70833e-11
-2.28078e-05
2.35497e-11
-2.28078e-05
1.76454e-11
-2.28078e-05
1.58358e-11
6.25733e-12
1.48578e-05
1.01544e-11
1.48578e-05
1.88416e-11
1.48578e-05
2.68716e-11
1.48578e-05
3.30178e-11
1.48578e-05
3.34896e-11
1.48578e-05
5.13095e-11
1.48578e-05
3.46849e-11
1.48578e-05
6.26002e-11
1.48578e-05
3.52587e-11
1.48578e-05
6.48184e-11
1.48578e-05
3.43099e-11
1.48578e-05
5.9732e-11
1.48578e-05
3.21699e-11
1.48578e-05
4.80392e-11
1.48578e-05
2.7668e-11
1.48578e-05
3.4387e-11
1.48578e-05
2.11909e-11
1.48578e-05
1.62373e-11
1.48578e-05
1.43448e-11
5.34953e-12
5.88562e-05
9.37003e-12
5.88562e-05
1.68665e-11
5.88562e-05
2.46139e-11
5.88562e-05
2.95626e-11
5.88562e-05
3.05185e-11
5.88562e-05
4.5876e-11
5.88562e-05
3.12635e-11
5.88562e-05
5.60712e-11
5.88562e-05
3.14095e-11
5.88562e-05
5.8109e-11
5.88562e-05
3.02781e-11
5.88562e-05
5.35756e-11
5.88562e-05
2.81694e-11
5.88562e-05
4.30489e-11
5.88562e-05
2.41036e-11
5.88562e-05
3.07671e-11
5.88562e-05
1.82737e-11
5.88562e-05
1.43851e-11
5.88562e-05
1.25167e-11
4.36019e-12
0.000109187
8.28999e-12
0.000109187
1.43393e-11
0.000109187
2.15633e-11
0.000109187
2.52343e-11
0.000109187
2.6565e-11
0.000109187
3.91754e-11
0.000109187
2.68779e-11
0.000109187
4.79801e-11
0.000109187
2.66755e-11
0.000109187
4.9766e-11
0.000109187
2.54541e-11
0.000109187
4.59125e-11
0.000109187
2.34886e-11
0.000109187
3.68447e-11
0.000109187
1.99885e-11
0.000109187
2.63146e-11
0.000109187
1.49679e-11
0.000109187
1.2151e-11
0.000109187
1.041e-11
3.35289e-12
0.000165852
6.93113e-12
0.000165852
1.14126e-11
0.000165852
1.77787e-11
0.000165852
2.02499e-11
0.000165852
2.17301e-11
0.000165852
3.14821e-11
0.000165852
2.16958e-11
0.000165852
3.86248e-11
0.000165852
2.12694e-11
0.000165852
4.00837e-11
0.000165852
2.00783e-11
0.000165852
3.69987e-11
0.000165852
1.83687e-11
0.000165852
2.96446e-11
0.000165852
1.55318e-11
0.000165852
2.11686e-11
0.000165852
1.14626e-11
0.000165852
9.63823e-12
0.000165852
8.08695e-12
2.38493e-12
0.000228848
5.35375e-12
0.000228848
8.29396e-12
0.000228848
1.3422e-11
0.000228848
1.48757e-11
0.000228848
1.6259e-11
0.000228848
2.31249e-11
0.000228848
1.60311e-11
0.000228848
2.83734e-11
0.000228848
1.5535e-11
0.000228848
2.94315e-11
0.000228848
1.44995e-11
0.000228848
2.71662e-11
0.000228848
1.31264e-11
0.000228848
2.17311e-11
0.000228848
1.0994e-11
0.000228848
1.55154e-11
0.000228848
7.95159e-12
0.000228848
6.98197e-12
0.000228848
5.62646e-12
1.50218e-12
0.000298178
3.61844e-12
0.000298178
5.15325e-12
0.000298178
8.60087e-12
0.000298178
9.35778e-12
0.000298178
1.02332e-11
0.000298178
1.44545e-11
0.000298178
9.95935e-12
0.000298178
1.76258e-11
0.000298178
9.55401e-12
0.000298178
1.82069e-11
0.000298178
8.80668e-12
0.000298178
1.67655e-11
0.000298178
7.8544e-12
0.000298178
1.3385e-11
0.000298178
6.45785e-12
0.000298178
9.53886e-12
0.000298178
4.51783e-12
0.000298178
4.26858e-12
0.000298178
3.08895e-12
7.59151e-13
0.000373841
1.89583e-12
0.000373841
2.14273e-12
0.000373841
3.72163e-12
0.000373841
3.85403e-12
0.000373841
4.17048e-12
0.000373841
5.72282e-12
0.000373841
3.99341e-12
0.000373841
6.72542e-12
0.000373841
3.7994e-12
0.000373841
6.79069e-12
0.000373841
3.39872e-12
0.000373841
6.17975e-12
0.000373841
2.86686e-12
0.000373841
4.91484e-12
0.000373841
2.15212e-12
0.000373841
3.49046e-12
0.000373841
1.27285e-12
0.000373841
1.56434e-12
0.000373841
6.3549e-13
1.68516e-13
0.000455836
0.000455836
0.000455836
0.000455836
0.000455836
0.000455836
0.000455836
0.000455836
0.000455836
0.000455836
0.000455836
0.000455836
0.000455836
0.000455836
0.000455836
0.000455836
0.000455836
0.000455836
0.000455836
)
;

boundaryField
{
    top
    {
        type            calculated;
        value           uniform 0;
    }
    bottom
    {
        type            calculated;
        value           uniform 0;
    }
    inlet
    {
        type            calculated;
        value           nonuniform List<scalar> 
20
(
1.91641e-05
5.11594e-05
7.68219e-05
9.61516e-05
0.000109148
0.000115812
0.000116144
0.000110142
9.78078e-05
7.91406e-05
5.41406e-05
2.28078e-05
-1.48578e-05
-5.88562e-05
-0.000109187
-0.000165852
-0.000228848
-0.000298178
-0.000373841
-0.000455836
)
;
    }
    outlet
    {
        type            calculated;
        value           nonuniform List<scalar> 
20
(
-1.91641e-05
-5.11594e-05
-7.68219e-05
-9.61516e-05
-0.000109148
-0.000115813
-0.000116144
-0.000110142
-9.78078e-05
-7.91406e-05
-5.41406e-05
-2.28078e-05
1.48578e-05
5.88562e-05
0.000109187
0.000165852
0.000228848
0.000298178
0.000373841
0.000455836
)
;
    }
    frontAndBack
    {
        type            empty;
        value           nonuniform 0();
    }
}


// ************************************************************************* //
