/*--------------------------------*- C++ -*----------------------------------*\
| =========                 |                                                 |
| \\      /  F ield         | OpenFOAM: The Open Source CFD Toolbox           |
|  \\    /   O peration     | Version:  4.1                                   |
|   \\  /    A nd           | Web:      www.OpenFOAM.org                      |
|    \\/     M anipulation  |                                                 |
\*---------------------------------------------------------------------------*/
FoamFile
{
    version     2.0;
    format      ascii;
    class       volVectorField;
    location    "4";
    object      U;
}
// * * * * * * * * * * * * * * * * * * * * * * * * * * * * * * * * * * * * * //

dimensions      [0 1 -1 0 0 0 0];

internalField   nonuniform List<vector> 
400
(
(-0.383281 8.76082e-11 0)
(-0.383281 8.12373e-10 0)
(-0.383281 6.83111e-10 0)
(-0.383281 1.98903e-09 0)
(-0.383281 1.09613e-09 0)
(-0.383281 2.81956e-09 0)
(-0.383281 1.737e-09 0)
(-0.383281 3.08076e-09 0)
(-0.383281 2.24902e-09 0)
(-0.383281 3.08098e-09 0)
(-0.383281 2.35086e-09 0)
(-0.383281 2.84083e-09 0)
(-0.383281 2.28411e-09 0)
(-0.383281 2.40263e-09 0)
(-0.383281 1.86487e-09 0)
(-0.383281 1.93991e-09 0)
(-0.383281 1.4681e-09 0)
(-0.383281 1.03241e-09 0)
(-0.383281 8.0235e-10 0)
(-0.383281 6.42804e-10 0)
(-1.02319 9.26494e-10 0)
(-1.02319 1.5947e-09 0)
(-1.02319 4.77011e-09 0)
(-1.02319 3.26009e-09 0)
(-1.02319 7.14943e-09 0)
(-1.02319 5.90938e-09 0)
(-1.02319 7.9197e-09 0)
(-1.02319 8.14468e-09 0)
(-1.02319 8.07359e-09 0)
(-1.02319 9.01868e-09 0)
(-1.02319 7.78669e-09 0)
(-1.02319 8.78746e-09 0)
(-1.02319 7.0618e-09 0)
(-1.02319 7.52786e-09 0)
(-1.02319 5.99879e-09 0)
(-1.02319 5.80529e-09 0)
(-1.02319 4.2705e-09 0)
(-1.02319 3.57879e-09 0)
(-1.02319 2.659e-09 0)
(-1.02319 1.27334e-09 0)
(-1.53644 2.04598e-09 0)
(-1.53644 4.79052e-09 0)
(-1.53644 8.00648e-09 0)
(-1.53644 1.00331e-08 0)
(-1.53644 1.10438e-08 0)
(-1.53644 1.63176e-08 0)
(-1.53644 1.24169e-08 0)
(-1.53644 2.0182e-08 0)
(-1.53644 1.33512e-08 0)
(-1.53644 2.12234e-08 0)
(-1.53644 1.34049e-08 0)
(-1.53644 1.99589e-08 0)
(-1.53644 1.27785e-08 0)
(-1.53644 1.64972e-08 0)
(-1.53644 1.10975e-08 0)
(-1.53644 1.2458e-08 0)
(-1.53644 8.46073e-09 0)
(-1.53644 6.72594e-09 0)
(-1.53644 5.5573e-09 0)
(-1.53644 3.04458e-09 0)
(-1.92303 3.50975e-09 0)
(-1.92303 7.28223e-09 0)
(-1.92303 1.22055e-08 0)
(-1.92303 1.42707e-08 0)
(-1.92303 1.60835e-08 0)
(-1.92303 2.38237e-08 0)
(-1.92303 1.70331e-08 0)
(-1.92303 2.99536e-08 0)
(-1.92303 1.78089e-08 0)
(-1.92303 3.15004e-08 0)
(-1.92303 1.77939e-08 0)
(-1.92303 2.95159e-08 0)
(-1.92303 1.70333e-08 0)
(-1.92303 2.40954e-08 0)
(-1.92303 1.51301e-08 0)
(-1.92303 1.78226e-08 0)
(-1.92303 1.15713e-08 0)
(-1.92303 9.33352e-09 0)
(-1.92303 8.04774e-09 0)
(-1.92303 3.83451e-09 0)
(-2.18297 5.04165e-09 0)
(-2.18297 1.03368e-08 0)
(-2.18297 1.60674e-08 0)
(-2.18297 1.98127e-08 0)
(-2.18297 2.08941e-08 0)
(-2.18297 3.26569e-08 0)
(-2.18297 2.21901e-08 0)
(-2.18297 4.05644e-08 0)
(-2.18297 2.34463e-08 0)
(-2.18297 4.23333e-08 0)
(-2.18297 2.35503e-08 0)
(-2.18297 3.94597e-08 0)
(-2.18297 2.26521e-08 0)
(-2.18297 3.20448e-08 0)
(-2.18297 2.01315e-08 0)
(-2.18297 2.36136e-08 0)
(-2.18297 1.54655e-08 0)
(-2.18297 1.20843e-08 0)
(-2.18297 1.07958e-08 0)
(-2.18297 5.14414e-09 0)
(-2.31625 6.53932e-09 0)
(-2.31625 1.31456e-08 0)
(-2.31625 1.97276e-08 0)
(-2.31625 2.47152e-08 0)
(-2.31625 2.53707e-08 0)
(-2.31625 4.04453e-08 0)
(-2.31625 2.69096e-08 0)
(-2.31625 4.99534e-08 0)
(-2.31625 2.85106e-08 0)
(-2.31625 5.19337e-08 0)
(-2.31625 2.86791e-08 0)
(-2.31625 4.82544e-08 0)
(-2.31625 2.76335e-08 0)
(-2.31625 3.90436e-08 0)
(-2.31625 2.45456e-08 0)
(-2.31625 2.86537e-08 0)
(-2.31625 1.89156e-08 0)
(-2.31625 1.44213e-08 0)
(-2.31625 1.32029e-08 0)
(-2.31625 6.19779e-09 0)
(-2.32287 7.87206e-09 0)
(-2.32287 1.56299e-08 0)
(-2.32287 2.28462e-08 0)
(-2.32288 2.89443e-08 0)
(-2.32287 2.9136e-08 0)
(-2.32288 4.70061e-08 0)
(-2.32288 3.0912e-08 0)
(-2.32287 5.7781e-08 0)
(-2.32288 3.27918e-08 0)
(-2.32288 5.99098e-08 0)
(-2.32288 3.29921e-08 0)
(-2.32288 5.55259e-08 0)
(-2.32288 3.18099e-08 0)
(-2.32288 4.48233e-08 0)
(-2.32288 2.81914e-08 0)
(-2.32288 3.27857e-08 0)
(-2.32288 2.18043e-08 0)
(-2.32288 1.6273e-08 0)
(-2.32288 1.51419e-08 0)
(-2.32288 7.02203e-09 0)
(-2.20284 8.99977e-09 0)
(-2.20284 1.77198e-08 0)
(-2.20284 2.53896e-08 0)
(-2.20284 3.23966e-08 0)
(-2.20284 3.22075e-08 0)
(-2.20284 5.21985e-08 0)
(-2.20284 3.41823e-08 0)
(-2.20284 6.39332e-08 0)
(-2.20284 3.62198e-08 0)
(-2.20284 6.61826e-08 0)
(-2.20284 3.6392e-08 0)
(-2.20284 6.12163e-08 0)
(-2.20284 3.50608e-08 0)
(-2.20284 4.93489e-08 0)
(-2.20284 3.09691e-08 0)
(-2.20284 3.59751e-08 0)
(-2.20284 2.40306e-08 0)
(-2.20284 1.76602e-08 0)
(-2.20284 1.6557e-08 0)
(-2.20284 7.56188e-09 0)
(-1.95616 9.86144e-09 0)
(-1.95616 1.93081e-08 0)
(-1.95616 2.72434e-08 0)
(-1.95616 3.48978e-08 0)
(-1.95616 3.44178e-08 0)
(-1.95616 5.5778e-08 0)
(-1.95616 3.65058e-08 0)
(-1.95616 6.81346e-08 0)
(-1.95616 3.8552e-08 0)
(-1.95616 7.04761e-08 0)
(-1.95616 3.86286e-08 0)
(-1.95616 6.50822e-08 0)
(-1.95616 3.71422e-08 0)
(-1.95616 5.24196e-08 0)
(-1.95616 3.26765e-08 0)
(-1.95616 3.80784e-08 0)
(-1.95616 2.5421e-08 0)
(-1.95616 1.85204e-08 0)
(-1.95616 1.73658e-08 0)
(-1.95616 7.77949e-09 0)
(-1.58281 1.04355e-08 0)
(-1.58281 2.03294e-08 0)
(-1.58281 2.84007e-08 0)
(-1.58281 3.63664e-08 0)
(-1.58281 3.57627e-08 0)
(-1.58281 5.76708e-08 0)
(-1.58281 3.78515e-08 0)
(-1.58281 7.03304e-08 0)
(-1.58281 3.97504e-08 0)
(-1.58281 7.27226e-08 0)
(-1.58281 3.96621e-08 0)
(-1.58281 6.7078e-08 0)
(-1.58281 3.80092e-08 0)
(-1.58281 5.40018e-08 0)
(-1.58281 3.32896e-08 0)
(-1.58281 3.9082e-08 0)
(-1.58281 2.59257e-08 0)
(-1.58281 1.88648e-08 0)
(-1.58281 1.75747e-08 0)
(-1.58281 7.67421e-09 0)
(-1.08281 1.07082e-08 0)
(-1.08281 2.07211e-08 0)
(-1.08281 2.88446e-08 0)
(-1.08281 3.67359e-08 0)
(-1.08281 3.62141e-08 0)
(-1.08281 5.78398e-08 0)
(-1.08281 3.81739e-08 0)
(-1.08281 7.04885e-08 0)
(-1.08281 3.9785e-08 0)
(-1.08281 7.28882e-08 0)
(-1.08281 3.94739e-08 0)
(-1.08281 6.71802e-08 0)
(-1.08281 3.76524e-08 0)
(-1.08281 5.40701e-08 0)
(-1.08281 3.28195e-08 0)
(-1.08281 3.89864e-08 0)
(-1.08281 2.55317e-08 0)
(-1.08281 1.86968e-08 0)
(-1.08281 1.72184e-08 0)
(-1.08281 7.2709e-09 0)
(-0.456156 1.06803e-08 0)
(-0.456156 2.04369e-08 0)
(-0.456156 2.85558e-08 0)
(-0.456156 3.59739e-08 0)
(-0.456156 3.57387e-08 0)
(-0.456156 5.63017e-08 0)
(-0.456156 3.74396e-08 0)
(-0.456156 6.8624e-08 0)
(-0.456156 3.86565e-08 0)
(-0.456156 7.0991e-08 0)
(-0.456156 3.80882e-08 0)
(-0.456156 6.54092e-08 0)
(-0.456156 3.61163e-08 0)
(-0.456156 5.26305e-08 0)
(-0.456156 3.1325e-08 0)
(-0.456156 3.78185e-08 0)
(-0.456156 2.42788e-08 0)
(-0.456156 1.80231e-08 0)
(-0.456156 1.63558e-08 0)
(-0.456156 6.61736e-09 0)
(0.297156 1.03557e-08 0)
(0.297156 1.94589e-08 0)
(0.297156 2.75097e-08 0)
(0.297156 3.40925e-08 0)
(0.297156 3.42993e-08 0)
(0.297156 5.31258e-08 0)
(0.297156 3.56314e-08 0)
(0.297156 6.48126e-08 0)
(0.297156 3.63968e-08 0)
(0.297156 6.70955e-08 0)
(0.297156 3.55695e-08 0)
(0.297156 6.18228e-08 0)
(0.297156 3.34946e-08 0)
(0.297156 4.97219e-08 0)
(0.297156 2.89045e-08 0)
(0.297156 3.56268e-08 0)
(0.297156 2.22576e-08 0)
(0.297156 1.68573e-08 0)
(0.297156 1.50562e-08 0)
(0.297156 5.77695e-09 0)
(1.17712 9.72664e-09 0)
(1.17712 1.77945e-08 0)
(1.17712 2.56684e-08 0)
(1.17712 3.1121e-08 0)
(1.17712 3.18498e-08 0)
(1.17712 4.83839e-08 0)
(1.17712 3.27403e-08 0)
(1.17712 5.91249e-08 0)
(1.17712 3.30498e-08 0)
(1.17712 6.12612e-08 0)
(1.17712 3.19994e-08 0)
(1.17712 5.64695e-08 0)
(1.17712 2.99001e-08 0)
(1.17712 4.53863e-08 0)
(1.17712 2.56698e-08 0)
(1.17712 3.24502e-08 0)
(1.17712 1.95843e-08 0)
(1.17712 1.52131e-08 0)
(1.17712 1.33805e-08 0)
(1.17712 4.81378e-09 0)
(2.18375 8.8157e-09 0)
(2.18375 1.55635e-08 0)
(2.18375 2.30626e-08 0)
(2.18375 2.7276e-08 0)
(2.18375 2.84446e-08 0)
(2.18375 4.23949e-08 0)
(2.18375 2.88914e-08 0)
(2.18375 5.19073e-08 0)
(2.18375 2.88081e-08 0)
(2.18375 5.38278e-08 0)
(2.18375 2.76136e-08 0)
(2.18375 4.96412e-08 0)
(2.18375 2.55934e-08 0)
(2.18375 3.98314e-08 0)
(2.18375 2.18541e-08 0)
(2.18375 2.84538e-08 0)
(2.18375 1.64849e-08 0)
(2.18375 1.31868e-08 0)
(2.18375 1.14183e-08 0)
(2.18375 3.81556e-09 0)
(3.31703 7.6039e-09 0)
(3.31703 1.28225e-08 0)
(3.31703 1.96643e-08 0)
(3.31703 2.26186e-08 0)
(3.31703 2.40805e-08 0)
(3.31703 3.51644e-08 0)
(3.31703 2.41338e-08 0)
(3.31703 4.31457e-08 0)
(3.31703 2.3756e-08 0)
(3.31703 4.4775e-08 0)
(3.31703 2.25219e-08 0)
(3.31703 4.13134e-08 0)
(3.31703 2.06911e-08 0)
(3.31703 3.30512e-08 0)
(3.31703 1.75601e-08 0)
(3.31703 2.36379e-08 0)
(3.31703 1.30601e-08 0)
(3.31703 1.07993e-08 0)
(3.31703 9.19408e-09 0)
(3.31703 2.81344e-09 0)
(4.57697 5.98867e-09 0)
(4.57697 9.70098e-09 0)
(4.57697 1.52914e-08 0)
(4.57697 1.75755e-08 0)
(4.57697 1.8422e-08 0)
(4.57697 2.72968e-08 0)
(4.57697 1.81254e-08 0)
(4.57697 3.34906e-08 0)
(4.57697 1.76132e-08 0)
(4.57697 3.47345e-08 0)
(4.57697 1.65416e-08 0)
(4.57697 3.2022e-08 0)
(4.57697 1.51295e-08 0)
(4.57697 2.55851e-08 0)
(4.57697 1.2795e-08 0)
(4.57697 1.82737e-08 0)
(4.57697 9.46857e-09 0)
(4.57697 8.16531e-09 0)
(4.57697 6.74626e-09 0)
(4.57697 1.93411e-09 0)
(5.96356 4.84206e-09 0)
(5.96356 6.98651e-09 0)
(5.96356 1.20157e-08 0)
(5.96356 1.22299e-08 0)
(5.96356 1.50644e-08 0)
(5.96356 1.8608e-08 0)
(5.96356 1.51643e-08 0)
(5.96356 2.28333e-08 0)
(5.96356 1.47146e-08 0)
(5.96356 2.37392e-08 0)
(5.96356 1.36053e-08 0)
(5.96356 2.20449e-08 0)
(5.96356 1.2008e-08 0)
(5.96356 1.77855e-08 0)
(5.96356 9.83731e-09 0)
(5.96356 1.27955e-08 0)
(5.96356 6.69611e-09 0)
(5.96356 5.92053e-09 0)
(5.96356 4.61663e-09 0)
(5.96356 1.03959e-09 0)
(7.47681 2.49e-09 0)
(7.47681 3.60846e-09 0)
(7.47681 5.5324e-09 0)
(7.47681 7.34154e-09 0)
(7.47681 5.926e-09 0)
(7.47681 1.13579e-08 0)
(7.47681 5.48762e-09 0)
(7.47681 1.3569e-08 0)
(7.47681 5.29769e-09 0)
(7.47681 1.38305e-08 0)
(7.47681 4.99399e-09 0)
(7.47681 1.2555e-08 0)
(7.47681 4.72733e-09 0)
(7.47681 9.96414e-09 0)
(7.47681 3.94452e-09 0)
(7.47681 7.02554e-09 0)
(7.47681 3.00805e-09 0)
(7.47681 3.12424e-09 0)
(7.47681 1.83184e-09 0)
(7.47681 7.25327e-10 0)
(9.11672 1.02615e-09 0)
(9.11672 1.08973e-09 0)
(9.11672 2.42362e-09 0)
(9.11672 1.39362e-09 0)
(9.11672 3.43206e-09 0)
(9.11672 1.87204e-09 0)
(9.11672 3.69129e-09 0)
(9.11672 2.32615e-09 0)
(9.11672 3.61158e-09 0)
(9.11672 2.46048e-09 0)
(9.11672 3.27094e-09 0)
(9.11672 2.39686e-09 0)
(9.11672 2.69764e-09 0)
(9.11672 2.02247e-09 0)
(9.11672 2.0537e-09 0)
(9.11672 1.53355e-09 0)
(9.11672 1.03431e-09 0)
(9.11672 9.49061e-10 0)
(9.11672 5.88712e-10 0)
(9.11672 -7.64394e-11 0)
)
;

boundaryField
{
    top
    {
        type            fixedValue;
        value           uniform (10 0 0);
    }
    bottom
    {
        type            fixedValue;
        value           uniform (0 0 0);
    }
    inlet
    {
        type            zeroGradient;
    }
    outlet
    {
        type            zeroGradient;
    }
    frontAndBack
    {
        type            empty;
    }
}


// ************************************************************************* //
