/*--------------------------------*- C++ -*----------------------------------*\
| =========                 |                                                 |
| \\      /  F ield         | OpenFOAM: The Open Source CFD Toolbox           |
|  \\    /   O peration     | Version:  4.1                                   |
|   \\  /    A nd           | Web:      www.OpenFOAM.org                      |
|    \\/     M anipulation  |                                                 |
\*---------------------------------------------------------------------------*/
FoamFile
{
    version     2.0;
    format      ascii;
    class       volScalarField;
    location    "1.8";
    object      p;
}
// * * * * * * * * * * * * * * * * * * * * * * * * * * * * * * * * * * * * * //

dimensions      [0 2 -2 0 0 0 0];

internalField   nonuniform List<scalar> 
400
(
2.0399e-08
2.2711e-08
1.94264e-08
2.073e-08
1.83148e-08
1.89897e-08
1.71588e-08
1.73367e-08
1.59391e-08
1.57356e-08
1.4679e-08
1.41646e-08
1.33979e-08
1.26066e-08
1.21116e-08
1.1047e-08
1.08393e-08
9.49925e-09
9.67635e-09
9.16579e-09
2.0325e-08
2.26351e-08
1.94207e-08
2.07285e-08
1.83149e-08
1.89895e-08
1.7159e-08
1.73366e-08
1.59392e-08
1.57355e-08
1.46791e-08
1.41646e-08
1.33979e-08
1.26066e-08
1.21115e-08
1.1047e-08
1.08385e-08
9.4998e-09
9.62569e-09
9.11224e-09
2.02832e-08
2.25814e-08
1.94137e-08
2.07283e-08
1.8314e-08
1.89901e-08
1.71585e-08
1.7337e-08
1.59389e-08
1.57357e-08
1.46789e-08
1.41647e-08
1.33979e-08
1.26065e-08
1.21116e-08
1.10468e-08
1.08381e-08
9.49927e-09
9.58601e-09
9.07557e-09
2.02701e-08
2.25563e-08
1.94072e-08
2.07285e-08
1.8313e-08
1.89908e-08
1.71579e-08
1.73374e-08
1.59385e-08
1.5736e-08
1.46788e-08
1.41648e-08
1.33979e-08
1.26064e-08
1.21117e-08
1.10465e-08
1.08379e-08
9.49792e-09
9.56324e-09
9.05687e-09
2.02743e-08
2.2551e-08
1.9401e-08
2.07286e-08
1.83122e-08
1.89913e-08
1.71575e-08
1.73378e-08
1.59383e-08
1.57362e-08
1.46786e-08
1.41648e-08
1.33979e-08
1.26064e-08
1.21119e-08
1.10463e-08
1.08378e-08
9.49618e-09
9.55367e-09
9.05037e-09
2.02898e-08
2.25591e-08
1.93948e-08
2.07286e-08
1.83115e-08
1.89917e-08
1.71571e-08
1.7338e-08
1.59381e-08
1.57363e-08
1.46785e-08
1.41649e-08
1.33979e-08
1.26063e-08
1.2112e-08
1.10461e-08
1.08378e-08
9.49421e-09
9.55467e-09
9.05345e-09
2.03133e-08
2.25765e-08
1.93885e-08
2.07286e-08
1.83109e-08
1.89921e-08
1.71568e-08
1.73383e-08
1.59379e-08
1.57364e-08
1.46785e-08
1.41649e-08
1.33979e-08
1.26063e-08
1.21121e-08
1.1046e-08
1.08378e-08
9.4922e-09
9.56452e-09
9.06444e-09
2.0341e-08
2.25992e-08
1.9382e-08
2.07285e-08
1.83105e-08
1.89923e-08
1.71566e-08
1.73384e-08
1.59378e-08
1.57365e-08
1.46784e-08
1.41649e-08
1.33979e-08
1.26063e-08
1.21121e-08
1.10459e-08
1.08379e-08
9.4903e-09
9.58112e-09
9.08119e-09
2.0369e-08
2.2623e-08
1.93753e-08
2.07282e-08
1.83101e-08
1.89925e-08
1.71565e-08
1.73385e-08
1.59377e-08
1.57366e-08
1.46784e-08
1.41649e-08
1.33979e-08
1.26062e-08
1.21122e-08
1.10458e-08
1.08379e-08
9.48866e-09
9.60191e-09
9.10109e-09
2.03937e-08
2.26443e-08
1.93684e-08
2.07277e-08
1.83099e-08
1.89926e-08
1.71564e-08
1.73386e-08
1.59377e-08
1.57366e-08
1.46784e-08
1.41649e-08
1.33979e-08
1.26062e-08
1.21122e-08
1.10458e-08
1.08379e-08
9.48738e-09
9.62416e-09
9.12146e-09
2.0412e-08
2.26599e-08
1.93614e-08
2.0727e-08
1.83097e-08
1.89926e-08
1.71564e-08
1.73386e-08
1.59377e-08
1.57366e-08
1.46784e-08
1.41649e-08
1.33979e-08
1.26062e-08
1.21122e-08
1.10458e-08
1.08379e-08
9.48653e-09
9.64516e-09
9.13967e-09
2.04216e-08
2.26674e-08
1.93545e-08
2.07261e-08
1.83097e-08
1.89924e-08
1.71565e-08
1.73385e-08
1.59377e-08
1.57366e-08
1.46784e-08
1.41649e-08
1.33979e-08
1.26062e-08
1.21122e-08
1.10459e-08
1.08378e-08
9.48613e-09
9.66246e-09
9.15341e-09
2.0421e-08
2.26654e-08
1.93478e-08
2.0725e-08
1.83098e-08
1.89922e-08
1.71566e-08
1.73384e-08
1.59378e-08
1.57365e-08
1.46784e-08
1.41649e-08
1.33979e-08
1.26062e-08
1.21122e-08
1.1046e-08
1.08376e-08
9.48616e-09
9.67396e-09
9.16073e-09
2.04099e-08
2.26537e-08
1.93416e-08
2.07237e-08
1.83099e-08
1.89919e-08
1.71569e-08
1.73382e-08
1.59379e-08
1.57364e-08
1.46785e-08
1.41649e-08
1.33979e-08
1.26063e-08
1.21121e-08
1.10461e-08
1.08373e-08
9.48656e-09
9.67819e-09
9.1603e-09
2.03887e-08
2.26328e-08
1.93359e-08
2.07222e-08
1.83102e-08
1.89915e-08
1.71572e-08
1.7338e-08
1.59381e-08
1.57363e-08
1.46786e-08
1.41648e-08
1.33979e-08
1.26063e-08
1.21121e-08
1.10462e-08
1.08368e-08
9.48726e-09
9.67429e-09
9.15145e-09
2.03595e-08
2.26051e-08
1.9331e-08
2.07205e-08
1.83106e-08
1.8991e-08
1.71575e-08
1.73377e-08
1.59383e-08
1.57361e-08
1.46787e-08
1.41648e-08
1.33979e-08
1.26063e-08
1.2112e-08
1.10464e-08
1.08363e-08
9.48814e-09
9.6625e-09
9.13449e-09
2.03247e-08
2.25737e-08
1.93271e-08
2.07187e-08
1.83111e-08
1.89904e-08
1.7158e-08
1.73373e-08
1.59386e-08
1.57359e-08
1.46788e-08
1.41647e-08
1.33979e-08
1.26064e-08
1.21119e-08
1.10466e-08
1.08356e-08
9.48913e-09
9.64379e-09
9.11027e-09
2.02894e-08
2.25443e-08
1.93244e-08
2.07168e-08
1.83119e-08
1.89897e-08
1.71585e-08
1.73369e-08
1.5939e-08
1.57356e-08
1.4679e-08
1.41646e-08
1.33979e-08
1.26065e-08
1.21117e-08
1.10468e-08
1.08348e-08
9.49014e-09
9.62032e-09
9.08078e-09
2.02622e-08
2.25224e-08
1.93225e-08
2.0715e-08
1.83125e-08
1.89891e-08
1.7159e-08
1.73365e-08
1.59393e-08
1.57354e-08
1.46791e-08
1.41646e-08
1.33979e-08
1.26066e-08
1.21116e-08
1.10469e-08
1.08339e-08
9.49103e-09
9.59367e-09
9.049e-09
2.02573e-08
2.25128e-08
1.93199e-08
2.07146e-08
1.83121e-08
1.89893e-08
1.71588e-08
1.73366e-08
1.59391e-08
1.57355e-08
1.46791e-08
1.41646e-08
1.33979e-08
1.26065e-08
1.21116e-08
1.10468e-08
1.08334e-08
9.49138e-09
9.56853e-09
9.02431e-09
)
;

boundaryField
{
    top
    {
        type            zeroGradient;
    }
    bottom
    {
        type            zeroGradient;
    }
    inlet
    {
        type            fixedValue;
        value           uniform 0;
    }
    outlet
    {
        type            fixedValue;
        value           uniform 0;
    }
    frontAndBack
    {
        type            empty;
    }
}


// ************************************************************************* //
