/*--------------------------------*- C++ -*----------------------------------*\
| =========                 |                                                 |
| \\      /  F ield         | OpenFOAM: The Open Source CFD Toolbox           |
|  \\    /   O peration     | Version:  4.1                                   |
|   \\  /    A nd           | Web:      www.OpenFOAM.org                      |
|    \\/     M anipulation  |                                                 |
\*---------------------------------------------------------------------------*/
FoamFile
{
    version     2.0;
    format      ascii;
    class       surfaceScalarField;
    location    "1.8";
    object      phi;
}
// * * * * * * * * * * * * * * * * * * * * * * * * * * * * * * * * * * * * * //

dimensions      [0 3 -1 0 0 0 0];

internalField   nonuniform List<scalar> 
760
(
1.24996e-06
-3.17003e-14
1.24996e-06
-2.17107e-14
1.24996e-06
2.37779e-16
1.24996e-06
-1.50969e-15
1.24996e-06
1.00017e-15
1.24996e-06
-8.46761e-16
1.24996e-06
6.70527e-16
1.24996e-06
-5.26875e-16
1.24996e-06
3.98601e-16
1.24996e-06
-2.84137e-16
1.24996e-06
1.79697e-16
1.24996e-06
-8.22535e-17
1.24996e-06
-1.09694e-17
1.24996e-06
1.02114e-16
1.24996e-06
-1.97538e-16
1.24996e-06
2.75969e-16
1.24996e-06
-5.47014e-16
1.24996e-06
7.81264e-16
1.24996e-06
-1.30004e-14
-1.9233e-14
3.74989e-06
-9.57832e-14
3.74989e-06
-7.60157e-14
3.74989e-06
-1.65167e-15
3.74989e-06
-3.68119e-15
3.74989e-06
2.09406e-15
3.74989e-06
-1.83448e-15
3.74989e-06
1.43922e-15
3.74989e-06
-1.13259e-15
3.74989e-06
8.55711e-16
3.74989e-06
-6.09073e-16
3.74989e-06
3.83867e-16
3.74989e-06
-1.73603e-16
3.74989e-06
-2.77039e-17
3.74989e-06
2.23929e-16
3.74989e-06
-4.35545e-16
3.74989e-06
5.75339e-16
3.74989e-06
-1.44893e-15
3.74989e-06
2.0742e-15
3.74989e-06
-4.79251e-14
-6.20707e-14
6.24982e-06
-1.73252e-13
6.24982e-06
-1.49927e-13
6.24982e-06
-5.95838e-15
6.24982e-06
-5.65928e-15
6.24982e-06
2.69063e-15
6.24982e-06
-2.46652e-15
6.24982e-06
1.91189e-15
6.24982e-06
-1.50758e-15
6.24982e-06
1.13707e-15
6.24982e-06
-8.07786e-16
6.24982e-06
5.06826e-16
6.24982e-06
-2.25609e-16
6.24982e-06
-4.38833e-17
6.24982e-06
3.05549e-16
6.24982e-06
-5.98216e-16
6.24982e-06
7.3642e-16
6.24982e-06
-2.40726e-15
6.24982e-06
3.49872e-15
6.24982e-06
-9.84676e-14
-1.18643e-13
8.74975e-06
-2.52424e-13
8.74975e-06
-2.30683e-13
8.74975e-06
-1.1876e-14
8.74975e-06
-7.35915e-15
8.74975e-06
2.85273e-15
8.74975e-06
-2.77646e-15
8.74975e-06
2.1195e-15
8.74975e-06
-1.67573e-15
8.74975e-06
1.26119e-15
8.74975e-06
-8.93892e-16
8.74975e-06
5.57785e-16
8.74975e-06
-2.43425e-16
8.74975e-06
-5.81551e-17
8.74975e-06
3.49499e-16
8.74975e-06
-6.90097e-16
8.74975e-06
7.7694e-16
8.74975e-06
-3.35577e-15
8.74975e-06
4.95575e-15
8.74975e-06
-1.57167e-13
-1.81506e-13
1.12497e-05
-3.2323e-13
1.12497e-05
-3.07046e-13
1.12497e-05
-1.85406e-14
1.12497e-05
-8.68966e-15
1.12497e-05
2.64934e-15
1.12497e-05
-2.80112e-15
1.12497e-05
2.09583e-15
1.12497e-05
-1.66304e-15
1.12497e-05
1.24818e-15
1.12497e-05
-8.82102e-16
1.12497e-05
5.46579e-16
1.12497e-05
-2.32401e-16
1.12497e-05
-6.93947e-17
1.12497e-05
3.58985e-16
1.12497e-05
-7.16783e-16
1.12497e-05
7.15797e-16
1.12497e-05
-4.22363e-15
1.12497e-05
6.34992e-15
1.12497e-05
-2.16858e-13
-2.43539e-13
1.37496e-05
-3.77956e-13
1.37496e-05
-3.70096e-13
1.37496e-05
-2.51036e-14
1.37496e-05
-9.569e-15
1.37496e-05
2.15361e-15
1.37496e-05
-2.58068e-15
1.37496e-05
1.87734e-15
1.37496e-05
-1.49758e-15
1.37496e-05
1.11966e-15
1.37496e-05
-7.88129e-16
1.37496e-05
4.83605e-16
1.37496e-05
-1.98021e-16
1.37496e-05
-7.67749e-17
1.37496e-05
3.37916e-16
1.37496e-05
-6.85119e-16
1.37496e-05
5.72637e-16
1.37496e-05
-4.94345e-15
1.37496e-05
7.58152e-15
1.37496e-05
-2.71069e-13
-2.98337e-13
1.62496e-05
-4.11277e-13
1.62496e-05
-4.13342e-13
1.62496e-05
-3.08058e-14
1.62496e-05
-9.93625e-15
1.62496e-05
1.44083e-15
1.62496e-05
-2.15843e-15
1.62496e-05
1.50258e-15
1.62496e-05
-1.20906e-15
1.62496e-05
8.98458e-16
1.62496e-05
-6.28481e-16
1.62496e-05
3.79675e-16
1.62496e-05
-1.45805e-16
1.62496e-05
-7.97896e-17
1.62496e-05
2.90873e-16
1.62496e-05
-6.03204e-16
1.62496e-05
3.67537e-16
1.62496e-05
-5.45732e-15
1.62496e-05
8.54824e-15
1.62496e-05
-3.14462e-13
-3.40661e-13
1.87496e-05
-4.20538e-13
1.87496e-05
-4.33061e-13
1.87496e-05
-3.5042e-14
1.87496e-05
-9.76174e-15
1.87496e-05
5.8586e-16
1.87496e-05
-1.58025e-15
1.87496e-05
1.01162e-15
1.87496e-05
-8.28403e-16
1.87496e-05
6.08211e-16
1.87496e-05
-4.20197e-16
1.87496e-05
2.45827e-16
1.87496e-05
-8.12198e-17
1.87496e-05
-7.82925e-17
1.87496e-05
2.23063e-16
1.87496e-05
-4.80325e-16
1.87496e-05
1.20586e-16
1.87496e-05
-5.72227e-15
1.87496e-05
9.15351e-15
1.87496e-05
-3.4313e-13
-3.66742e-13
2.12495e-05
-4.0563e-13
2.12495e-05
-4.2823e-13
2.12495e-05
-3.74126e-14
2.12495e-05
-9.05439e-15
2.12495e-05
-3.38826e-16
2.12495e-05
-8.94204e-16
2.12495e-05
4.45422e-16
2.12495e-05
-3.87329e-16
2.12495e-05
2.73108e-16
2.12495e-05
-1.80611e-16
2.12495e-05
9.31774e-17
2.12495e-05
-9.5939e-18
2.12495e-05
-7.24741e-17
2.12495e-05
1.40214e-16
2.12495e-05
-3.2689e-16
2.12495e-05
-1.4834e-16
2.12495e-05
-5.71448e-15
2.12495e-05
9.31969e-15
2.12495e-05
-3.54793e-13
-3.74489e-13
2.37495e-05
-3.68861e-13
2.37495e-05
-4.00423e-13
2.37495e-05
-3.7753e-14
2.37495e-05
-7.86582e-15
2.37495e-05
-1.2649e-15
2.37495e-05
-1.50089e-16
2.37495e-05
-1.54719e-16
2.37495e-05
8.2055e-17
2.37495e-05
-8.24478e-17
2.37495e-05
7.28597e-17
2.37495e-05
-6.7223e-17
2.37495e-05
6.39332e-17
2.37495e-05
-6.28662e-17
2.37495e-05
4.85112e-17
2.37495e-05
-1.54282e-16
2.37495e-05
-4.19796e-16
2.37495e-05
-5.43217e-15
2.37495e-05
9.0032e-15
2.37495e-05
-3.48872e-13
-3.6358e-13
2.62495e-05
-3.14596e-13
2.62495e-05
-3.53473e-13
2.62495e-05
-3.61365e-14
2.62495e-05
-6.29037e-15
2.62495e-05
-2.12937e-15
2.62495e-05
6.01078e-16
2.62495e-05
-7.4763e-16
2.62495e-05
5.4761e-16
2.62495e-05
-4.3416e-16
2.62495e-05
3.2293e-16
2.62495e-05
-2.24484e-16
2.62495e-05
1.34477e-16
2.62495e-05
-5.03248e-17
2.62495e-05
-4.5532e-17
2.62495e-05
2.5322e-17
2.62495e-05
-6.74977e-16
2.62495e-05
-4.89678e-15
2.62495e-05
8.20763e-15
2.62495e-05
-3.26448e-13
-3.3543e-13
2.87495e-05
-2.48781e-13
2.87495e-05
-2.92973e-13
2.87495e-05
-3.28514e-14
2.87495e-05
-4.4608e-15
2.87495e-05
-2.87527e-15
2.87495e-05
1.30761e-15
2.87495e-05
-1.29278e-15
2.87495e-05
9.77534e-16
2.87495e-05
-7.58039e-16
2.87495e-05
5.52597e-16
2.87495e-05
-3.67993e-16
2.87495e-05
1.97409e-16
2.87495e-05
-3.59511e-17
2.87495e-05
-1.35163e-16
2.87495e-05
1.99138e-16
2.87495e-05
-8.9592e-16
2.87495e-05
-4.15231e-15
2.87495e-05
6.99253e-15
2.87495e-05
-2.90082e-13
-2.93009e-13
3.12496e-05
-1.78381e-13
3.12496e-05
-2.25683e-13
3.12496e-05
-2.8349e-14
3.12496e-05
-2.54008e-15
3.12496e-05
-3.45167e-15
3.12496e-05
1.91784e-15
3.12496e-05
-1.75073e-15
3.12496e-05
1.34069e-15
3.12496e-05
-1.03068e-15
3.12496e-05
7.45312e-16
3.12496e-05
-4.87487e-16
3.12496e-05
2.4835e-16
3.12496e-05
-2.10399e-17
3.12496e-05
-2.13581e-16
3.12496e-05
3.5409e-16
3.12496e-05
-1.06574e-15
3.12496e-05
-3.26303e-15
3.12496e-05
5.47333e-15
3.12496e-05
-2.43561e-13
-2.40588e-13
3.37496e-05
-1.10602e-13
3.37496e-05
-1.58698e-13
3.37496e-05
-2.31739e-14
3.37496e-05
-7.09647e-16
3.37496e-05
-3.81319e-15
3.37496e-05
2.38075e-15
3.37496e-05
-2.08347e-15
3.37496e-05
1.60692e-15
3.37496e-05
-1.22946e-15
3.37496e-05
8.8515e-16
3.37496e-05
-5.73147e-16
3.37496e-05
2.83189e-16
3.37496e-05
-6.98795e-18
3.37496e-05
-2.74047e-16
3.37496e-05
4.77029e-16
3.37496e-05
-1.16901e-15
3.37496e-05
-2.30912e-15
3.37496e-05
3.81417e-15
3.37496e-05
-1.9147e-13
-1.8329e-13
3.62496e-05
-5.22803e-14
3.62496e-05
-9.87629e-14
3.62496e-05
-1.78723e-14
3.62496e-05
8.44083e-16
3.62496e-05
-3.91903e-15
3.62496e-05
2.64671e-15
3.62496e-05
-2.25481e-15
3.62496e-05
1.74735e-15
3.62496e-05
-1.33281e-15
3.62496e-05
9.56871e-16
3.62496e-05
-6.15603e-16
3.62496e-05
2.98057e-16
3.62496e-05
4.82647e-18
3.62496e-05
-3.10083e-16
3.62496e-05
5.55093e-16
3.62496e-05
-1.19213e-15
3.62496e-05
-1.38141e-15
3.62496e-05
2.20759e-15
3.62496e-05
-1.38825e-13
-1.26694e-13
3.87497e-05
-8.80622e-15
3.87497e-05
-5.11355e-14
3.87497e-05
-1.29102e-14
3.87497e-05
1.9443e-15
3.87497e-05
-3.73176e-15
3.87497e-05
2.66825e-15
3.87497e-05
-2.23056e-15
3.87497e-05
1.73457e-15
3.87497e-05
-1.32024e-15
3.87497e-05
9.46081e-16
3.87497e-05
-6.05961e-16
3.87497e-05
2.89248e-16
3.87497e-05
1.30816e-17
3.87497e-05
-3.15656e-16
3.87497e-05
5.76022e-16
3.87497e-05
-1.12385e-15
3.87497e-05
-5.74602e-16
3.87497e-05
8.51814e-16
3.87497e-05
-9.03953e-14
-7.61206e-14
4.12498e-05
1.622e-14
4.12498e-05
-1.91643e-14
4.12498e-05
-8.58024e-15
4.12498e-05
2.43613e-15
4.12498e-05
-3.21607e-15
4.12498e-05
2.40087e-15
4.12498e-05
-1.97893e-15
4.12498e-05
1.54304e-15
4.12498e-05
-1.17267e-15
4.12498e-05
8.39252e-16
4.12498e-05
-5.35862e-16
4.12498e-05
2.53224e-16
4.12498e-05
1.67075e-17
4.12498e-05
-2.8536e-16
4.12498e-05
5.28491e-16
4.12498e-05
-9.55805e-16
4.12498e-05
1.91314e-17
4.12498e-05
-8.64585e-17
4.12498e-05
-5.04119e-14
-3.62946e-14
4.37498e-05
2.25171e-14
4.37498e-05
-2.73551e-15
4.37498e-05
-4.96455e-15
4.37498e-05
2.1968e-15
4.37498e-05
-2.33756e-15
4.37498e-05
1.80355e-15
4.37498e-05
-1.47063e-15
4.37498e-05
1.14916e-15
4.37498e-05
-8.72366e-16
4.37498e-05
6.23794e-16
4.37498e-05
-3.97439e-16
4.37498e-05
1.86515e-16
4.37498e-05
1.49828e-17
4.37498e-05
-2.146e-16
4.37498e-05
4.02348e-16
4.37498e-05
-6.83069e-16
4.37498e-05
3.16834e-16
4.37498e-05
-4.96333e-16
4.37498e-05
-2.15491e-14
-1.02893e-14
4.62499e-05
1.26385e-14
4.62499e-05
1.27942e-15
4.62499e-05
-1.89725e-15
4.62499e-05
1.13782e-15
4.62499e-05
-1.06116e-15
4.62499e-05
8.38939e-16
4.62499e-05
-6.78603e-16
4.62499e-05
5.31135e-16
4.62499e-05
-4.0289e-16
4.62499e-05
2.87932e-16
4.62499e-05
-1.83198e-16
4.62499e-05
8.55861e-17
4.62499e-05
7.68845e-18
4.62499e-05
-9.97264e-17
4.62499e-05
1.8886e-16
4.62499e-05
-3.04409e-16
4.62499e-05
2.49261e-16
4.62499e-05
-3.61601e-16
4.62499e-05
-5.05967e-15
3.82706e-16
4.875e-05
4.875e-05
4.875e-05
4.875e-05
4.875e-05
4.875e-05
4.875e-05
4.875e-05
4.875e-05
4.875e-05
4.875e-05
4.875e-05
4.875e-05
4.875e-05
4.875e-05
4.875e-05
4.875e-05
4.875e-05
4.875e-05
)
;

boundaryField
{
    top
    {
        type            calculated;
        value           uniform 0;
    }
    bottom
    {
        type            calculated;
        value           uniform 0;
    }
    inlet
    {
        type            calculated;
        value           nonuniform List<scalar> 
20
(
-1.24996e-06
-3.74989e-06
-6.24982e-06
-8.74975e-06
-1.12497e-05
-1.37496e-05
-1.62496e-05
-1.87496e-05
-2.12495e-05
-2.37495e-05
-2.62495e-05
-2.87495e-05
-3.12496e-05
-3.37496e-05
-3.62496e-05
-3.87497e-05
-4.12498e-05
-4.37498e-05
-4.62499e-05
-4.875e-05
)
;
    }
    outlet
    {
        type            calculated;
        value           nonuniform List<scalar> 
20
(
1.24996e-06
3.74989e-06
6.24982e-06
8.74975e-06
1.12497e-05
1.37496e-05
1.62496e-05
1.87496e-05
2.12495e-05
2.37495e-05
2.62495e-05
2.87495e-05
3.12496e-05
3.37496e-05
3.62496e-05
3.87497e-05
4.12498e-05
4.37498e-05
4.62499e-05
4.875e-05
)
;
    }
    frontAndBack
    {
        type            empty;
        value           nonuniform 0();
    }
}


// ************************************************************************* //
