/*--------------------------------*- C++ -*----------------------------------*\
| =========                 |                                                 |
| \\      /  F ield         | OpenFOAM: The Open Source CFD Toolbox           |
|  \\    /   O peration     | Version:  4.1                                   |
|   \\  /    A nd           | Web:      www.OpenFOAM.org                      |
|    \\/     M anipulation  |                                                 |
\*---------------------------------------------------------------------------*/
FoamFile
{
    version     2.0;
    format      ascii;
    class       volVectorField;
    location    "1.8";
    object      U;
}
// * * * * * * * * * * * * * * * * * * * * * * * * * * * * * * * * * * * * * //

dimensions      [0 1 -1 0 0 0 0];

internalField   nonuniform List<vector> 
400
(
(0.0249993 -1.40498e-11 0)
(0.0249993 -8.68324e-12 0)
(0.0249993 3.08986e-13 0)
(0.0249993 -7.52529e-13 0)
(0.0249993 5.26683e-13 0)
(0.0249993 -4.41105e-13 0)
(0.0249993 3.50469e-13 0)
(0.0249993 -2.75255e-13 0)
(0.0249993 2.08368e-13 0)
(0.0249993 -1.48638e-13 0)
(0.0249993 9.41509e-14 0)
(0.0249993 -4.33196e-14 0)
(0.0249993 -5.30117e-15 0)
(0.0249993 5.28928e-14 0)
(0.0249993 -1.02188e-13 0)
(0.0249993 1.45162e-13 0)
(0.0249993 -2.63334e-13 0)
(0.0249993 3.43455e-13 0)
(0.0249993 -4.88144e-12 0)
(0.0249993 -8.03745e-12 0)
(0.0749978 -5.9336e-11 0)
(0.0749978 -4.3627e-11 0)
(0.0749978 -1.66936e-13 0)
(0.0749978 -2.55376e-12 0)
(0.0749978 1.6017e-12 0)
(0.0749978 -1.37206e-12 0)
(0.0749978 1.0829e-12 0)
(0.0749978 -8.51358e-13 0)
(0.0749978 6.43772e-13 0)
(0.0749978 -4.58645e-13 0)
(0.0749978 2.89679e-13 0)
(0.0749978 -1.31985e-13 0)
(0.0749978 -1.89293e-14 0)
(0.0749978 1.66302e-13 0)
(0.0749978 -3.22352e-13 0)
(0.0749978 4.41118e-13 0)
(0.0749978 -9.56636e-13 0)
(0.0749978 1.39468e-12 0)
(0.0749978 -2.65942e-11 0)
(0.0749978 -3.68835e-11 0)
(0.124996 -1.31781e-10 0)
(0.124996 -1.09188e-10 0)
(0.124996 -3.33282e-12 0)
(0.124996 -4.68319e-12 0)
(0.124996 2.47298e-12 0)
(0.124996 -2.20577e-12 0)
(0.124996 1.72221e-12 0)
(0.124996 -1.35635e-12 0)
(0.124996 1.02406e-12 0)
(0.124996 -7.2833e-13 0)
(0.124996 4.58199e-13 0)
(0.124996 -2.0591e-13 0)
(0.124996 -3.57235e-14 0)
(0.124996 2.70897e-13 0)
(0.124996 -5.28311e-13 0)
(0.124996 6.78061e-13 0)
(0.124996 -1.90804e-12 0)
(0.124996 2.72223e-12 0)
(0.124996 -6.99991e-11 0)
(0.124996 -8.73905e-11 0)
(0.174995 -2.13288e-10 0)
(0.174995 -1.8958e-10 0)
(0.174995 -8.58843e-12 0)
(0.174995 -6.58559e-12 0)
(0.174995 2.87329e-12 0)
(0.174995 -2.69787e-12 0)
(0.174995 2.07827e-12 0)
(0.174995 -1.64051e-12 0)
(0.174995 1.23623e-12 0)
(0.174995 -8.77384e-13 0)
(0.174995 5.49241e-13 0)
(0.174995 -2.425e-13 0)
(0.174995 -5.15869e-14 0)
(0.174995 3.36547e-13 0)
(0.174995 -6.61173e-13 0)
(0.174995 7.84784e-13 0)
(0.174995 -2.89039e-12 0)
(0.174995 4.22045e-12 0)
(0.174995 -1.26471e-10 0)
(0.174995 -1.49176e-10 0)
(0.224994 -2.90822e-10 0)
(0.224994 -2.70962e-10 0)
(0.224994 -1.51174e-11 0)
(0.224994 -8.13092e-12 0)
(0.224994 2.83757e-12 0)
(0.224994 -2.85841e-12 0)
(0.224994 2.16363e-12 0)
(0.224994 -1.7132e-12 0)
(0.224994 1.28787e-12 0)
(0.224994 -9.11656e-13 0)
(0.224994 5.67157e-13 0)
(0.224994 -2.44785e-13 0)
(0.224994 -6.46588e-14 0)
(0.224994 3.62755e-13 0)
(0.224994 -7.19636e-13 0)
(0.224994 7.70358e-13 0)
(0.224994 -3.81959e-12 0)
(0.224994 5.67023e-12 0)
(0.224994 -1.87533e-10 0)
(0.224994 -2.13503e-10 0)
(0.274993 -3.55216e-10 0)
(0.274993 -3.42632e-10 0)
(0.274993 -2.19447e-11 0)
(0.274993 -9.25002e-12 0)
(0.274993 2.46594e-12 0)
(0.274993 -2.74732e-12 0)
(0.274993 2.03094e-12 0)
(0.274993 -1.61515e-12 0)
(0.274993 1.21022e-12 0)
(0.274993 -8.53792e-13 0)
(0.274993 5.26804e-13 0)
(0.274993 -2.20414e-13 0)
(0.274993 -7.41233e-14 0)
(0.274993 3.55591e-13 0)
(0.274993 -7.14668e-13 0)
(0.274993 6.62317e-13 0)
(0.274993 -4.62781e-12 0)
(0.274993 7.0085e-12 0)
(0.274993 -2.45968e-10 0)
(0.274993 -2.73368e-10 0)
(0.324992 -4.00214e-10 0)
(0.324992 -3.97048e-10 0)
(0.324992 -2.8255e-11 0)
(0.324992 -9.88371e-12 0)
(0.324992 1.84184e-12 0)
(0.324992 -2.41402e-12 0)
(0.324992 1.72383e-12 0)
(0.324992 -1.38007e-12 0)
(0.324992 1.02916e-12 0)
(0.324992 -7.2251e-13 0)
(0.324992 4.40443e-13 0)
(0.324992 -1.75657e-13 0)
(0.324992 -7.93994e-14 0)
(0.324992 3.20223e-13 0)
(0.324992 -6.55519e-13 0)
(0.324992 4.82937e-13 0)
(0.324992 -5.25667e-12 0)
(0.324992 8.13374e-12 0)
(0.324992 -2.95905e-10 0)
(0.324992 -3.23034e-10 0)
(0.374991 -4.21853e-10 0)
(0.374991 -4.29129e-10 0)
(0.374991 -3.3355e-11 0)
(0.374991 -9.98331e-12 0)
(0.374991 1.03959e-12 0)
(0.374991 -1.90219e-12 0)
(0.374991 1.28094e-12 0)
(0.374991 -1.03772e-12 0)
(0.374991 7.6751e-13 0)
(0.374991 -5.34284e-13 0)
(0.374991 3.18807e-13 0)
(0.374991 -1.15916e-13 0)
(0.374991 -8.0158e-14 0)
(0.374991 2.61449e-13 0)
(0.374991 -5.50684e-13 0)
(0.374991 2.52008e-13 0)
(0.374991 -5.65437e-12 0)
(0.374991 8.94461e-12 0)
(0.374991 -3.32699e-10 0)
(0.374991 -3.57964e-10 0)
(0.424991 -4.18769e-10 0)
(0.424991 -4.36521e-10 0)
(0.424991 -3.67334e-11 0)
(0.424991 -9.5356e-12 0)
(0.424991 1.32164e-13 0)
(0.424991 -1.25796e-12 0)
(0.424991 7.42152e-13 0)
(0.424991 -6.18943e-13 0)
(0.424991 4.48812e-13 0)
(0.424991 -3.06039e-13 0)
(0.424991 1.72807e-13 0)
(0.424991 -4.65111e-14 0)
(0.424991 -7.64109e-14 0)
(0.424991 1.84645e-13 0)
(0.424991 -4.09825e-13 0)
(0.424991 -1.07598e-14 0)
(0.424991 -5.78626e-12 0)
(0.424991 9.34904e-12 0)
(0.424991 -3.53219e-10 0)
(0.424991 -3.75182e-10 0)
(0.474991 -3.9211e-10 0)
(0.474991 -4.19545e-10 0)
(0.474991 -3.8103e-11 0)
(0.474991 -8.56997e-12 0)
(0.474991 -8.09734e-13 0)
(0.474991 -5.30292e-13 0)
(0.474991 1.4867e-13 0)
(0.474991 -1.55685e-13 0)
(0.474991 9.73943e-14 0)
(0.474991 -5.51733e-14 0)
(0.474991 1.35398e-14 0)
(0.474991 2.73181e-14 0)
(0.474991 -6.85233e-14 0)
(0.474991 9.5781e-14 0)
(0.474991 -2.43853e-13 0)
(0.474991 -2.85683e-13 0)
(0.474991 -5.63889e-12 0)
(0.474991 9.28237e-12 0)
(0.474991 -3.56028e-10 0)
(0.474991 -3.7347e-10 0)
(0.524991 -3.4532e-10 0)
(0.524991 -3.81008e-10 0)
(0.524991 -3.742e-11 0)
(0.524991 -7.15998e-12 0)
(0.524991 -1.7201e-12 0)
(0.524991 2.30191e-13 0)
(0.524991 -4.58082e-13 0)
(0.524991 3.19787e-13 0)
(0.524991 -2.62284e-13 0)
(0.524991 2.00888e-13 0)
(0.524991 -1.47979e-13 0)
(0.524991 1.00543e-13 0)
(0.524991 -5.72015e-14 0)
(0.524991 1.24536e-15 0)
(0.524991 -6.46147e-14 0)
(0.524991 -5.53565e-13 0)
(0.524991 -5.22203e-12 0)
(0.524991 8.72147e-12 0)
(0.524991 -3.41406e-10 0)
(0.524991 -3.53399e-10 0)
(0.574991 -2.83684e-10 0)
(0.574991 -3.25758e-10 0)
(0.574991 -3.48746e-11 0)
(0.574991 -5.42075e-12 0)
(0.574991 -2.53879e-12 0)
(0.574991 9.71939e-13 0)
(0.574991 -1.0371e-12 0)
(0.574991 7.75383e-13 0)
(0.574991 -6.05994e-13 0)
(0.574991 4.4494e-13 0)
(0.574991 -3.00965e-13 0)
(0.574991 1.684e-13 0)
(0.574991 -4.34371e-14 0)
(0.574991 -9.22923e-14 0)
(0.574991 1.15337e-13 0)
(0.574991 -7.9595e-13 0)
(0.574991 -4.56877e-12 0)
(0.574991 7.69648e-12 0)
(0.574991 -3.11227e-10 0)
(0.574991 -3.17218e-10 0)
(0.624991 -2.13828e-10 0)
(0.624991 -2.60152e-10 0)
(0.624991 -3.08517e-11 0)
(0.624991 -3.50274e-12 0)
(0.624991 -3.21183e-12 0)
(0.624991 1.64303e-12 0)
(0.624991 -1.54823e-12 0)
(0.624991 1.17951e-12 0)
(0.624991 -9.09944e-13 0)
(0.624991 6.60145e-13 0)
(0.624991 -4.34945e-13 0)
(0.624991 2.26376e-13 0)
(0.624991 -2.84513e-14 0)
(0.624991 -1.78007e-13 0)
(0.624991 2.82985e-13 0)
(0.624991 -9.95319e-13 0)
(0.624991 -3.73409e-12 0)
(0.624991 6.29553e-12 0)
(0.624991 -2.68752e-10 0)
(0.624991 -2.68636e-10 0)
(0.674992 -1.43006e-10 0)
(0.674992 -1.91304e-10 0)
(0.674992 -2.58704e-11 0)
(0.674992 -1.58125e-12 0)
(0.674992 -3.69135e-12 0)
(0.674992 2.19204e-12 0)
(0.674992 -1.95274e-12 0)
(0.674992 1.50149e-12 0)
(0.674992 -1.15111e-12 0)
(0.674992 8.30263e-13 0)
(0.674992 -5.39885e-13 0)
(0.674992 2.70241e-13 0)
(0.674992 -1.36121e-14 0)
(0.674992 -2.49095e-13 0)
(0.674992 4.25162e-13 0)
(0.674992 -1.13547e-12 0)
(0.674992 -2.79141e-12 0)
(0.674992 4.66165e-12 0)
(0.674992 -2.18265e-10 0)
(0.674992 -2.12455e-10 0)
(0.724993 -7.84445e-11 0)
(0.724993 -1.26368e-10 0)
(0.724993 -2.05002e-11 0)
(0.724993 1.57688e-13 0)
(0.724993 -3.93569e-12 0)
(0.724993 2.56939e-12 0)
(0.724993 -2.21419e-12 0)
(0.724993 1.71234e-12 0)
(0.724993 -1.3078e-12 0)
(0.724993 9.40006e-13 0)
(0.724993 -6.06385e-13 0)
(0.724993 2.9611e-13 0)
(0.724993 -3.20548e-16 0)
(0.724993 -2.9902e-13 0)
(0.724993 5.28994e-13 0)
(0.724993 -1.20209e-12 0)
(0.724993 -1.82727e-12 0)
(0.724993 2.97837e-12 0)
(0.724993 -1.64703e-10 0)
(0.724993 -1.54164e-10 0)
(0.774994 -2.64265e-11 0)
(0.774994 -7.15494e-11 0)
(0.774994 -1.52725e-11 0)
(0.774994 1.53075e-12 0)
(0.774994 -3.90731e-12 0)
(0.774994 2.72737e-12 0)
(0.774994 -2.29815e-12 0)
(0.774994 1.78448e-12 0)
(0.774994 -1.35942e-12 0)
(0.774994 9.74879e-13 0)
(0.774994 -6.25521e-13 0)
(0.774994 3.003e-13 0)
(0.774994 1.00562e-14 0)
(0.774994 -3.21599e-13 0)
(0.774994 5.82087e-13 0)
(0.774994 -1.18292e-12 0)
(0.774994 -9.35356e-13 0)
(0.774994 1.44799e-12 0)
(0.774994 -1.13069e-10 0)
(0.774994 -9.9329e-11 0)
(0.824995 8.17554e-12 0)
(0.824995 -3.14345e-11 0)
(0.824995 -1.05654e-11 0)
(0.824995 2.36013e-12 0)
(0.824995 -3.56042e-12 0)
(0.824995 2.61237e-12 0)
(0.824995 -2.16549e-12 0)
(0.824995 1.68664e-12 0)
(0.824995 -1.28255e-12 0)
(0.824995 9.18319e-13 0)
(0.824995 -5.87022e-13 0)
(0.824995 2.78435e-13 0)
(0.824995 1.62306e-14 0)
(0.824995 -3.10181e-13 0)
(0.824995 5.70886e-13 0)
(0.824995 -1.0652e-12 0)
(0.824995 -2.12343e-13 0)
(0.824995 2.66986e-13 0)
(0.824995 -6.79929e-11 0)
(0.824995 -5.31617e-11 0)
(0.874996 2.31993e-11 0)
(0.874996 -7.5904e-12 0)
(0.874996 -6.54733e-12 0)
(0.874996 2.46606e-12 0)
(0.874996 -2.83538e-12 0)
(0.874996 2.15971e-12 0)
(0.874996 -1.76848e-12 0)
(0.874996 1.38071e-12 0)
(0.874996 -1.04855e-12 0)
(0.874996 7.49979e-13 0)
(0.874996 -4.78169e-13 0)
(0.874996 2.24907e-13 0)
(0.874996 1.70176e-14 0)
(0.874996 -2.57141e-13 0)
(0.874996 4.79572e-13 0)
(0.874996 -8.35698e-13 0)
(0.874996 2.38091e-13 0)
(0.874996 -4.23161e-13 0)
(0.874996 -3.30285e-11 0)
(0.874996 -1.97978e-11 0)
(0.924998 2.00512e-11 0)
(0.924998 1.54587e-12 0)
(0.924998 -3.20774e-12 0)
(0.924998 1.78533e-12 0)
(0.924998 -1.72764e-12 0)
(0.924998 1.35579e-12 0)
(0.924998 -1.09965e-12 0)
(0.924998 8.60202e-13 0)
(0.924998 -6.52668e-13 0)
(0.924998 4.66514e-13 0)
(0.924998 -2.96934e-13 0)
(0.924998 1.38886e-13 0)
(0.924998 1.2123e-14 0)
(0.924998 -1.61384e-13 0)
(0.924998 3.04322e-13 0)
(0.924998 -5.00476e-13 0)
(0.924998 3.48263e-13 0)
(0.924998 -5.16992e-13 0)
(0.924998 -1.06546e-11 0)
(0.924998 -1.93688e-12 0)
(0.974999 7.47651e-12 0)
(0.974999 1.64092e-12 0)
(0.974999 -8.81526e-13 0)
(0.974999 6.18024e-13 0)
(0.974999 -5.49175e-13 0)
(0.974999 4.38116e-13 0)
(0.974999 -3.5332e-13 0)
(0.974999 2.76744e-13 0)
(0.974999 -2.0987e-13 0)
(0.974999 1.49969e-13 0)
(0.974999 -9.53769e-14 0)
(0.974999 4.44902e-14 0)
(0.974999 4.14662e-15 0)
(0.974999 -5.20727e-14 0)
(0.974999 9.89467e-14 0)
(0.974999 -1.57062e-13 0)
(0.974999 1.4952e-13 0)
(0.974999 -2.41275e-13 0)
(0.974999 -1.38951e-12 0)
(0.974999 1.53656e-12 0)
)
;

boundaryField
{
    top
    {
        type            fixedValue;
        value           uniform (1 0 0);
    }
    bottom
    {
        type            fixedValue;
        value           uniform (0 0 0);
    }
    inlet
    {
        type            zeroGradient;
    }
    outlet
    {
        type            zeroGradient;
    }
    frontAndBack
    {
        type            empty;
    }
}


// ************************************************************************* //
