/*--------------------------------*- C++ -*----------------------------------*\
| =========                 |                                                 |
| \\      /  F ield         | OpenFOAM: The Open Source CFD Toolbox           |
|  \\    /   O peration     | Version:  4.1                                   |
|   \\  /    A nd           | Web:      www.OpenFOAM.org                      |
|    \\/     M anipulation  |                                                 |
\*---------------------------------------------------------------------------*/
FoamFile
{
    version     2.0;
    format      ascii;
    class       surfaceScalarField;
    location    "2.5";
    object      phi;
}
// * * * * * * * * * * * * * * * * * * * * * * * * * * * * * * * * * * * * * //

dimensions      [0 3 -1 0 0 0 0];

internalField   nonuniform List<scalar> 
760
(
3.1664e-05
-4.44847e-14
3.1664e-05
1.51062e-12
3.1664e-05
8.80514e-13
3.1664e-05
-2.65159e-12
3.1664e-05
1.7225e-12
3.1664e-05
-3.74219e-12
3.1664e-05
2.54198e-12
3.1664e-05
-5.50382e-12
3.1664e-05
1.96708e-12
3.1664e-05
-7.00986e-12
3.1664e-05
4.6128e-13
3.1664e-05
-8.41652e-12
3.1664e-05
-2.12991e-12
3.1664e-05
-9.70507e-12
3.1664e-05
-5.19373e-12
3.1664e-05
-1.00795e-11
3.1664e-05
-7.4937e-12
3.1664e-05
-7.9752e-12
3.1664e-05
-6.08146e-12
-2.63999e-12
8.86593e-05
-5.58986e-13
8.86593e-05
4.09506e-12
8.86593e-05
9.94735e-13
8.86593e-05
-3.14148e-12
8.86593e-05
2.55698e-12
8.86593e-05
-4.15286e-12
8.86593e-05
4.89449e-12
8.86593e-05
-5.9684e-12
8.86593e-05
5.20476e-12
8.86593e-05
-6.66935e-12
8.86593e-05
4.73045e-12
8.86593e-05
-6.47381e-12
8.86593e-05
3.1533e-12
8.86593e-05
-5.73807e-12
8.86593e-05
9.58537e-13
8.86593e-05
-4.26049e-12
8.86593e-05
-1.49056e-12
8.86593e-05
-2.00117e-12
8.86593e-05
-4.69577e-12
-4.20372e-12
0.000139322
-1.08095e-12
0.000139322
7.16471e-12
0.000139322
5.91039e-13
0.000139322
-2.30188e-12
0.000139322
2.25512e-12
0.000139322
-2.77662e-12
0.000139322
5.97534e-12
0.000139322
-4.00455e-12
0.000139322
7.29588e-12
0.000139322
-3.36688e-12
0.000139322
8.30461e-12
0.000139322
-1.0851e-12
0.000139322
8.51536e-12
0.000139322
1.97477e-12
0.000139322
8.05971e-12
0.000139322
5.05203e-12
0.000139322
5.93649e-12
0.000139322
6.11337e-12
0.000139322
-3.74595e-12
-7.73071e-12
0.000183651
-1.14849e-12
0.000183651
1.01632e-11
0.000183651
-4.36774e-15
0.000183651
-8.86063e-13
0.000183651
1.25144e-12
0.000183651
-7.3225e-13
0.000183651
5.9739e-12
0.000183651
-1.22538e-12
0.000183651
8.05199e-12
0.000183651
6.35374e-13
0.000183651
1.03313e-11
0.000183651
4.67527e-12
0.000183651
1.21693e-11
0.000183651
9.55462e-12
0.000183651
1.33681e-11
0.000183651
1.36377e-11
0.000183651
1.1697e-11
0.000183651
1.31498e-11
0.000183651
-4.02208e-12
-1.18483e-11
0.000221648
-8.44128e-13
0.000221648
1.30728e-11
0.000221648
-7.19772e-13
0.000221648
9.01252e-13
0.000221648
-2.98165e-13
0.000221648
1.64846e-12
0.000221648
5.03295e-12
0.000221648
1.8759e-12
0.000221648
7.54058e-12
0.000221648
4.6726e-12
0.000221648
1.07051e-11
0.000221648
9.93658e-12
0.000221648
1.37423e-11
0.000221648
1.59146e-11
0.000221648
1.61977e-11
0.000221648
2.02762e-11
0.000221648
1.48954e-11
0.000221648
1.8022e-11
0.000221648
-5.97739e-12
-1.66914e-11
0.000253312
-2.26037e-13
0.000253312
1.57593e-11
0.000253312
-1.5232e-12
0.000253312
2.96994e-12
0.000253312
-2.20043e-12
0.000253312
4.27469e-12
0.000253312
3.38662e-12
0.000253312
5.22496e-12
0.000253312
6.101e-12
0.000253312
8.75767e-12
0.000253312
9.89305e-12
0.000253312
1.48562e-11
0.000253312
1.3866e-11
0.000253312
2.14236e-11
0.000253312
1.73601e-11
0.000253312
2.55738e-11
0.000253312
1.64668e-11
0.000253312
2.14476e-11
0.000253312
-8.60288e-12
-2.14658e-11
0.000278643
6.03883e-13
0.000278643
1.81087e-11
0.000278643
-2.38166e-12
0.000278643
5.17606e-12
0.000278643
-4.25751e-12
0.000278643
6.99324e-12
0.000278643
1.2895e-12
0.000278643
8.64746e-12
0.000278643
4.06307e-12
0.000278643
1.27613e-11
0.000278643
8.29803e-12
0.000278643
1.93977e-11
0.000278643
1.30236e-11
0.000278643
2.61915e-11
0.000278643
1.74149e-11
0.000278643
2.98177e-11
0.000278643
1.70084e-11
0.000278643
2.38218e-11
0.000278643
-1.12568e-11
-2.56448e-11
0.000297642
1.51825e-12
0.000297642
2.00031e-11
0.000297642
-3.26962e-12
0.000297642
7.36638e-12
0.000297642
-6.29888e-12
0.000297642
9.65036e-12
0.000297642
-1.03015e-12
0.000297642
1.19617e-11
0.000297642
1.70605e-12
0.000297642
1.65294e-11
0.000297642
6.24518e-12
0.000297642
2.34753e-11
0.000297642
1.15846e-11
0.000297642
3.02447e-11
0.000297642
1.67719e-11
0.000297642
3.31794e-11
0.000297642
1.69464e-11
0.000297642
2.54241e-11
0.000297642
-1.34746e-11
-2.88265e-11
0.000310307
2.37673e-12
0.000310307
2.13317e-11
0.000310307
-4.16155e-12
0.000310307
9.38967e-12
0.000310307
-8.1846e-12
0.000310307
1.20959e-11
0.000310307
-3.37805e-12
0.000310307
1.49872e-11
0.000310307
-7.46704e-13
0.000310307
1.98925e-11
0.000310307
3.97815e-12
0.000310307
2.69618e-11
0.000310307
9.80398e-12
0.000310307
3.35322e-11
0.000310307
1.56902e-11
0.000310307
3.57163e-11
0.000310307
1.65315e-11
0.000310307
2.64137e-11
0.000310307
-1.49756e-11
-3.07484e-11
0.00031664
3.04342e-12
0.00031664
2.19986e-11
0.00031664
-5.02209e-12
0.00031664
1.11065e-11
0.00031664
-9.80015e-12
0.00031664
1.41886e-11
0.00031664
-5.58889e-12
0.00031664
1.7556e-11
0.00031664
-3.11565e-12
0.00031664
2.26837e-11
0.00031664
1.68024e-12
0.00031664
2.97155e-11
0.00031664
7.85559e-12
0.00031664
3.59622e-11
0.00031664
1.43247e-11
0.00031664
3.74161e-11
0.00031664
1.58893e-11
0.00031664
2.68686e-11
0.00031664
-1.56222e-11
-3.12797e-11
0.00031664
3.40573e-12
0.00031664
2.19347e-11
0.00031664
-5.80023e-12
0.00031664
1.23975e-11
0.00031664
-1.10504e-11
0.00031664
1.57999e-11
0.00031664
-7.52006e-12
0.00031664
1.95201e-11
0.00031664
-5.25155e-12
0.00031664
2.47515e-11
0.00031664
-5.02761e-13
0.00031664
3.16018e-11
0.00031664
5.86767e-12
0.00031664
3.74346e-11
0.00031664
1.27729e-11
0.00031664
3.82376e-11
0.00031664
1.50722e-11
0.00031664
2.68244e-11
0.00031664
-1.53802e-11
-3.04064e-11
0.000310307
3.39135e-12
0.000310307
2.11079e-11
0.000310307
-6.42858e-12
0.000310307
1.31685e-11
0.000310307
-1.18563e-11
0.000310307
1.68178e-11
0.000310307
-9.04924e-12
0.000310307
2.07549e-11
0.000310307
-7.02872e-12
0.000310307
2.59664e-11
0.000310307
-2.45073e-12
0.000310307
3.25023e-11
0.000310307
3.94052e-12
0.000310307
3.78542e-11
0.000310307
1.10989e-11
0.000310307
3.81259e-11
0.000310307
1.40862e-11
0.000310307
2.62853e-11
0.000310307
-1.43026e-11
-2.82254e-11
0.000297642
2.98085e-12
0.000297642
1.9532e-11
0.000297642
-6.8285e-12
0.000297642
1.33544e-11
0.000297642
-1.21553e-11
0.000297642
1.71502e-11
0.000297642
-1.00757e-11
0.000297642
2.11602e-11
0.000297642
-8.34458e-12
0.000297642
2.62208e-11
0.000297642
-4.06739e-12
0.000297642
3.23142e-11
0.000297642
2.14913e-12
0.000297642
3.7128e-11
0.000297642
9.33611e-12
0.000297642
3.70059e-11
0.000297642
1.28943e-11
0.000297642
2.52128e-11
0.000297642
-1.25339e-11
-2.49496e-11
0.000278643
2.21503e-12
0.000278643
1.72733e-11
0.000278643
-6.91974e-12
0.000278643
1.29201e-11
0.000278643
-1.19048e-11
0.000278643
1.67282e-11
0.000278643
-1.05246e-11
0.000278643
2.06584e-11
0.000278643
-9.12498e-12
0.000278643
2.54227e-11
0.000278643
-5.28815e-12
0.000278643
3.09369e-11
0.000278643
5.30269e-13
0.000278643
3.51445e-11
0.000278643
7.46809e-12
0.000278643
3.47518e-11
0.000278643
1.13927e-11
0.000278643
2.34857e-11
0.000278643
-1.03401e-11
-2.09272e-11
0.000253312
1.19755e-12
0.000253312
1.44515e-11
0.000253312
-6.63412e-12
0.000253312
1.18615e-11
0.000253312
-1.10889e-11
0.000253312
1.55096e-11
0.000253312
-1.03545e-11
0.000253312
1.91933e-11
0.000253312
-9.33327e-12
0.000253312
2.34899e-11
0.000253312
-6.09271e-12
0.000253312
2.82609e-11
0.000253312
-9.36375e-13
0.000253312
3.17534e-11
0.000253312
5.40254e-12
0.000253312
3.1156e-11
0.000253312
9.38189e-12
0.000253312
2.08599e-11
0.000253312
-8.14344e-12
-1.666e-11
0.000221648
9.34871e-14
0.000221648
1.12365e-11
0.000221648
-5.92725e-12
0.000221648
1.02039e-11
0.000221648
-9.72071e-12
0.000221648
1.34836e-11
0.000221648
-9.55711e-12
0.000221648
1.67306e-11
0.000221648
-8.96843e-12
0.000221648
2.03514e-11
0.000221648
-6.50154e-12
0.000221648
2.41689e-11
0.000221648
-2.32387e-12
0.000221648
2.67691e-11
0.000221648
2.97689e-12
0.000221648
2.59319e-11
0.000221648
6.57472e-12
0.000221648
1.69655e-11
0.000221648
-6.5164e-12
-1.27955e-11
0.000183651
-9.0453e-13
0.000183651
7.84717e-12
0.000183651
-4.82336e-12
0.000183651
8.02547e-12
0.000183651
-7.91179e-12
0.000183651
1.06943e-11
0.000183651
-8.2629e-12
0.000183651
1.32667e-11
0.000183651
-8.21881e-12
0.000183651
1.59146e-11
0.000183651
-6.79213e-12
0.000183651
1.84386e-11
0.000183651
-4.04848e-12
0.000183651
1.97874e-11
0.000183651
-3.99292e-13
0.000183651
1.84555e-11
0.000183651
2.22661e-12
0.000183651
1.10435e-11
0.000183651
-6.40918e-12
-1.01901e-11
0.000139322
-1.42203e-12
0.000139322
4.46354e-12
0.000139322
-3.25404e-12
0.000139322
5.35899e-12
0.000139322
-5.53881e-12
0.000139322
7.19425e-12
0.000139322
-6.22007e-12
0.000139322
8.92652e-12
0.000139322
-6.6568e-12
0.000139322
1.04526e-11
0.000139322
-6.29725e-12
0.000139322
1.1583e-11
0.000139322
-5.15823e-12
0.000139322
1.1626e-11
0.000139322
-3.50524e-12
0.000139322
9.77961e-12
0.000139322
-2.34784e-12
0.000139322
4.07875e-12
0.000139322
-7.21473e-12
-8.80195e-12
8.86593e-05
-1.27199e-12
8.86593e-05
1.34685e-12
8.86593e-05
-1.35856e-12
8.86593e-05
2.3826e-12
8.86593e-05
-2.91287e-12
8.86593e-05
3.1742e-12
8.86593e-05
-3.83122e-12
8.86593e-05
3.8502e-12
8.86593e-05
-4.82959e-12
8.86593e-05
3.98087e-12
8.86593e-05
-5.74344e-12
8.86593e-05
3.41549e-12
8.86593e-05
-6.60675e-12
8.86593e-05
1.81284e-12
8.86593e-05
-7.50801e-12
8.86593e-05
-8.7477e-13
8.86593e-05
-8.38384e-12
8.86593e-05
-4.86233e-12
8.86593e-05
-1.02015e-11
-9.3291e-12
3.1664e-05
3.1664e-05
3.1664e-05
3.1664e-05
3.1664e-05
3.1664e-05
3.1664e-05
3.1664e-05
3.1664e-05
3.1664e-05
3.1664e-05
3.1664e-05
3.1664e-05
3.1664e-05
3.1664e-05
3.1664e-05
3.1664e-05
3.1664e-05
3.1664e-05
)
;

boundaryField
{
    top
    {
        type            calculated;
        value           uniform 0;
    }
    bottom
    {
        type            calculated;
        value           uniform 0;
    }
    inlet
    {
        type            calculated;
        value           nonuniform List<scalar> 
20
(
-3.1664e-05
-8.86593e-05
-0.000139322
-0.000183651
-0.000221648
-0.000253312
-0.000278643
-0.000297642
-0.000310307
-0.00031664
-0.00031664
-0.000310307
-0.000297642
-0.000278643
-0.000253312
-0.000221648
-0.000183651
-0.000139322
-8.86593e-05
-3.1664e-05
)
;
    }
    outlet
    {
        type            calculated;
        value           nonuniform List<scalar> 
20
(
3.1664e-05
8.86593e-05
0.000139322
0.000183651
0.000221648
0.000253312
0.000278643
0.000297642
0.000310308
0.00031664
0.00031664
0.000310307
0.000297642
0.000278643
0.000253312
0.000221648
0.000183651
0.000139322
8.86593e-05
3.1664e-05
)
;
    }
    frontAndBack
    {
        type            empty;
        value           nonuniform 0();
    }
}


// ************************************************************************* //
