/*--------------------------------*- C++ -*----------------------------------*\
| =========                 |                                                 |
| \\      /  F ield         | OpenFOAM: The Open Source CFD Toolbox           |
|  \\    /   O peration     | Version:  4.1                                   |
|   \\  /    A nd           | Web:      www.OpenFOAM.org                      |
|    \\/     M anipulation  |                                                 |
\*---------------------------------------------------------------------------*/
FoamFile
{
    version     2.0;
    format      ascii;
    class       volVectorField;
    location    "2.5";
    object      U;
}
// * * * * * * * * * * * * * * * * * * * * * * * * * * * * * * * * * * * * * //

dimensions      [0 1 -1 0 0 0 0];

internalField   nonuniform List<vector> 
400
(
(0.633281 -1.16727e-10 0)
(0.633281 3.1968e-10 0)
(0.633281 8.22886e-11 0)
(0.633281 -2.91492e-10 0)
(0.633281 4.45796e-10 0)
(0.633281 -2.87736e-10 0)
(0.633281 7.9846e-10 0)
(0.633281 -3.06096e-10 0)
(0.633281 1.13546e-09 0)
(0.633281 -5.87833e-11 0)
(0.633281 1.44494e-09 0)
(0.633281 4.33362e-10 0)
(0.633281 1.82632e-09 0)
(0.633281 1.1403e-09 0)
(0.633281 2.24495e-09 0)
(0.633281 1.95879e-09 0)
(0.633281 2.49186e-09 0)
(0.633281 2.4027e-09 0)
(0.633281 2.02565e-09 0)
(0.633281 1.08427e-09 0)
(1.77319 -5.44008e-10 0)
(1.77319 3.26826e-09 0)
(1.77319 1.18745e-09 0)
(1.77319 -3.70535e-09 0)
(1.77319 2.48997e-09 0)
(1.77319 -5.22696e-09 0)
(1.77319 4.16529e-09 0)
(1.77319 -7.72873e-09 0)
(1.77319 3.66277e-09 0)
(1.77319 -9.6309e-09 0)
(1.77319 1.67466e-09 0)
(1.77319 -1.12044e-08 0)
(1.77319 -1.82486e-09 0)
(1.77319 -1.25986e-08 0)
(1.77319 -6.10644e-09 0)
(1.77319 -1.29258e-08 0)
(1.77319 -9.72686e-09 0)
(1.77319 -1.04492e-08 0)
(1.77319 -9.71275e-09 0)
(1.77319 -5.63276e-09 0)
(2.78644 -9.101e-10 0)
(2.78643 5.30181e-09 0)
(2.78644 5.76121e-10 0)
(2.78643 -2.12369e-09 0)
(2.78644 2.28442e-09 0)
(2.78643 -2.50205e-09 0)
(2.78644 5.35104e-09 0)
(2.78643 -3.44965e-09 0)
(2.78644 6.67468e-09 0)
(2.78643 -2.74792e-09 0)
(2.78644 7.7174e-09 0)
(2.78643 -5.82829e-10 0)
(2.78644 8.27131e-09 0)
(2.78644 2.4088e-09 0)
(2.78644 8.39534e-09 0)
(2.78644 5.596e-09 0)
(2.78644 7.15592e-09 0)
(2.78644 7.00777e-09 0)
(2.78644 -3.93684e-11 0)
(2.78644 -3.39203e-09 0)
(3.67303 -1.38527e-09 0)
(3.67303 8.70234e-09 0)
(3.67303 2.46296e-10 0)
(3.67303 -1.64231e-09 0)
(3.67303 1.70543e-09 0)
(3.67303 -1.87996e-09 0)
(3.67303 5.90202e-09 0)
(3.67303 -2.86725e-09 0)
(3.67303 7.45556e-09 0)
(3.67303 -1.79826e-09 0)
(3.67303 8.87867e-09 0)
(3.67303 1.10803e-09 0)
(3.67303 9.58595e-09 0)
(3.67303 4.74545e-09 0)
(3.67303 9.58204e-09 0)
(3.67303 7.99882e-09 0)
(3.67303 7.39562e-09 0)
(3.67303 8.15217e-09 0)
(3.67303 -5.15671e-09 0)
(3.67303 -1.07532e-08 0)
(4.43296 -1.14477e-09 0)
(4.43296 1.15488e-08 0)
(4.43296 -4.39423e-10 0)
(4.43296 6.45262e-11 0)
(4.43296 3.96381e-10 0)
(4.43296 5.30604e-10 0)
(4.43296 5.38721e-09 0)
(4.43296 3.96257e-10 0)
(4.43296 7.64216e-09 0)
(4.43296 2.70128e-09 0)
(4.43296 1.03384e-08 0)
(4.43296 7.30037e-09 0)
(4.43296 1.2743e-08 0)
(4.43296 1.26496e-08 0)
(4.43296 1.45366e-08 0)
(4.43296 1.67798e-08 0)
(4.43296 1.30342e-08 0)
(4.43296 1.53236e-08 0)
(4.43296 -5.25876e-09 0)
(4.43296 -1.45392e-08 0)
(5.06625 -6.1096e-10 0)
(5.06624 1.43776e-08 0)
(5.06625 -1.18082e-09 0)
(5.06624 1.96527e-09 0)
(5.06625 -1.3206e-09 0)
(5.06624 3.00238e-09 0)
(5.06625 4.11062e-09 0)
(5.06624 3.57608e-09 0)
(5.06625 6.68786e-09 0)
(5.06624 6.70136e-09 0)
(5.06625 1.01246e-08 0)
(5.06625 1.23143e-08 0)
(5.06625 1.35732e-08 0)
(5.06625 1.84945e-08 0)
(5.06625 1.64827e-08 0)
(5.06625 2.26511e-08 0)
(5.06625 1.53402e-08 0)
(5.06625 1.94109e-08 0)
(5.06625 -7.6703e-09 0)
(5.06625 -1.94907e-08 0)
(5.57287 1.97474e-10 0)
(5.57287 1.69265e-08 0)
(5.57287 -1.98872e-09 0)
(5.57287 4.08483e-09 0)
(5.57287 -3.28748e-09 0)
(5.57287 5.65422e-09 0)
(5.57287 2.26059e-09 0)
(5.57287 6.93769e-09 0)
(5.57287 4.96974e-09 0)
(5.57287 1.07176e-08 0)
(5.57287 8.94032e-09 0)
(5.57287 1.70184e-08 0)
(5.57287 1.3229e-08 0)
(5.57287 2.3614e-08 0)
(5.57287 1.7103e-08 0)
(5.57287 2.74173e-08 0)
(5.57287 1.64054e-08 0)
(5.57287 2.23497e-08 0)
(5.57287 -1.03068e-08 0)
(5.57287 -2.40123e-08 0)
(5.95284 1.15249e-09 0)
(5.95284 1.90832e-08 0)
(5.95284 -2.83274e-09 0)
(5.95284 6.2685e-09 0)
(5.95284 -5.32395e-09 0)
(5.95284 8.32197e-09 0)
(5.95284 7.03204e-11 0)
(5.95284 1.02841e-08 0)
(5.95284 2.78925e-09 0)
(5.95284 1.45793e-08 0)
(5.95284 7.13265e-09 0)
(5.95284 2.13068e-08 0)
(5.95284 1.21008e-08 0)
(5.95284 2.8012e-08 0)
(5.95284 1.68182e-08 0)
(5.95284 3.12219e-08 0)
(5.95284 1.66536e-08 0)
(5.95284 2.43777e-08 0)
(5.95284 -1.27259e-08 0)
(5.95284 -2.77148e-08 0)
(6.20615 2.11056e-09 0)
(6.20615 2.07258e-08 0)
(6.20615 -3.69214e-09 0)
(6.20615 8.36435e-09 0)
(6.20615 -7.27458e-09 0)
(6.20615 1.08548e-08 0)
(6.20615 -2.24832e-09 0)
(6.20615 1.34349e-08 0)
(6.20615 3.98067e-10 0)
(6.20615 1.81248e-08 0)
(6.20615 4.98333e-09 0)
(6.20615 2.50716e-08 0)
(6.20615 1.04969e-08 0)
(6.20615 3.16722e-08 0)
(6.20615 1.5958e-08 0)
(6.20615 3.41724e-08 0)
(6.20615 1.64178e-08 0)
(6.20615 2.57029e-08 0)
(6.20615 -1.45605e-08 0)
(6.20615 -3.02699e-08 0)
(6.33281 2.92429e-09 0)
(6.33281 2.17455e-08 0)
(6.33281 -4.5414e-09 0)
(6.33281 1.02262e-08 0)
(6.33281 -9.01191e-09 0)
(6.33281 1.31078e-08 0)
(6.33281 -4.5141e-09 0)
(6.33281 1.62164e-08 0)
(6.33281 -2.00038e-09 0)
(6.33281 2.11871e-08 0)
(6.33281 2.71012e-09 0)
(6.33281 2.81806e-08 0)
(6.33281 8.63781e-09 0)
(6.33281 3.45262e-08 0)
(6.33281 1.47369e-08 0)
(6.33281 3.62948e-08 0)
(6.33281 1.58936e-08 0)
(6.33281 2.6445e-08 0)
(6.33281 -1.56103e-08 0)
(6.33281 -3.14837e-08 0)
(6.33281 3.46337e-09 0)
(6.33281 2.20562e-08 0)
(6.33281 -5.34061e-09 0)
(6.33281 1.17236e-08 0)
(6.33281 -1.04313e-08 0)
(6.33281 1.49461e-08 0)
(6.33281 -6.57219e-09 0)
(6.33281 1.84701e-08 0)
(6.33281 -4.24033e-09 0)
(6.33281 2.3606e-08 0)
(6.33281 4.79638e-10 0)
(6.33281 3.04939e-08 0)
(6.33281 6.67703e-09 0)
(6.33281 3.64761e-08 0)
(6.33281 1.32836e-08 0)
(6.33281 3.75595e-08 0)
(6.33281 1.51706e-08 0)
(6.33281 2.6657e-08 0)
(6.33281 -1.57941e-08 0)
(6.33281 -3.12899e-08 0)
(6.20615 3.632e-09 0)
(6.20615 2.16067e-08 0)
(6.20615 -6.03288e-09 0)
(6.20615 1.27482e-08 0)
(6.20615 -1.1446e-08 0)
(6.20615 1.62495e-08 0)
(6.20615 -8.28892e-09 0)
(6.20615 2.0059e-08 0)
(6.20615 -6.18227e-09 0)
(6.20615 2.52399e-08 0)
(6.20615 -1.57209e-09 0)
(6.20615 3.18841e-08 0)
(6.20615 4.73271e-09 0)
(6.20615 3.74232e-08 0)
(6.20615 1.16828e-08 0)
(6.20615 3.79179e-08 0)
(6.20615 1.4281e-08 0)
(6.20615 2.6359e-08 0)
(6.20615 -1.51225e-08 0)
(6.20615 -2.97338e-08 0)
(5.95284 3.38429e-09 0)
(5.95284 2.03901e-08 0)
(5.95284 -6.54642e-09 0)
(5.95284 1.32218e-08 0)
(5.95284 -1.1986e-08 0)
(5.95284 1.69173e-08 0)
(5.95284 -9.55227e-09 0)
(5.95284 2.08717e-08 0)
(5.95284 -7.71062e-09 0)
(5.95284 2.59713e-08 0)
(5.95284 -3.33405e-09 0)
(5.95284 3.22418e-08 0)
(5.95284 2.89663e-09 0)
(5.95284 3.72755e-08 0)
(5.95284 9.98861e-09 0)
(5.95284 3.73081e-08 0)
(5.95284 1.32137e-08 0)
(5.95284 2.55381e-08 0)
(5.95284 -1.36921e-08 0)
(5.95284 -2.6972e-08 0)
(5.57287 2.73561e-09 0)
(5.57287 1.84506e-08 0)
(5.57287 -6.8016e-09 0)
(5.57287 1.30942e-08 0)
(5.57287 -1.19998e-08 0)
(5.57287 1.68683e-08 0)
(5.57287 -1.02754e-08 0)
(5.57287 2.08174e-08 0)
(5.57287 -8.73848e-09 0)
(5.57287 2.56967e-08 0)
(5.57287 -4.72826e-09 0)
(5.57287 3.146e-08 0)
(5.57287 1.22059e-09 0)
(5.57287 3.59235e-08 0)
(5.57287 8.20351e-09 0)
(5.57287 3.56214e-08 0)
(5.57287 1.18911e-08 0)
(5.57287 2.41101e-08 0)
(5.57287 -1.17046e-08 0)
(5.57287 -2.32875e-08 0)
(5.06624 1.76589e-09 0)
(5.06625 1.58846e-08 0)
(5.06624 -6.72277e-09 0)
(5.06625 1.23462e-08 0)
(5.06624 -1.14597e-08 0)
(5.06625 1.60461e-08 0)
(5.06624 -1.04026e-08 0)
(5.06625 1.98296e-08 0)
(5.06624 -9.2134e-09 0)
(5.06625 2.43293e-08 0)
(5.06624 -5.71554e-09 0)
(5.06624 2.9434e-08 0)
(5.06624 -2.90282e-10 0)
(5.06624 3.32376e-08 0)
(5.06624 6.27141e-09 0)
(5.06624 3.26951e-08 0)
(5.06624 1.0163e-08 0)
(5.06624 2.19025e-08 0)
(5.06624 -9.49685e-09 0)
(5.06624 -1.90969e-08 0)
(4.43296 6.23819e-10 0)
(4.43296 1.28371e-08 0)
(4.43296 -6.24138e-09 0)
(4.43296 1.09836e-08 0)
(4.43296 -1.03438e-08 0)
(4.43296 1.44216e-08 0)
(4.43296 -9.87745e-09 0)
(4.43296 1.78646e-08 0)
(4.43296 -9.06873e-09 0)
(4.43296 2.18101e-08 0)
(4.43296 -6.22667e-09 0)
(4.43296 2.60914e-08 0)
(4.43296 -1.58731e-09 0)
(4.43296 2.91215e-08 0)
(4.43296 4.18554e-09 0)
(4.43296 2.83818e-08 0)
(4.43296 7.91616e-09 0)
(4.43296 1.87117e-08 0)
(4.43296 -7.46211e-09 0)
(4.43296 -1.49372e-08 0)
(3.67303 -6.34689e-10 0)
(3.67303 9.56824e-09 0)
(3.67303 -5.50018e-09 0)
(3.67303 9.15479e-09 0)
(3.67303 -9.02027e-09 0)
(3.67303 1.20779e-08 0)
(3.67303 -9.23613e-09 0)
(3.67303 1.48707e-08 0)
(3.67303 -9.11604e-09 0)
(3.67303 1.7794e-08 0)
(3.67303 -7.45534e-09 0)
(3.67303 2.06404e-08 0)
(3.67303 -4.36474e-09 0)
(3.67303 2.21894e-08 0)
(3.67303 -2.74708e-10 0)
(3.67303 2.07044e-08 0)
(3.67303 2.63876e-09 0)
(3.67303 1.24166e-08 0)
(3.67303 -7.75514e-09 0)
(3.67303 -1.22047e-08 0)
(2.78643 -9.84208e-10 0)
(2.78644 5.94506e-09 0)
(2.78643 -3.67541e-09 0)
(2.78644 6.42305e-09 0)
(2.78643 -5.90141e-09 0)
(2.78644 8.75529e-09 0)
(2.78643 -5.95532e-09 0)
(2.78644 1.12205e-08 0)
(2.78643 -5.47839e-09 0)
(2.78644 1.39165e-08 0)
(2.78643 -3.67378e-09 0)
(2.78643 1.67517e-08 0)
(2.78643 -5.81323e-10 0)
(2.78643 1.87881e-08 0)
(2.78643 3.23662e-09 0)
(2.78643 1.84883e-08 0)
(2.78643 5.6774e-09 0)
(2.78643 1.21921e-08 0)
(2.78643 -2.47146e-09 0)
(2.78643 -7.06175e-09 0)
(1.77319 -2.0404e-09 0)
(1.77319 3.17125e-09 0)
(1.77319 -3.0073e-09 0)
(1.77319 4.42806e-09 0)
(1.77319 -5.44131e-09 0)
(1.77319 5.74629e-09 0)
(1.77319 -6.82638e-09 0)
(1.77319 6.71463e-09 0)
(1.77319 -8.33145e-09 0)
(1.77319 6.85945e-09 0)
(1.77319 -9.63574e-09 0)
(1.77319 6.02996e-09 0)
(1.77319 -1.07391e-08 0)
(1.77319 3.71967e-09 0)
(1.77319 -1.1566e-08 0)
(1.77319 -5.2285e-11 0)
(1.77319 -1.1903e-08 0)
(1.77319 -5.39106e-09 0)
(1.77319 -1.34113e-08 0)
(1.77319 -1.10916e-08 0)
(0.633281 -2.23243e-10 0)
(0.633281 4.02372e-10 0)
(0.633281 -9.87325e-11 0)
(0.633281 6.2782e-10 0)
(0.633281 -2.35314e-10 0)
(0.633281 1.01121e-09 0)
(0.633281 -6.95328e-11 0)
(0.633281 1.59658e-09 0)
(0.633281 2.74814e-10 0)
(0.633281 2.29864e-09 0)
(0.633281 9.09916e-10 0)
(0.633281 3.16973e-09 0)
(0.633281 1.81709e-09 0)
(0.633281 4.00453e-09 0)
(0.633281 2.72126e-09 0)
(0.633281 4.36224e-09 0)
(0.633281 2.96113e-09 0)
(0.633281 3.13341e-09 0)
(0.633281 6.24319e-10 0)
(0.633281 -1.53414e-09 0)
)
;

boundaryField
{
    top
    {
        type            fixedValue;
        value           uniform (0 0 0);
    }
    bottom
    {
        type            fixedValue;
        value           uniform (0 0 0);
    }
    inlet
    {
        type            zeroGradient;
    }
    outlet
    {
        type            zeroGradient;
    }
    frontAndBack
    {
        type            empty;
    }
}


// ************************************************************************* //
