/*--------------------------------*- C++ -*----------------------------------*\
| =========                 |                                                 |
| \\      /  F ield         | OpenFOAM: The Open Source CFD Toolbox           |
|  \\    /   O peration     | Version:  4.1                                   |
|   \\  /    A nd           | Web:      www.OpenFOAM.org                      |
|    \\/     M anipulation  |                                                 |
\*---------------------------------------------------------------------------*/
FoamFile
{
    version     2.0;
    format      ascii;
    class       surfaceScalarField;
    location    "1";
    object      phi;
}
// * * * * * * * * * * * * * * * * * * * * * * * * * * * * * * * * * * * * * //

dimensions      [0 3 -1 0 0 0 0];

internalField   nonuniform List<scalar> 
760
(
-1.91624e-05
1.6324e-12
-1.91624e-05
2.75283e-12
-1.91624e-05
3.48011e-12
-1.91624e-05
-5.02573e-12
-1.91624e-05
-4.31414e-12
-1.91624e-05
-5.92347e-12
-1.91624e-05
-9.41016e-12
-1.91624e-05
-4.96053e-12
-1.91624e-05
-1.13762e-11
-1.91624e-05
-5.84963e-12
-1.91624e-05
-1.08115e-11
-1.91624e-05
-6.50813e-12
-1.91624e-05
-9.56308e-12
-1.91624e-05
-6.2883e-12
-1.91624e-05
-7.72177e-12
-1.91624e-05
-5.99343e-12
-1.91624e-05
-5.29191e-12
-1.91624e-05
-3.55179e-12
-1.91624e-05
-8.84265e-12
4.60472e-12
-5.11543e-05
5.60647e-12
-5.11544e-05
9.65257e-12
-5.11544e-05
6.50584e-12
-5.11544e-05
-1.30616e-11
-5.11544e-05
-1.55549e-11
-5.11544e-05
-1.70089e-11
-5.11544e-05
-2.73802e-11
-5.11544e-05
-1.59464e-11
-5.11544e-05
-3.13998e-11
-5.11544e-05
-1.76881e-11
-5.11544e-05
-2.95677e-11
-5.11544e-05
-1.84727e-11
-5.11544e-05
-2.5734e-11
-5.11544e-05
-1.71918e-11
-5.11544e-05
-2.03552e-11
-5.11544e-05
-1.52904e-11
-5.11544e-05
-1.37665e-11
-5.11544e-05
-1.03749e-11
-5.11544e-05
-1.86189e-11
1.2858e-11
-7.68136e-05
1.28152e-11
-7.68137e-05
2.16283e-11
-7.68137e-05
9.40069e-12
-7.68137e-05
-2.1443e-11
-7.68137e-05
-3.10478e-11
-7.68137e-05
-2.98287e-11
-7.68137e-05
-5.03795e-11
-7.68137e-05
-2.92206e-11
-7.68137e-05
-5.61381e-11
-7.68137e-05
-3.1905e-11
-7.68137e-05
-5.25154e-11
-7.68137e-05
-3.27151e-11
-7.68137e-05
-4.516e-11
-7.68137e-05
-3.01514e-11
-7.68137e-05
-3.51096e-11
-7.68137e-05
-2.61867e-11
-7.68137e-05
-2.32837e-11
-7.68137e-05
-1.94437e-11
-7.68137e-05
-2.56021e-11
2.41187e-11
-9.61403e-05
2.3656e-11
-9.61403e-05
3.77075e-11
-9.61404e-05
1.19427e-11
-9.61404e-05
-3.05212e-11
-9.61404e-05
-4.89945e-11
-9.61404e-05
-4.4759e-11
-9.61404e-05
-7.57073e-11
-9.61404e-05
-4.55656e-11
-9.61404e-05
-8.28855e-11
-9.61404e-05
-4.92736e-11
-9.61404e-05
-7.7211e-11
-9.61404e-05
-4.98236e-11
-9.61404e-05
-6.59571e-11
-9.61404e-05
-4.55578e-11
-9.61404e-05
-5.08427e-11
-9.61404e-05
-3.86825e-11
-9.61404e-05
-3.34672e-11
-9.61404e-05
-3.03e-11
-9.61404e-05
-2.86518e-11
3.75091e-11
-0.000109134
3.84321e-11
-0.000109135
5.80747e-11
-0.000109135
1.59355e-11
-0.000109135
-3.74691e-11
-0.000109135
-6.5179e-11
-0.000109135
-5.77615e-11
-0.000109135
-9.82562e-11
-0.000109135
-6.04252e-11
-0.000109135
-1.06225e-10
-0.000109135
-6.52708e-11
-0.000109135
-9.84861e-11
-0.000109135
-6.5657e-11
-0.000109135
-8.36125e-11
-0.000109135
-5.98916e-11
-0.000109135
-6.40348e-11
-0.000109135
-5.01583e-11
-0.000109135
-4.19781e-11
-0.000109135
-4.05689e-11
-0.000109135
-2.6557e-11
5.32485e-11
-0.000115796
5.60412e-11
-0.000115796
8.07184e-11
-0.000115796
2.0691e-11
-0.000115796
-4.25957e-11
-0.000115796
-7.88032e-11
-0.000115796
-6.89926e-11
-0.000115796
-1.16743e-10
-0.000115796
-7.40357e-11
-0.000115796
-1.24846e-10
-0.000115796
-8.00966e-11
-0.000115796
-1.1521e-10
-0.000115796
-8.03313e-11
-0.000115796
-9.72781e-11
-0.000115796
-7.31354e-11
-0.000115796
-7.4225e-11
-0.000115796
-6.04214e-11
-0.000115796
-4.8705e-11
-0.000115796
-4.97725e-11
-0.000115796
-1.96476e-11
7.00034e-11
-0.000116125
7.48638e-11
-0.000116125
1.03444e-10
-0.000116125
2.54875e-11
-0.000116125
-4.59306e-11
-0.000116125
-8.93706e-11
-0.000116125
-7.8117e-11
-0.000116125
-1.30408e-10
-0.000116125
-8.59115e-11
-0.000116125
-1.37996e-10
-0.000116125
-9.32046e-11
-0.000116125
-1.26711e-10
-0.000116125
-9.32951e-11
-0.000116125
-1.06427e-10
-0.000116125
-8.47389e-11
-0.000116125
-8.10988e-11
-0.000116125
-6.89867e-11
-0.000116126
-5.35042e-11
-0.000116125
-5.73078e-11
-0.000116126
-8.83274e-12
8.64255e-11
-0.000110122
9.29105e-11
-0.000110122
1.23802e-10
-0.000110122
2.93958e-11
-0.000110122
-4.77866e-11
-0.000110122
-9.68923e-11
-0.000110122
-8.51457e-11
-0.000110122
-1.3918e-10
-0.000110122
-9.58841e-11
-0.000110122
-1.45694e-10
-0.000110122
-1.04338e-10
-0.000110122
-1.33071e-10
-0.000110122
-1.04258e-10
-0.000110122
-1.11199e-10
-0.000110122
-9.43738e-11
-0.000110122
-8.48385e-11
-0.000110122
-7.55828e-11
-0.000110122
-5.65336e-11
-0.000110122
-6.28624e-11
-0.000110122
4.41336e-12
1.00911e-10
-9.7787e-05
1.08162e-10
-9.7787e-05
1.39492e-10
-9.7787e-05
3.15917e-11
-9.7787e-05
-4.84791e-11
-9.7787e-05
-1.01493e-10
-9.7787e-05
-9.00893e-11
-9.7787e-05
-1.43231e-10
-9.7787e-05
-1.03729e-10
-9.7787e-05
-1.48256e-10
-9.7787e-05
-1.13171e-10
-9.7787e-05
-1.34651e-10
-9.7787e-05
-1.12867e-10
-9.7787e-05
-1.11976e-10
-9.7787e-05
-1.01671e-10
-9.7787e-05
-8.57861e-11
-9.7787e-05
-7.99656e-11
-9.7787e-05
-5.79846e-11
-9.7787e-05
-6.6257e-11
-9.7787e-05
1.83743e-11
1.11894e-10
-7.91193e-05
1.18807e-10
-7.91193e-05
1.48609e-10
-7.91193e-05
3.14801e-11
-7.91193e-05
-4.82645e-11
-7.91193e-05
-1.0329e-10
-7.91193e-05
-9.28809e-11
-7.91193e-05
-1.42838e-10
-7.91193e-05
-1.09104e-10
-7.91193e-05
-1.46134e-10
-7.91193e-05
-1.1926e-10
-7.91193e-05
-1.3195e-10
-7.91193e-05
-1.18667e-10
-7.91193e-05
-1.09251e-10
-7.91193e-05
-1.06202e-10
-7.91193e-05
-8.43209e-11
-7.91193e-05
-8.19088e-11
-7.91193e-05
-5.80387e-11
-7.91193e-05
-6.73921e-11
-7.91193e-05
3.13143e-11
1.18035e-10
-5.41193e-05
1.23464e-10
-5.41193e-05
1.49853e-10
-5.41193e-05
2.87546e-11
-5.41193e-05
-4.7336e-11
-5.41193e-05
-1.02376e-10
-5.41193e-05
-9.34044e-11
-5.41193e-05
-1.38343e-10
-5.41193e-05
-1.11615e-10
-5.41193e-05
-1.39856e-10
-5.41193e-05
-1.22123e-10
-5.41193e-05
-1.25527e-10
-5.41193e-05
-1.21177e-10
-5.41193e-05
-1.03563e-10
-5.41193e-05
-1.07558e-10
-5.41193e-05
-8.08056e-11
-5.41193e-05
-8.12512e-11
-5.41193e-05
-5.68276e-11
-5.41193e-05
-6.62355e-11
-5.41193e-05
4.17062e-11
1.18406e-10
-2.2787e-05
1.21341e-10
-2.2787e-05
1.42697e-10
-2.2787e-05
2.3454e-11
-2.2787e-05
-4.58027e-11
-2.2787e-05
-9.8815e-11
-2.2787e-05
-9.15032e-11
-2.2787e-05
-1.30132e-10
-2.2787e-05
-1.10853e-10
-2.2787e-05
-1.29982e-10
-2.2787e-05
-1.21289e-10
-2.2787e-05
-1.15963e-10
-2.2787e-05
-1.19948e-10
-2.2787e-05
-9.54425e-11
-2.2787e-05
-1.05404e-10
-2.2787e-05
-7.55435e-11
-2.2787e-05
-7.79228e-11
-2.2787e-05
-5.44213e-11
-2.2787e-05
-6.28077e-11
-2.2787e-05
4.84004e-11
1.12634e-10
1.48776e-05
1.12381e-10
1.48776e-05
1.27525e-10
1.48776e-05
1.60091e-11
1.48776e-05
-4.36554e-11
1.48776e-05
-9.2656e-11
1.48776e-05
-8.69897e-11
1.48776e-05
-1.18619e-10
1.48776e-05
-1.06441e-10
1.48776e-05
-1.17064e-10
1.48776e-05
-1.16351e-10
1.48776e-05
-1.03812e-10
1.48776e-05
-1.1461e-10
1.48776e-05
-8.53602e-11
1.48776e-05
-9.95255e-11
1.48776e-05
-6.87478e-11
1.48776e-05
-7.19559e-11
1.48776e-05
-5.08231e-11
1.48776e-05
-5.71814e-11
1.48776e-05
5.07688e-11
1.01011e-10
5.88744e-05
9.72987e-11
5.88745e-05
1.0568e-10
5.88745e-05
7.29445e-12
5.88745e-05
-4.07127e-11
5.88745e-05
-8.39139e-11
5.88745e-05
-7.96507e-11
5.88745e-05
-1.0419e-10
5.88745e-05
-9.8067e-11
5.88745e-05
-1.01582e-10
5.88745e-05
-1.07004e-10
5.88745e-05
-8.95304e-11
5.88745e-05
-1.04918e-10
5.88745e-05
-7.366e-11
5.88745e-05
-8.98628e-11
5.88745e-05
-6.05084e-11
5.88745e-05
-6.34737e-11
5.88745e-05
-4.59636e-11
5.88745e-05
-4.94929e-11
5.88745e-05
4.87606e-11
8.45205e-11
0.000109204
7.76207e-11
0.000109204
7.9474e-11
0.000109204
-1.42465e-12
0.000109204
-3.66483e-11
0.000109204
-7.26208e-11
0.000109204
-6.93215e-11
0.000109204
-8.72443e-11
0.000109204
-8.55729e-11
0.000109204
-8.3979e-11
0.000109204
-9.31331e-11
0.000109204
-7.35155e-11
0.000109204
-9.08276e-11
0.000109204
-6.05921e-11
0.000109204
-7.65572e-11
0.000109204
-5.08484e-11
0.000109204
-5.27162e-11
0.000109204
-3.97437e-11
0.000109204
-3.99952e-11
0.000109204
4.29284e-11
6.48398e-11
0.000165865
5.54033e-11
0.000165865
5.18748e-11
0.000165865
-8.7166e-12
0.000165865
-3.12391e-11
0.000165865
-5.90933e-11
0.000165865
-5.62409e-11
0.000165865
-6.8485e-11
0.000165865
-6.93611e-11
0.000165865
-6.49818e-11
0.000165865
-7.52266e-11
0.000165865
-5.64179e-11
0.000165865
-7.28845e-11
0.000165865
-4.66036e-11
0.000165865
-6.02635e-11
0.000165865
-3.99797e-11
0.000165865
-4.02608e-11
0.000165865
-3.22157e-11
0.000165865
-2.92717e-11
0.000165865
3.42228e-11
4.41414e-11
0.00022886
3.38274e-11
0.00022886
2.68897e-11
0.00022886
-1.25076e-11
0.00022886
-2.36662e-11
0.00022886
-4.30129e-11
0.00022886
-4.02931e-11
0.00022886
-4.77637e-11
0.00022886
-4.95777e-11
0.00022886
-4.43613e-11
0.00022886
-5.35841e-11
0.00022886
-3.79392e-11
0.00022886
-5.15076e-11
0.00022886
-3.13294e-11
0.00022886
-4.14723e-11
0.00022886
-2.76428e-11
0.00022886
-2.64423e-11
0.00022886
-2.31969e-11
0.00022886
-1.77832e-11
0.00022886
2.42586e-11
2.50823e-11
0.000298186
1.47399e-11
0.000298186
7.13544e-12
0.000298186
-1.3186e-11
0.000298186
-1.62935e-11
0.000298186
-2.77611e-11
0.000298186
-2.53155e-11
0.000298186
-2.94017e-11
0.000298186
-3.07261e-11
0.000298186
-2.66961e-11
0.000298186
-3.29328e-11
0.000298186
-2.24723e-11
0.000298186
-3.12339e-11
0.000298186
-1.85252e-11
0.000298186
-2.42769e-11
0.000298186
-1.67306e-11
0.000298186
-1.45052e-11
0.000298186
-1.46449e-11
0.000298186
-8.29382e-12
0.000298186
1.36447e-11
9.92585e-12
0.000373846
2.61885e-12
0.000373846
-2.62741e-12
0.000373846
-8.344e-12
0.000373846
-7.6644e-12
0.000373846
-1.21138e-11
0.000373846
-1.0628e-11
0.000373846
-1.19557e-11
0.000373846
-1.26517e-11
0.000373846
-1.03529e-11
0.000373846
-1.33167e-11
0.000373846
-8.36221e-12
0.000373846
-1.23015e-11
0.000373846
-6.82497e-12
0.000373846
-8.83703e-12
0.000373846
-6.5172e-12
0.000373846
-4.33757e-12
0.000373846
-6.24785e-12
0.000373846
-1.04558e-12
0.000373846
4.90361e-12
1.46175e-12
0.000455838
0.000455838
0.000455838
0.000455838
0.000455838
0.000455838
0.000455838
0.000455838
0.000455838
0.000455838
0.000455838
0.000455838
0.000455838
0.000455838
0.000455838
0.000455838
0.000455838
0.000455838
0.000455838
)
;

boundaryField
{
    top
    {
        type            calculated;
        value           uniform 0;
    }
    bottom
    {
        type            calculated;
        value           uniform 0;
    }
    inlet
    {
        type            calculated;
        value           nonuniform List<scalar> 
20
(
1.91624e-05
5.11543e-05
7.68136e-05
9.61403e-05
0.000109134
0.000115796
0.000116125
0.000110122
9.77869e-05
7.91193e-05
5.41193e-05
2.2787e-05
-1.48775e-05
-5.88744e-05
-0.000109204
-0.000165865
-0.00022886
-0.000298186
-0.000373846
-0.000455838
)
;
    }
    outlet
    {
        type            calculated;
        value           nonuniform List<scalar> 
20
(
-1.91624e-05
-5.11544e-05
-7.68137e-05
-9.61404e-05
-0.000109135
-0.000115796
-0.000116126
-0.000110122
-9.7787e-05
-7.91193e-05
-5.41193e-05
-2.2787e-05
1.48776e-05
5.88745e-05
0.000109204
0.000165866
0.00022886
0.000298186
0.000373846
0.000455838
)
;
    }
    frontAndBack
    {
        type            empty;
        value           nonuniform 0();
    }
}


// ************************************************************************* //
