/*--------------------------------*- C++ -*----------------------------------*\
| =========                 |                                                 |
| \\      /  F ield         | OpenFOAM: The Open Source CFD Toolbox           |
|  \\    /   O peration     | Version:  4.1                                   |
|   \\  /    A nd           | Web:      www.OpenFOAM.org                      |
|    \\/     M anipulation  |                                                 |
\*---------------------------------------------------------------------------*/
FoamFile
{
    version     2.0;
    format      ascii;
    class       volVectorField;
    location    "1";
    object      U;
}
// * * * * * * * * * * * * * * * * * * * * * * * * * * * * * * * * * * * * * //

dimensions      [0 1 -1 0 0 0 0];

internalField   nonuniform List<vector> 
400
(
(-0.383247 4.53117e-10 0)
(-0.383247 7.92333e-10 0)
(-0.383247 1.56044e-09 0)
(-0.383248 -2.58669e-09 0)
(-0.383248 -1.9675e-09 0)
(-0.383248 -2.88229e-09 0)
(-0.383248 -4.44386e-09 0)
(-0.383248 -2.38115e-09 0)
(-0.383248 -5.43515e-09 0)
(-0.383248 -2.83876e-09 0)
(-0.383248 -5.18094e-09 0)
(-0.383248 -3.18628e-09 0)
(-0.383248 -4.60341e-09 0)
(-0.383248 -3.09129e-09 0)
(-0.383248 -3.74366e-09 0)
(-0.383248 -2.96884e-09 0)
(-0.383248 -2.60524e-09 0)
(-0.383248 -1.61018e-09 0)
(-0.383248 -4.65316e-09 0)
(-0.383248 1.93898e-09 0)
(-1.02309 2.85413e-09 0)
(-1.02309 5.1035e-09 0)
(-1.02309 4.9628e-09 0)
(-1.02309 -8.75233e-09 0)
(-1.02309 -9.01185e-09 0)
(-1.02309 -1.07267e-08 0)
(-1.02309 -1.72886e-08 0)
(-1.02309 -9.54886e-09 0)
(-1.02309 -2.02796e-08 0)
(-1.02309 -1.08832e-08 0)
(-1.02309 -1.91786e-08 0)
(-1.02309 -1.17035e-08 0)
(-1.02309 -1.68039e-08 0)
(-1.02309 -1.10783e-08 0)
(-1.02309 -1.34111e-08 0)
(-1.02309 -1.01827e-08 0)
(-1.02309 -9.14752e-09 0)
(-1.02309 -6.3673e-09 0)
(-1.02309 -1.41742e-08 0)
(-1.02309 8.02969e-09 0)
(-1.53627 8.21267e-09 0)
(-1.53627 1.42844e-08 0)
(-1.53627 7.71637e-09 0)
(-1.53627 -1.73053e-08 0)
(-1.53627 -2.27776e-08 0)
(-1.53627 -2.31867e-08 0)
(-1.53627 -3.82722e-08 0)
(-1.53627 -2.2217e-08 0)
(-1.53627 -4.32153e-08 0)
(-1.53627 -2.44166e-08 0)
(-1.53627 -4.05892e-08 0)
(-1.53627 -2.5247e-08 0)
(-1.53627 -3.51172e-08 0)
(-1.53627 -2.33567e-08 0)
(-1.53627 -2.75377e-08 0)
(-1.53627 -2.05088e-08 0)
(-1.53627 -1.84464e-08 0)
(-1.53627 -1.45337e-08 0)
(-1.53627 -2.29248e-08 0)
(-1.53627 1.76463e-08 0)
(-1.92281 1.72998e-08 0)
(-1.92281 2.85895e-08 0)
(-1.92281 1.05534e-08 0)
(-1.92281 -2.61454e-08 0)
(-1.92281 -3.98541e-08 0)
(-1.92281 -3.72755e-08 0)
(-1.92281 -6.29555e-08 0)
(-1.92281 -3.72348e-08 0)
(-1.92281 -6.9523e-08 0)
(-1.92281 -4.04042e-08 0)
(-1.92281 -6.49176e-08 0)
(-1.92281 -4.1094e-08 0)
(-1.92281 -5.56468e-08 0)
(-1.92281 -3.76911e-08 0)
(-1.92281 -4.30823e-08 0)
(-1.92281 -3.23271e-08 0)
(-1.92281 -2.8468e-08 0)
(-1.92281 -2.46944e-08 0)
(-1.92281 -2.82166e-08 0)
(-1.92281 3.02119e-08 0)
(-2.18269 3.02919e-08 0)
(-2.18269 4.71882e-08 0)
(-2.18269 1.38704e-08 0)
(-2.18269 -3.42837e-08 0)
(-2.18269 -5.7318e-08 0)
(-2.18269 -5.14838e-08 0)
(-2.18269 -8.74351e-08 0)
(-2.18269 -5.30991e-08 0)
(-2.18269 -9.51285e-08 0)
(-2.18269 -5.73513e-08 0)
(-2.18269 -8.84208e-08 0)
(-2.18269 -5.7817e-08 0)
(-2.18269 -7.53031e-08 0)
(-2.18269 -5.27933e-08 0)
(-2.18269 -5.78455e-08 0)
(-2.18269 -4.45244e-08 0)
(-2.18269 -3.79792e-08 0)
(-2.18269 -3.55115e-08 0)
(-2.18269 -2.87417e-08 0)
(-2.18269 4.50164e-08 0)
(-2.31592 4.68045e-08 0)
(-2.31592 6.91448e-08 0)
(-2.31592 1.83059e-08 0)
(-2.31592 -4.04111e-08 0)
(-2.31592 -7.24991e-08 0)
(-2.31592 -6.37972e-08 0)
(-2.31592 -1.08321e-07 0)
(-2.31592 -6.7569e-08 0)
(-2.31592 -1.16486e-07 0)
(-2.31592 -7.30051e-08 0)
(-2.31592 -1.07766e-07 0)
(-2.31592 -7.33017e-08 0)
(-2.31592 -9.12508e-08 0)
(-2.31592 -6.67932e-08 0)
(-2.31592 -6.97366e-08 0)
(-2.31592 -5.55701e-08 0)
(-2.31592 -4.57085e-08 0)
(-2.31592 -4.5456e-08 0)
(-2.31592 -2.40801e-08 0)
(-2.31593 6.15449e-08 0)
(-2.32251 6.54727e-08 0)
(-2.32251 9.24005e-08 0)
(-2.32251 2.3255e-08 0)
(-2.32251 -4.45916e-08 0)
(-2.32251 -8.46608e-08 0)
(-2.32251 -7.399e-08 0)
(-2.32251 -1.24506e-07 0)
(-2.32251 -8.03549e-08 0)
(-2.32251 -1.32469e-07 0)
(-2.32251 -8.7029e-08 0)
(-2.32251 -1.21957e-07 0)
(-2.32251 -8.71837e-08 0)
(-2.32251 -1.02709e-07 0)
(-2.32251 -7.9288e-08 0)
(-2.32251 -7.82852e-08 0)
(-2.32251 -6.50499e-08 0)
(-2.32251 -5.14674e-08 0)
(-2.32251 -5.39158e-08 0)
(-2.32251 -1.48876e-08 0)
(-2.32251 7.85129e-08 0)
(-2.20245 8.44078e-08 0)
(-2.20245 1.14523e-07 0)
(-2.20245 2.77901e-08 0)
(-2.20245 -4.71165e-08 0)
(-2.20245 -9.37043e-08 0)
(-2.20245 -8.2064e-08 0)
(-2.20245 -1.35732e-07 0)
(-2.20245 -9.13181e-08 0)
(-2.20245 -1.42878e-07 0)
(-2.20245 -9.92076e-08 0)
(-2.20245 -1.30859e-07 0)
(-2.20245 -9.92113e-08 0)
(-2.20245 -1.0963e-07 0)
(-2.20245 -8.99773e-08 0)
(-2.20245 -8.35476e-08 0)
(-2.20245 -7.26841e-08 0)
(-2.20245 -5.53471e-08 0)
(-2.20245 -6.0512e-08 0)
(-2.20245 -2.43926e-09 0)
(-2.20245 9.43634e-08 0)
(-1.95574 1.01535e-07 0)
(-1.95574 1.33069e-07 0)
(-1.95574 3.09968e-08 0)
(-1.95574 -4.83183e-08 0)
(-1.95574 -9.97453e-08 0)
(-1.95574 -8.80479e-08 0)
(-1.95574 -1.42108e-07 0)
(-1.95574 -1.00276e-07 0)
(-1.95574 -1.47941e-07 0)
(-1.95574 -1.09261e-07 0)
(-1.95574 -1.34753e-07 0)
(-1.95574 -1.09073e-07 0)
(-1.95574 -1.12323e-07 0)
(-1.95574 -9.85197e-08 0)
(-1.95574 -8.58225e-08 0)
(-1.95574 -7.82211e-08 0)
(-1.95574 -5.75441e-08 0)
(-1.95574 -6.50141e-08 0)
(-1.95574 1.16053e-08 0)
(-1.95574 1.07463e-07 0)
(-1.58239 1.14877e-07 0)
(-1.58239 1.45878e-07 0)
(-1.58239 3.21458e-08 0)
(-1.58239 -4.84927e-08 0)
(-1.58239 -1.02924e-07 0)
(-1.58239 -9.19215e-08 0)
(-1.58239 -1.43882e-07 0)
(-1.58239 -1.06948e-07 0)
(-1.58239 -1.48071e-07 0)
(-1.58239 -1.16804e-07 0)
(-1.58239 -1.34093e-07 0)
(-1.58239 -1.16363e-07 0)
(-1.58239 -1.11251e-07 0)
(-1.58239 -1.04514e-07 0)
(-1.58239 -8.54914e-08 0)
(-1.58239 -8.14239e-08 0)
(-1.58239 -5.8261e-08 0)
(-1.58239 -6.72945e-08 0)
(-1.58239 2.54572e-08 0)
(-1.58239 1.1631e-07 0)
(-1.08239 1.22788e-07 0)
(-1.08239 1.51299e-07 0)
(-1.08239 3.07731e-08 0)
(-1.08239 -4.78714e-08 0)
(-1.08239 -1.03349e-07 0)
(-1.08239 -9.35952e-08 0)
(-1.08239 -1.41371e-07 0)
(-1.08239 -1.10961e-07 0)
(-1.08239 -1.4377e-07 0)
(-1.08239 -1.21368e-07 0)
(-1.08239 -1.29424e-07 0)
(-1.08239 -1.20606e-07 0)
(-1.08239 -1.06944e-07 0)
(-1.08239 -1.07531e-07 0)
(-1.08239 -8.29373e-08 0)
(-1.08239 -8.20941e-08 0)
(-1.08239 -5.76588e-08 0)
(-1.08239 -6.72944e-08 0)
(-1.08239 3.74316e-08 0)
(-1.08239 1.19728e-07 0)
(-0.45574 1.24143e-07 0)
(-0.45574 1.48378e-07 0)
(-0.45574 2.67308e-08 0)
(-0.45574 -4.66135e-08 0)
(-0.45574 -1.01101e-07 0)
(-0.45574 -9.29314e-08 0)
(-0.45574 -1.34944e-07 0)
(-0.45574 -1.11905e-07 0)
(-0.45574 -1.35592e-07 0)
(-0.45574 -1.22465e-07 0)
(-0.45574 -1.21326e-07 0)
(-0.45574 -1.21327e-07 0)
(-0.45574 -9.99471e-08 0)
(-0.45574 -1.07188e-07 0)
(-0.45574 -7.85011e-08 0)
(-0.45574 -8.0112e-08 0)
(-0.45574 -5.5841e-08 0)
(-0.45574 -6.50094e-08 0)
(-0.45574 4.61513e-08 0)
(-0.45574 1.17036e-07 0)
(0.297551 1.18496e-07 0)
(0.297551 1.37018e-07 0)
(0.297551 2.02408e-08 0)
(0.297552 -4.47773e-08 0)
(0.297552 -9.62344e-08 0)
(0.297552 -8.97548e-08 0)
(0.297551 -1.25005e-07 0)
(0.297552 -1.0938e-07 0)
(0.297551 -1.24096e-07 0)
(0.297552 -1.19646e-07 0)
(0.297551 -1.10372e-07 0)
(0.297552 -1.18104e-07 0)
(0.297551 -9.07682e-08 0)
(0.297552 -1.03202e-07 0)
(0.297551 -7.24444e-08 0)
(0.297552 -7.54557e-08 0)
(0.297551 -5.28444e-08 0)
(0.297552 -6.04805e-08 0)
(0.297551 5.07068e-08 0)
(0.297552 1.08174e-07 0)
(1.17749 1.06174e-07 0)
(1.17749 1.18078e-07 0)
(1.17749 1.19481e-08 0)
(1.17749 -4.22721e-08 0)
(1.17749 -8.87765e-08 0)
(1.17749 -8.38553e-08 0)
(1.17749 -1.11953e-07 0)
(1.17749 -1.03024e-07 0)
(1.17749 -1.09804e-07 0)
(1.17749 -1.12537e-07 0)
(1.17749 -9.70704e-08 0)
(1.17749 -1.10614e-07 0)
(1.17749 -7.98181e-08 0)
(1.17749 -9.54236e-08 0)
(1.17749 -6.49156e-08 0)
(1.17749 -6.81983e-08 0)
(1.17749 -4.86316e-08 0)
(1.17749 -5.37996e-08 0)
(1.17749 5.07618e-08 0)
(1.17749 9.37822e-08 0)
(2.18407 8.83077e-08 0)
(2.18407 9.34033e-08 0)
(2.18408 2.92589e-09 0)
(2.18408 -3.88384e-08 0)
(2.18408 -7.87463e-08 0)
(2.18408 -7.50217e-08 0)
(2.18408 -9.61814e-08 0)
(2.18408 -9.25723e-08 0)
(2.18408 -9.31727e-08 0)
(2.18408 -1.00898e-07 0)
(2.18408 -8.18464e-08 0)
(2.18408 -9.86801e-08 0)
(2.18408 -6.73897e-08 0)
(2.18408 -8.38704e-08 0)
(2.18408 -5.59595e-08 0)
(2.18408 -5.85104e-08 0)
(2.18408 -4.31056e-08 0)
(2.18408 -4.51447e-08 0)
(2.18408 4.65908e-08 0)
(2.18408 7.52122e-08 0)
(3.31731 6.67608e-08 0)
(3.31731 6.57132e-08 0)
(3.31731 -5.38052e-09 0)
(3.31731 -3.40817e-08 0)
(3.31731 -6.61869e-08 0)
(3.31731 -6.31447e-08 0)
(3.31731 -7.8079e-08 0)
(3.31731 -7.79857e-08 0)
(3.31731 -7.46118e-08 0)
(3.31731 -8.47527e-08 0)
(3.31731 -6.50482e-08 0)
(3.31731 -8.24047e-08 0)
(3.31731 -5.36723e-08 0)
(3.31731 -6.88143e-08 0)
(3.31731 -4.55657e-08 0)
(3.31731 -4.66985e-08 0)
(3.31731 -3.61561e-08 0)
(3.31731 -3.48455e-08 0)
(3.31731 3.90147e-08 0)
(3.31731 5.44313e-08 0)
(4.57719 4.40613e-08 0)
(4.57719 3.84157e-08 0)
(4.57719 -1.13092e-08 0)
(4.57719 -2.76176e-08 0)
(4.57719 -5.12416e-08 0)
(4.57719 -4.84184e-08 0)
(4.57719 -5.81044e-08 0)
(4.57719 -5.96831e-08 0)
(4.57719 -5.45619e-08 0)
(4.57719 -6.46362e-08 0)
(4.57719 -4.70372e-08 0)
(4.57719 -6.23957e-08 0)
(4.57719 -3.88598e-08 0)
(4.57719 -5.09433e-08 0)
(4.57719 -3.3809e-08 0)
(4.57719 -3.33125e-08 0)
(4.57719 -2.77878e-08 0)
(4.57719 -2.34701e-08 0)
(4.57719 2.92621e-08 0)
(4.57719 3.38709e-08 0)
(5.96372 2.2846e-08 0)
(5.96373 1.49338e-08 0)
(5.96373 -1.39603e-08 0)
(5.96373 -2.02619e-08 0)
(5.96373 -3.54618e-08 0)
(5.96373 -3.27999e-08 0)
(5.96373 -3.8371e-08 0)
(5.96373 -4.01085e-08 0)
(5.96373 -3.52285e-08 0)
(5.96373 -4.31495e-08 0)
(5.96373 -2.98996e-08 0)
(5.96373 -4.11971e-08 0)
(5.96373 -2.47021e-08 0)
(5.96373 -3.25899e-08 0)
(5.96373 -2.20684e-08 0)
(5.96373 -2.01428e-08 0)
(5.96373 -1.89333e-08 0)
(5.96373 -1.25891e-08 0)
(5.96373 1.84922e-08 0)
(5.96373 1.61456e-08 0)
(7.47691 7.17103e-09 0)
(7.47691 -4.19348e-11 0)
(7.47691 -1.17987e-08 0)
(7.47691 -1.20712e-08 0)
(7.47691 -1.96103e-08 0)
(7.47691 -1.75812e-08 0)
(7.47691 -1.99677e-08 0)
(7.47691 -2.11535e-08 0)
(7.47691 -1.76932e-08 0)
(7.47691 -2.24719e-08 0)
(7.47691 -1.46144e-08 0)
(7.47691 -2.10417e-08 0)
(7.47691 -1.20305e-08 0)
(7.47691 -1.57552e-08 0)
(7.47691 -1.11836e-08 0)
(7.47691 -8.65296e-09 0)
(7.47691 -1.02728e-08 0)
(7.47691 -3.75251e-09 0)
(7.47691 8.79772e-09 0)
(7.47691 4.25301e-09 0)
(9.11675 5.40432e-10 0)
(9.11675 -2.46417e-09 0)
(9.11675 -4.84373e-09 0)
(9.11675 -4.11496e-09 0)
(9.11675 -6.162e-09 0)
(9.11675 -5.41254e-09 0)
(9.11675 -5.96212e-09 0)
(9.11675 -6.36288e-09 0)
(9.11675 -5.12851e-09 0)
(9.11675 -6.63936e-09 0)
(9.11675 -4.14442e-09 0)
(9.11675 -6.06963e-09 0)
(9.11675 -3.40914e-09 0)
(9.11675 -4.2729e-09 0)
(9.11675 -3.27431e-09 0)
(9.11675 -2.00155e-09 0)
(9.11675 -3.19036e-09 0)
(9.11675 -2.26888e-10 0)
(9.11675 2.18199e-09 0)
(9.11675 4.77512e-11 0)
)
;

boundaryField
{
    top
    {
        type            fixedValue;
        value           uniform (10 0 0);
    }
    bottom
    {
        type            fixedValue;
        value           uniform (0 0 0);
    }
    inlet
    {
        type            zeroGradient;
    }
    outlet
    {
        type            zeroGradient;
    }
    frontAndBack
    {
        type            empty;
    }
}


// ************************************************************************* //
