/*--------------------------------*- C++ -*----------------------------------*\
| =========                 |                                                 |
| \\      /  F ield         | OpenFOAM: The Open Source CFD Toolbox           |
|  \\    /   O peration     | Version:  4.1                                   |
|   \\  /    A nd           | Web:      www.OpenFOAM.org                      |
|    \\/     M anipulation  |                                                 |
\*---------------------------------------------------------------------------*/
FoamFile
{
    version     2.0;
    format      ascii;
    class       surfaceScalarField;
    location    "3.9";
    object      phi;
}
// * * * * * * * * * * * * * * * * * * * * * * * * * * * * * * * * * * * * * //

dimensions      [0 3 -1 0 0 0 0];

internalField   nonuniform List<scalar> 
760
(
-1.91641e-05
1.3125e-13
-1.91641e-05
3.37366e-12
-1.91641e-05
1.53252e-12
-1.91641e-05
7.21323e-12
-1.91641e-05
3.51689e-12
-1.91641e-05
9.86504e-12
-1.91641e-05
4.98125e-12
-1.91641e-05
1.15141e-11
-1.91641e-05
5.7645e-12
-1.91641e-05
1.20681e-11
-1.91641e-05
5.93314e-12
-1.91641e-05
1.14527e-11
-1.91641e-05
5.61766e-12
-1.91641e-05
9.92022e-12
-1.91641e-05
4.69132e-12
-1.91641e-05
7.63994e-12
-1.91641e-05
3.82739e-12
-1.91641e-05
4.37154e-12
-1.91641e-05
2.52719e-12
2.43158e-12
-5.11594e-05
8.91827e-13
-5.11594e-05
6.56504e-12
-5.11594e-05
4.13225e-12
-5.11594e-05
1.35025e-11
-5.11594e-05
8.42542e-12
-5.11594e-05
1.83367e-11
-5.11594e-05
1.15888e-11
-5.11594e-05
2.13422e-11
-5.11594e-05
1.32347e-11
-5.11594e-05
2.23265e-11
-5.11594e-05
1.3493e-11
-5.11594e-05
2.1163e-11
-5.11594e-05
1.26199e-11
-5.11594e-05
1.83307e-11
-5.11594e-05
1.04211e-11
-5.11594e-05
1.41263e-11
-5.11594e-05
8.23105e-12
-5.11594e-05
8.13725e-12
-5.11594e-05
5.02001e-12
4.77079e-12
-7.68219e-05
2.6196e-12
-7.68219e-05
1.03183e-11
-7.68219e-05
8.59864e-12
-7.68219e-05
2.04192e-11
-7.68219e-05
1.59632e-11
-7.68219e-05
2.75024e-11
-7.68219e-05
2.13234e-11
-7.68219e-05
3.18719e-11
-7.68219e-05
2.40093e-11
-7.68219e-05
3.3227e-11
-7.68219e-05
2.42237e-11
-7.68219e-05
3.14175e-11
-7.68219e-05
2.23674e-11
-7.68219e-05
2.7167e-11
-7.68219e-05
1.82651e-11
-7.68219e-05
2.08928e-11
-7.68219e-05
1.39519e-11
-7.68219e-05
1.21364e-11
-7.68219e-05
7.85311e-12
7.30179e-12
-9.61516e-05
5.17905e-12
-9.61516e-05
1.45437e-11
-9.61516e-05
1.45576e-11
-9.61516e-05
2.7701e-11
-9.61516e-05
2.53973e-11
-9.61516e-05
3.69649e-11
-9.61516e-05
3.31749e-11
-9.61516e-05
4.25994e-11
-9.61516e-05
3.69297e-11
-9.61516e-05
4.42035e-11
-9.61516e-05
3.69428e-11
-9.61516e-05
4.16398e-11
-9.61516e-05
3.3764e-11
-9.61516e-05
3.58828e-11
-9.61516e-05
2.73279e-11
-9.61516e-05
2.74538e-11
-9.61516e-05
2.03326e-11
-9.61516e-05
1.60216e-11
-9.61516e-05
1.06833e-11
9.64085e-12
-0.000109148
8.02421e-12
-0.000109148
1.88692e-11
-0.000109148
2.09505e-11
-0.000109148
3.49667e-11
-0.000109148
3.53147e-11
-0.000109148
4.63477e-11
-0.000109148
4.55085e-11
-0.000109148
5.3185e-11
-0.000109148
5.02998e-11
-0.000109148
5.49836e-11
-0.000109148
5.00519e-11
-0.000109148
5.16333e-11
-0.000109148
4.54516e-11
-0.000109148
4.43615e-11
-0.000109148
3.65938e-11
-0.000109148
3.37646e-11
-0.000109148
2.67849e-11
-0.000109148
1.97742e-11
-0.000109148
1.34074e-11
1.17943e-11
-0.000115812
1.0754e-11
-0.000115812
2.27824e-11
-0.000115812
2.68976e-11
-0.000115813
4.1372e-11
-0.000115812
4.4388e-11
-0.000115813
5.4582e-11
-0.000115812
5.66949e-11
-0.000115813
6.24452e-11
-0.000115812
6.23642e-11
-0.000115813
6.43825e-11
-0.000115812
6.18395e-11
-0.000115813
6.03157e-11
-0.000115813
5.59132e-11
-0.000115813
5.17002e-11
-0.000115813
4.48706e-11
-0.000115813
3.91596e-11
-0.000115813
3.25065e-11
-0.000115813
2.30012e-11
-0.000115813
1.57156e-11
1.351e-11
-0.000116144
1.31447e-11
-0.000116144
2.59954e-11
-0.000116144
3.19011e-11
-0.000116144
4.64828e-11
-0.000116144
5.18654e-11
-0.000116144
6.11253e-11
-0.000116144
6.58122e-11
-0.000116144
6.97842e-11
-0.000116144
7.21275e-11
-0.000116144
7.18092e-11
-0.000116144
7.13314e-11
-0.000116144
6.71531e-11
-0.000116144
6.42845e-11
-0.000116144
5.7456e-11
-0.000116144
5.14762e-11
-0.000116144
4.33209e-11
-0.000116144
3.70358e-11
-0.000116144
2.55053e-11
-0.000116144
1.74547e-11
1.46437e-11
-0.000110142
1.51245e-11
-0.000110142
2.84143e-11
-0.000110142
3.58046e-11
-0.000110142
5.01955e-11
-0.000110142
5.75085e-11
-0.000110142
6.58502e-11
-0.000110142
7.2565e-11
-0.000110142
7.50634e-11
-0.000110142
7.92677e-11
-0.000110142
7.71259e-11
-0.000110142
7.82088e-11
-0.000110142
7.20227e-11
-0.000110142
7.02815e-11
-0.000110142
6.15222e-11
-0.000110142
5.61854e-11
-0.000110142
4.61761e-11
-0.000110142
4.02142e-11
-0.000110142
2.72233e-11
-0.000110142
1.86042e-11
1.51265e-11
-9.78078e-05
1.6669e-11
-9.78078e-05
2.99978e-11
-9.78078e-05
3.85436e-11
-9.78078e-05
5.24689e-11
-9.78078e-05
6.12288e-11
-9.78078e-05
6.86929e-11
-9.78078e-05
7.68484e-11
-9.78078e-05
7.8205e-11
-9.78078e-05
8.36734e-11
-9.78078e-05
8.02482e-11
-9.78078e-05
8.23622e-11
-9.78078e-05
7.48436e-11
-9.78078e-05
7.38103e-11
-9.78078e-05
6.3822e-11
-9.78078e-05
5.89219e-11
-9.78078e-05
4.76749e-11
-9.78078e-05
4.19864e-11
-9.78078e-05
2.80961e-11
-9.78078e-05
1.9179e-11
1.49422e-11
-7.91406e-05
1.77642e-11
-7.91406e-05
3.07365e-11
-7.91406e-05
4.00921e-11
-7.91406e-05
5.33018e-11
-7.91406e-05
6.30241e-11
-7.91406e-05
6.96372e-11
-7.91406e-05
7.86782e-11
-7.91406e-05
7.91823e-11
-7.91406e-05
8.53762e-11
-7.91406e-05
8.11416e-11
-7.91406e-05
8.38313e-11
-7.91406e-05
7.55781e-11
-7.91406e-05
7.49199e-11
-7.91406e-05
6.43159e-11
-7.91406e-05
5.97273e-11
-7.91406e-05
4.77963e-11
-7.91406e-05
4.23871e-11
-7.91406e-05
2.80844e-11
-7.91406e-05
1.92228e-11
1.41339e-11
-5.41406e-05
1.83821e-11
-5.41406e-05
3.06304e-11
-5.41406e-05
4.04235e-11
-5.41406e-05
5.26911e-11
-5.41406e-05
6.2915e-11
-5.41406e-05
6.86657e-11
-5.41406e-05
7.81127e-11
-5.41406e-05
7.79678e-11
-5.41406e-05
8.44642e-11
-5.41406e-05
7.97721e-11
-5.41406e-05
8.27211e-11
-5.41406e-05
7.41889e-11
-5.41406e-05
7.37246e-11
-5.41406e-05
6.29703e-11
-5.41406e-05
5.86985e-11
-5.41406e-05
4.65274e-11
-5.41406e-05
4.14984e-11
-5.41406e-05
2.7165e-11
-5.41406e-05
1.87804e-11
1.27926e-11
-2.28078e-05
1.84759e-11
-2.28078e-05
2.96836e-11
-2.28078e-05
3.95089e-11
-2.28078e-05
5.06256e-11
-2.28078e-05
6.09299e-11
-2.28078e-05
6.57562e-11
-2.28078e-05
7.52289e-11
-2.28078e-05
7.45314e-11
-2.28078e-05
8.10535e-11
-2.28078e-05
7.61069e-11
-2.28078e-05
7.91695e-11
-2.28078e-05
7.06429e-11
-2.28078e-05
7.03711e-11
-2.28078e-05
5.97626e-11
-2.28078e-05
5.59598e-11
-2.28078e-05
4.3867e-11
-2.28078e-05
3.94248e-11
-2.28078e-05
2.5342e-11
-2.28078e-05
1.78822e-11
1.10419e-11
1.48578e-05
1.79861e-11
1.48578e-05
2.7907e-11
1.48578e-05
3.73318e-11
1.48578e-05
4.70962e-11
1.48578e-05
5.71112e-11
1.48578e-05
6.08978e-11
1.48578e-05
7.01225e-11
1.48578e-05
6.88592e-11
1.48578e-05
7.52801e-11
1.48578e-05
7.01348e-11
1.48578e-05
7.33351e-11
1.48578e-05
6.49313e-11
1.48578e-05
6.50211e-11
1.48578e-05
5.47001e-11
1.48578e-05
5.16458e-11
1.48578e-05
3.98393e-11
1.48578e-05
3.62742e-11
1.48578e-05
2.26592e-11
1.48578e-05
1.65365e-11
9.0193e-12
5.88562e-05
1.68604e-11
5.88562e-05
2.53324e-11
5.88562e-05
3.39255e-11
5.88562e-05
4.21385e-11
5.88562e-05
5.15523e-11
5.88562e-05
5.41475e-11
5.88562e-05
6.2946e-11
5.88562e-05
6.10195e-11
5.88562e-05
6.73356e-11
5.88562e-05
6.19336e-11
5.88562e-05
6.54253e-11
5.88562e-05
5.71344e-11
5.88562e-05
5.78716e-11
5.88562e-05
4.78718e-11
5.88562e-05
4.59158e-11
5.88562e-05
3.45323e-11
5.88562e-05
3.21599e-11
5.88562e-05
1.92206e-11
5.88562e-05
1.474e-11
6.86233e-12
0.000109187
1.50697e-11
0.000109187
2.19976e-11
0.000109187
2.93623e-11
0.000109187
3.58263e-11
0.000109187
4.4374e-11
0.000109187
4.56233e-11
0.000109187
5.38749e-11
0.000109187
5.11576e-11
0.000109187
5.74256e-11
0.000109187
5.16678e-11
0.000109187
5.56527e-11
0.000109187
4.74216e-11
0.000109187
4.91134e-11
0.000109187
3.94485e-11
0.000109187
3.89193e-11
0.000109187
2.80983e-11
0.000109187
2.71785e-11
0.000109187
1.51806e-11
0.000109187
1.24895e-11
4.69702e-12
0.000165852
1.26762e-11
0.000165852
1.80565e-11
0.000165852
2.39257e-11
0.000165852
2.85266e-11
0.000165852
3.59974e-11
0.000165852
3.58595e-11
0.000165852
4.34468e-11
0.000165852
3.99118e-11
0.000165852
4.61396e-11
0.000165852
4.00213e-11
0.000165852
4.4599e-11
0.000165852
3.64598e-11
0.000165852
3.92621e-11
0.000165852
3.00297e-11
0.000165852
3.10662e-11
0.000165852
2.10175e-11
0.000165852
2.16045e-11
0.000165852
1.08927e-11
0.000165852
9.89235e-12
2.69301e-12
0.000228848
9.91927e-12
0.000228848
1.38468e-11
0.000228848
1.81765e-11
0.000228848
2.09765e-11
0.000228848
2.72598e-11
0.000228848
2.58831e-11
0.000228848
3.27004e-11
0.000228848
2.84869e-11
0.000228848
3.45983e-11
0.000228848
2.82583e-11
0.000228848
3.33588e-11
0.000228848
2.54569e-11
0.000228848
2.92887e-11
0.000228848
2.06652e-11
0.000228848
2.31333e-11
0.000228848
1.40934e-11
0.000228848
1.59782e-11
0.000228848
6.87169e-12
0.000228848
7.21641e-12
1.0497e-12
0.000298178
6.61384e-12
0.000298178
9.18985e-12
0.000298178
1.2043e-11
0.000298178
1.33487e-11
0.000298178
1.80995e-11
0.000298178
1.61581e-11
0.000298178
2.16347e-11
0.000298178
1.75696e-11
0.000298178
2.28495e-11
0.000298178
1.72192e-11
0.000298178
2.2012e-11
0.000298178
1.5318e-11
0.000298178
1.93009e-11
0.000298178
1.22327e-11
0.000298178
1.52423e-11
0.000298178
8.09733e-12
0.000298178
1.04526e-11
0.000298178
3.68775e-12
0.000298178
4.65047e-12
9.01479e-14
0.000373841
3.38525e-12
0.000373841
4.80709e-12
0.000373841
6.38406e-12
0.000373841
6.75234e-12
0.000373841
9.74329e-12
0.000373841
8.0428e-12
0.000373841
1.16854e-11
0.000373841
8.65162e-12
0.000373841
1.23836e-11
0.000373841
8.38173e-12
0.000373841
1.1973e-11
0.000373841
7.36747e-12
0.000373841
1.05288e-11
0.000373841
5.79503e-12
0.000373841
8.35248e-12
0.000373841
3.73389e-12
0.000373841
5.70875e-12
0.000373841
1.62398e-12
0.000373841
2.53214e-12
-1.51008e-13
0.000455836
0.000455836
0.000455836
0.000455836
0.000455836
0.000455836
0.000455836
0.000455836
0.000455836
0.000455836
0.000455836
0.000455836
0.000455836
0.000455836
0.000455836
0.000455836
0.000455836
0.000455836
0.000455836
)
;

boundaryField
{
    top
    {
        type            calculated;
        value           uniform 0;
    }
    bottom
    {
        type            calculated;
        value           uniform 0;
    }
    inlet
    {
        type            calculated;
        value           nonuniform List<scalar> 
20
(
1.91641e-05
5.11594e-05
7.68219e-05
9.61516e-05
0.000109148
0.000115812
0.000116144
0.000110142
9.78078e-05
7.91406e-05
5.41406e-05
2.28078e-05
-1.48578e-05
-5.88562e-05
-0.000109187
-0.000165852
-0.000228848
-0.000298178
-0.000373841
-0.000455836
)
;
    }
    outlet
    {
        type            calculated;
        value           nonuniform List<scalar> 
20
(
-1.91641e-05
-5.11594e-05
-7.68219e-05
-9.61516e-05
-0.000109148
-0.000115813
-0.000116144
-0.000110142
-9.78078e-05
-7.91406e-05
-5.41406e-05
-2.28078e-05
1.48578e-05
5.88562e-05
0.000109187
0.000165852
0.000228848
0.000298178
0.000373841
0.000455836
)
;
    }
    frontAndBack
    {
        type            empty;
        value           nonuniform 0();
    }
}


// ************************************************************************* //
