/*--------------------------------*- C++ -*----------------------------------*\
| =========                 |                                                 |
| \\      /  F ield         | OpenFOAM: The Open Source CFD Toolbox           |
|  \\    /   O peration     | Version:  4.1                                   |
|   \\  /    A nd           | Web:      www.OpenFOAM.org                      |
|    \\/     M anipulation  |                                                 |
\*---------------------------------------------------------------------------*/
FoamFile
{
    version     2.0;
    format      ascii;
    class       volVectorField;
    location    "3.9";
    object      U;
}
// * * * * * * * * * * * * * * * * * * * * * * * * * * * * * * * * * * * * * //

dimensions      [0 1 -1 0 0 0 0];

internalField   nonuniform List<vector> 
400
(
(-0.383281 6.57074e-12 0)
(-0.383281 1.51925e-09 0)
(-0.383281 5.85853e-10 0)
(-0.383281 3.249e-09 0)
(-0.383281 1.41252e-09 0)
(-0.383281 4.43735e-09 0)
(-0.383281 2.02146e-09 0)
(-0.383281 5.16863e-09 0)
(-0.383281 2.34824e-09 0)
(-0.383281 5.40898e-09 0)
(-0.383281 2.42278e-09 0)
(-0.383281 5.12502e-09 0)
(-0.383281 2.3024e-09 0)
(-0.383281 4.4305e-09 0)
(-0.383281 1.92601e-09 0)
(-0.383281 3.40104e-09 0)
(-0.383281 1.5937e-09 0)
(-0.383281 1.92874e-09 0)
(-0.383281 1.08011e-09 0)
(-0.383281 1.03934e-09 0)
(-1.02319 5.91972e-10 0)
(-1.02319 5.26254e-09 0)
(-1.02319 3.21363e-09 0)
(-1.02319 1.10074e-08 0)
(-1.02319 6.59163e-09 0)
(-1.02319 1.49869e-08 0)
(-1.02319 9.0457e-09 0)
(-1.02319 1.74425e-08 0)
(-1.02319 1.0318e-08 0)
(-1.02319 1.82393e-08 0)
(-1.02319 1.05091e-08 0)
(-1.02319 1.72824e-08 0)
(-1.02319 9.82041e-09 0)
(-1.02319 1.49553e-08 0)
(-1.02319 8.10891e-09 0)
(-1.02319 1.15055e-08 0)
(-1.02319 6.40427e-09 0)
(-1.02319 6.63257e-09 0)
(-1.02319 3.95778e-09 0)
(-1.02319 3.71393e-09 0)
(-1.53644 1.72302e-09 0)
(-1.53644 8.52128e-09 0)
(-1.53644 6.3802e-09 0)
(-1.53644 1.71762e-08 0)
(-1.53644 1.22501e-08 0)
(-1.53644 2.32183e-08 0)
(-1.53644 1.65277e-08 0)
(-1.53644 2.69543e-08 0)
(-1.53644 1.86992e-08 0)
(-1.53644 2.81393e-08 0)
(-1.53644 1.89326e-08 0)
(-1.53644 2.66334e-08 0)
(-1.53644 1.75571e-08 0)
(-1.53644 2.3045e-08 0)
(-1.53644 1.43907e-08 0)
(-1.53644 1.77347e-08 0)
(-1.53644 1.11277e-08 0)
(-1.53644 1.02687e-08 0)
(-1.53644 6.46741e-09 0)
(-1.53644 6.07781e-09 0)
(-1.92303 3.89946e-09 0)
(-1.92303 1.2411e-08 0)
(-1.92303 1.15905e-08 0)
(-1.92303 2.40176e-08 0)
(-1.92303 2.0669e-08 0)
(-1.92303 3.21689e-08 0)
(-1.92303 2.72179e-08 0)
(-1.92303 3.7154e-08 0)
(-1.92303 3.04243e-08 0)
(-1.92303 3.86243e-08 0)
(-1.92303 3.05299e-08 0)
(-1.92303 3.64383e-08 0)
(-1.92303 2.80086e-08 0)
(-1.92303 3.14412e-08 0)
(-1.92303 2.27451e-08 0)
(-1.92303 2.41035e-08 0)
(-1.92303 1.70915e-08 0)
(-1.92303 1.40367e-08 0)
(-1.92303 9.23019e-09 0)
(-1.92303 8.42323e-09 0)
(-2.18297 6.59275e-09 0)
(-2.18297 1.66763e-08 0)
(-2.18297 1.77153e-08 0)
(-2.18297 3.12819e-08 0)
(-2.18297 3.02921e-08 0)
(-2.18297 4.15851e-08 0)
(-2.18297 3.92662e-08 0)
(-2.18297 4.78101e-08 0)
(-2.18297 4.35341e-08 0)
(-2.18297 4.95093e-08 0)
(-2.18297 4.34192e-08 0)
(-2.18297 4.65586e-08 0)
(-2.18297 3.95393e-08 0)
(-2.18297 4.00551e-08 0)
(-2.18297 3.19075e-08 0)
(-2.18297 3.05602e-08 0)
(-2.18297 2.35213e-08 0)
(-2.18297 1.78669e-08 0)
(-2.18297 1.20293e-08 0)
(-2.18297 1.07106e-08 0)
(-2.31625 9.38309e-09 0)
(-2.31625 2.07995e-08 0)
(-2.31625 2.38674e-08 0)
(-2.31625 3.81124e-08 0)
(-2.31625 3.97704e-08 0)
(-2.31625 5.03864e-08 0)
(-2.31625 5.10129e-08 0)
(-2.31625 5.77263e-08 0)
(-2.31625 5.62421e-08 0)
(-2.31625 5.95936e-08 0)
(-2.31625 5.58627e-08 0)
(-2.31625 5.58924e-08 0)
(-2.31625 5.06139e-08 0)
(-2.31625 4.79611e-08 0)
(-2.31625 4.06824e-08 0)
(-2.31625 3.6413e-08 0)
(-2.31625 2.96166e-08 0)
(-2.31625 2.13542e-08 0)
(-2.31625 1.4556e-08 0)
(-2.31625 1.26601e-08 0)
(-2.32287 1.19434e-08 0)
(-2.32287 2.43635e-08 0)
(-2.32287 2.9323e-08 0)
(-2.32287 4.38573e-08 0)
(-2.32288 4.80229e-08 0)
(-2.32287 5.77566e-08 0)
(-2.32288 6.11417e-08 0)
(-2.32287 6.60054e-08 0)
(-2.32288 6.71344e-08 0)
(-2.32287 6.79863e-08 0)
(-2.32288 6.64841e-08 0)
(-2.32288 6.3634e-08 0)
(-2.32288 6.00171e-08 0)
(-2.32288 5.44937e-08 0)
(-2.32288 4.81148e-08 0)
(-2.32288 4.11814e-08 0)
(-2.32288 3.47404e-08 0)
(-2.32288 2.42129e-08 0)
(-2.32288 1.65811e-08 0)
(-2.32288 1.40939e-08 0)
(-2.20284 1.41315e-08 0)
(-2.20284 2.7189e-08 0)
(-2.20284 3.37764e-08 0)
(-2.20284 4.82743e-08 0)
(-2.20284 5.45879e-08 0)
(-2.20284 6.33976e-08 0)
(-2.20284 6.90854e-08 0)
(-2.20284 7.23232e-08 0)
(-2.20284 7.55978e-08 0)
(-2.20284 7.43676e-08 0)
(-2.20284 7.46822e-08 0)
(-2.20284 6.94968e-08 0)
(-2.20284 6.72152e-08 0)
(-2.20284 5.94135e-08 0)
(-2.20284 5.37845e-08 0)
(-2.20284 4.46967e-08 0)
(-2.20284 3.86059e-08 0)
(-2.20284 2.63286e-08 0)
(-2.20284 1.80312e-08 0)
(-2.20284 1.49096e-08 0)
(-1.95616 1.58937e-08 0)
(-1.95616 2.9196e-08 0)
(-1.95616 3.70966e-08 0)
(-1.95616 5.12662e-08 0)
(-1.95616 5.92691e-08 0)
(-1.95616 6.71797e-08 0)
(-1.95616 7.4603e-08 0)
(-1.95616 7.65319e-08 0)
(-1.95616 8.13707e-08 0)
(-1.95616 7.85855e-08 0)
(-1.95616 8.01981e-08 0)
(-1.95616 7.33404e-08 0)
(-1.95616 7.1979e-08 0)
(-1.95616 6.25957e-08 0)
(-1.95616 5.75081e-08 0)
(-1.95616 4.68727e-08 0)
(-1.95616 4.10835e-08 0)
(-1.95616 2.76239e-08 0)
(-1.95616 1.88932e-08 0)
(-1.95616 1.50596e-08 0)
(-1.58281 1.72131e-08 0)
(-1.58281 3.03622e-08 0)
(-1.58281 3.92436e-08 0)
(-1.58281 5.282e-08 0)
(-1.58281 6.20289e-08 0)
(-1.58281 6.90736e-08 0)
(-1.58281 7.76599e-08 0)
(-1.58281 7.85915e-08 0)
(-1.58281 8.44243e-08 0)
(-1.58281 8.0593e-08 0)
(-1.58281 8.30081e-08 0)
(-1.58281 7.51173e-08 0)
(-1.58281 7.42963e-08 0)
(-1.58281 6.39919e-08 0)
(-1.58281 5.92767e-08 0)
(-1.58281 4.76809e-08 0)
(-1.58281 4.21688e-08 0)
(-1.58281 2.80531e-08 0)
(-1.58281 1.92004e-08 0)
(-1.58281 1.45588e-08 0)
(-1.08281 1.80696e-08 0)
(-1.08281 3.06825e-08 0)
(-1.08281 4.0191e-08 0)
(-1.08281 5.29343e-08 0)
(-1.08281 6.28768e-08 0)
(-1.08281 6.90634e-08 0)
(-1.08281 7.82938e-08 0)
(-1.08281 7.84757e-08 0)
(-1.08281 8.48193e-08 0)
(-1.08281 8.03567e-08 0)
(-1.08281 8.31853e-08 0)
(-1.08281 7.47904e-08 0)
(-1.08281 7.42496e-08 0)
(-1.08281 6.35655e-08 0)
(-1.08281 5.91605e-08 0)
(-1.08281 4.71046e-08 0)
(-1.08281 4.19211e-08 0)
(-1.08281 2.75843e-08 0)
(-1.08281 1.89985e-08 0)
(-1.08281 1.34754e-08 0)
(-0.456156 1.84263e-08 0)
(-0.456156 3.01588e-08 0)
(-0.456156 3.99096e-08 0)
(-0.456156 5.16021e-08 0)
(-0.456156 6.18369e-08 0)
(-0.456156 6.71293e-08 0)
(-0.456156 7.65726e-08 0)
(-0.456156 7.61555e-08 0)
(-0.456156 8.26584e-08 0)
(-0.456156 7.78431e-08 0)
(-0.456156 8.08523e-08 0)
(-0.456156 7.23245e-08 0)
(-0.456156 7.1971e-08 0)
(-0.456156 6.12886e-08 0)
(-0.456156 5.72716e-08 0)
(-0.456156 4.51368e-08 0)
(-0.456156 4.04354e-08 0)
(-0.456156 2.62076e-08 0)
(-0.456156 1.83259e-08 0)
(-0.456156 1.19183e-08 0)
(0.297156 1.82296e-08 0)
(0.297156 2.87981e-08 0)
(0.297156 3.83748e-08 0)
(0.297156 4.88126e-08 0)
(0.297156 5.89435e-08 0)
(0.297156 6.3254e-08 0)
(0.297156 7.25823e-08 0)
(0.297156 7.16087e-08 0)
(0.297156 7.80678e-08 0)
(0.297156 7.30298e-08 0)
(0.297156 7.61578e-08 0)
(0.297156 6.76984e-08 0)
(0.297156 6.76155e-08 0)
(0.297156 5.71533e-08 0)
(0.297156 5.37405e-08 0)
(0.297156 4.17889e-08 0)
(0.297156 3.78191e-08 0)
(0.297156 2.39472e-08 0)
(0.297156 1.72022e-08 0)
(0.297156 1.00199e-08 0)
(1.17712 1.74207e-08 0)
(1.17712 2.66172e-08 0)
(1.17712 3.55864e-08 0)
(1.17712 4.45692e-08 0)
(1.17712 5.42535e-08 0)
(1.17712 5.74474e-08 0)
(1.17712 6.64342e-08 0)
(1.17712 6.48477e-08 0)
(1.17712 7.11983e-08 0)
(1.17712 6.59354e-08 0)
(1.17712 6.92727e-08 0)
(1.17712 6.09345e-08 0)
(1.17712 6.13521e-08 0)
(1.17712 5.11968e-08 0)
(1.17712 4.87058e-08 0)
(1.17712 3.71095e-08 0)
(1.17712 3.41774e-08 0)
(1.17712 2.08735e-08 0)
(1.17712 1.56268e-08 0)
(1.17712 7.91776e-09 0)
(2.18375 1.59626e-08 0)
(2.18375 2.36651e-08 0)
(2.18375 3.16181e-08 0)
(2.18375 3.89549e-08 0)
(2.18375 4.79074e-08 0)
(2.18375 4.98368e-08 0)
(2.18375 5.83341e-08 0)
(2.18375 5.60253e-08 0)
(2.18375 6.2294e-08 0)
(2.18375 5.6729e-08 0)
(2.18375 6.04518e-08 0)
(2.18375 5.22028e-08 0)
(2.18375 5.34146e-08 0)
(2.18375 4.35886e-08 0)
(2.18375 4.23543e-08 0)
(2.18375 3.12493e-08 0)
(2.18375 2.96362e-08 0)
(2.18375 1.71374e-08 0)
(2.18375 1.36031e-08 0)
(2.18375 5.75059e-09 0)
(3.31703 1.38585e-08 0)
(3.31703 2.00174e-08 0)
(3.31703 2.6619e-08 0)
(3.31703 3.21485e-08 0)
(3.31703 4.01332e-08 0)
(3.31703 4.06922e-08 0)
(3.31703 4.85865e-08 0)
(3.31703 4.54695e-08 0)
(3.31703 5.16966e-08 0)
(3.31703 4.57695e-08 0)
(3.31703 5.00379e-08 0)
(3.31703 4.18616e-08 0)
(3.31703 4.41078e-08 0)
(3.31703 3.46633e-08 0)
(3.31703 3.49269e-08 0)
(3.31703 2.4488e-08 0)
(3.31703 2.43534e-08 0)
(3.31703 1.29726e-08 0)
(3.31703 1.1171e-08 0)
(3.31703 3.65941e-09 0)
(4.57697 1.12254e-08 0)
(4.57697 1.58826e-08 0)
(4.57697 2.09815e-08 0)
(4.57697 2.46824e-08 0)
(4.57697 3.15227e-08 0)
(4.57697 3.07928e-08 0)
(4.57697 3.79434e-08 0)
(4.57697 3.41156e-08 0)
(4.57697 4.02295e-08 0)
(4.57697 3.40589e-08 0)
(4.57697 3.88434e-08 0)
(4.57697 3.08864e-08 0)
(4.57697 3.41564e-08 0)
(4.57697 2.52897e-08 0)
(4.57697 2.70063e-08 0)
(4.57697 1.7515e-08 0)
(4.57697 1.87324e-08 0)
(4.57697 8.85877e-09 0)
(4.57697 8.53554e-09 0)
(4.57697 1.8562e-09 0)
(5.96356 8.35526e-09 0)
(5.96356 1.162e-08 0)
(5.96356 1.52865e-08 0)
(5.96356 1.73096e-08 0)
(5.96356 2.2955e-08 0)
(5.96356 2.11756e-08 0)
(5.96356 2.74902e-08 0)
(5.96356 2.31781e-08 0)
(5.96356 2.906e-08 0)
(5.96356 2.28672e-08 0)
(5.96356 2.80062e-08 0)
(5.96356 2.04852e-08 0)
(5.96356 2.45712e-08 0)
(5.96356 1.65111e-08 0)
(5.96356 1.94033e-08 0)
(5.96356 1.11163e-08 0)
(5.96356 1.33491e-08 0)
(5.96356 5.27478e-09 0)
(5.96356 5.98724e-09 0)
(5.96356 5.24769e-10 0)
(7.47681 5.14485e-09 0)
(7.47681 7.24558e-09 0)
(7.47681 9.69886e-09 0)
(7.47681 1.05931e-08 0)
(7.47681 1.47019e-08 0)
(7.47681 1.28505e-08 0)
(7.47681 1.76236e-08 0)
(7.47681 1.39731e-08 0)
(7.47681 1.86592e-08 0)
(7.47681 1.36824e-08 0)
(7.47681 1.80136e-08 0)
(7.47681 1.21687e-08 0)
(7.47681 1.5822e-08 0)
(7.47681 9.71559e-09 0)
(7.47681 1.2527e-08 0)
(7.47681 6.44184e-09 0)
(7.47681 8.55823e-09 0)
(7.47681 3.00218e-09 0)
(7.47681 3.80926e-09 0)
(7.47681 4.36589e-11 0)
(9.11672 1.45945e-09 0)
(9.11672 2.07503e-09 0)
(9.11672 2.77477e-09 0)
(9.11672 2.90328e-09 0)
(9.11672 4.27013e-09 0)
(9.11672 3.43449e-09 0)
(9.11672 5.13454e-09 0)
(9.11672 3.67326e-09 0)
(9.11672 5.45034e-09 0)
(9.11672 3.53449e-09 0)
(9.11672 5.27859e-09 0)
(9.11672 3.08498e-09 0)
(9.11672 4.6498e-09 0)
(9.11672 2.40533e-09 0)
(9.11672 3.6971e-09 0)
(9.11672 1.52303e-09 0)
(9.11672 2.52385e-09 0)
(9.11672 6.34868e-10 0)
(9.11672 1.12514e-09 0)
(9.11672 -1.13047e-10 0)
)
;

boundaryField
{
    top
    {
        type            fixedValue;
        value           uniform (10 0 0);
    }
    bottom
    {
        type            fixedValue;
        value           uniform (0 0 0);
    }
    inlet
    {
        type            zeroGradient;
    }
    outlet
    {
        type            zeroGradient;
    }
    frontAndBack
    {
        type            empty;
    }
}


// ************************************************************************* //
