/*--------------------------------*- C++ -*----------------------------------*\
| =========                 |                                                 |
| \\      /  F ield         | OpenFOAM: The Open Source CFD Toolbox           |
|  \\    /   O peration     | Version:  4.1                                   |
|   \\  /    A nd           | Web:      www.OpenFOAM.org                      |
|    \\/     M anipulation  |                                                 |
\*---------------------------------------------------------------------------*/
FoamFile
{
    version     2.0;
    format      ascii;
    class       surfaceScalarField;
    location    "4.7";
    object      phi;
}
// * * * * * * * * * * * * * * * * * * * * * * * * * * * * * * * * * * * * * //

dimensions      [0 3 -1 0 0 0 0];

internalField   nonuniform List<scalar> 
760
(
-1.91641e-05
6.60745e-13
-1.91641e-05
9.69093e-13
-1.91641e-05
1.2337e-12
-1.91641e-05
1.34725e-12
-1.91641e-05
1.63812e-12
-1.91641e-05
1.62473e-12
-1.91641e-05
1.90141e-12
-1.91641e-05
1.70393e-12
-1.91641e-05
2.00862e-12
-1.91641e-05
1.62861e-12
-1.91641e-05
1.91941e-12
-1.91641e-05
1.40833e-12
-1.91641e-05
1.66263e-12
-1.91641e-05
1.12507e-12
-1.91641e-05
1.25179e-12
-1.91641e-05
7.16199e-13
-1.91641e-05
8.53827e-13
-1.91641e-05
3.16048e-13
-1.91641e-05
2.56947e-13
1.53333e-13
-5.11594e-05
7.02272e-13
-5.11594e-05
2.92145e-13
-5.11594e-05
6.84714e-13
-5.11594e-05
-4.21943e-13
-5.11594e-05
5.94486e-13
-5.11594e-05
-8.02078e-13
-5.11594e-05
5.90564e-13
-5.11594e-05
-1.12524e-12
-5.11594e-05
6.10299e-13
-5.11594e-05
-1.3041e-12
-5.11594e-05
5.4338e-13
-5.11594e-05
-1.34066e-12
-5.11594e-05
3.98717e-13
-5.11594e-05
-1.1606e-12
-5.11594e-05
1.64641e-13
-5.11594e-05
-9.74125e-13
-5.11594e-05
7.00287e-14
-5.11594e-05
-6.54536e-13
-5.11594e-05
-2.17216e-13
1.60525e-13
-7.68219e-05
6.83839e-13
-7.68219e-05
-6.9306e-13
-7.68219e-05
1.09441e-14
-7.68219e-05
-2.7532e-12
-7.68219e-05
-6.04297e-13
-7.68219e-05
-3.9026e-12
-7.68219e-05
-8.6345e-13
-7.68219e-05
-4.66057e-12
-7.68219e-05
-9.10028e-13
-7.68219e-05
-4.90585e-12
-7.68219e-05
-9.31107e-13
-7.68219e-05
-4.65279e-12
-7.68219e-05
-9.46909e-13
-7.68219e-05
-3.85887e-12
-7.68219e-05
-9.82586e-13
-7.68219e-05
-2.88755e-12
-7.68219e-05
-7.80365e-13
-7.68219e-05
-1.65741e-12
-7.68219e-05
-6.68393e-13
2.83544e-13
-9.61516e-05
8.33365e-13
-9.61516e-05
-1.29856e-12
-9.61516e-05
-4.07123e-13
-9.61516e-05
-4.50052e-12
-9.61516e-05
-1.52129e-12
-9.61516e-05
-6.23989e-12
-9.61516e-05
-2.03177e-12
-9.61516e-05
-7.32188e-12
-9.61516e-05
-2.17154e-12
-9.61516e-05
-7.61425e-12
-9.61516e-05
-2.18809e-12
-9.61516e-05
-7.13915e-12
-9.61516e-05
-2.12484e-12
-9.61516e-05
-5.88149e-12
-9.61516e-05
-2.0066e-12
-9.61516e-05
-4.32152e-12
-9.61516e-05
-1.56823e-12
-9.61516e-05
-2.40719e-12
-9.61516e-05
-1.05476e-12
4.42619e-13
-0.000109148
1.10781e-12
-0.000109148
-1.57386e-12
-0.000109148
-5.62105e-13
-0.000109148
-5.62482e-12
-0.000109148
-2.09725e-12
-0.000109148
-7.72638e-12
-0.000109148
-2.82317e-12
-0.000109148
-8.99045e-12
-0.000109148
-3.06508e-12
-0.000109148
-9.29139e-12
-0.000109148
-3.11189e-12
-0.000109148
-8.65595e-12
-0.000109148
-3.02442e-12
-0.000109148
-7.08956e-12
-0.000109148
-2.80712e-12
-0.000109148
-5.16064e-12
-0.000109148
-2.2167e-12
-0.000109148
-2.80951e-12
-0.000109148
-1.34109e-12
6.65805e-13
-0.000115812
1.4153e-12
-0.000115812
-1.66678e-12
-0.000115812
-6.38557e-13
-0.000115813
-6.31542e-12
-0.000115812
-2.57906e-12
-0.000115813
-8.60114e-12
-0.000115812
-3.52665e-12
-0.000115813
-9.93015e-12
-0.000115812
-3.8955e-12
-0.000115813
-1.0198e-11
-0.000115813
-3.99398e-12
-0.000115813
-9.43893e-12
-0.000115813
-3.89778e-12
-0.000115813
-7.67926e-12
-0.000115813
-3.57583e-12
-0.000115813
-5.5454e-12
-0.000115813
-2.84987e-12
-0.000115813
-2.94445e-12
-0.000115813
-1.58333e-12
9.10411e-13
-0.000116144
1.69401e-12
-0.000116144
-1.68118e-12
-0.000116144
-7.36072e-13
-0.000116144
-6.69671e-12
-0.000116144
-3.07861e-12
-0.000116144
-9.02441e-12
-0.000116144
-4.26104e-12
-0.000116144
-1.03216e-11
-0.000116144
-4.77901e-12
-0.000116144
-1.05171e-11
-0.000116144
-4.93817e-12
-0.000116144
-9.65619e-12
-0.000116144
-4.82748e-12
-0.000116144
-7.79069e-12
-0.000116144
-4.37073e-12
-0.000116144
-5.57351e-12
-0.000116144
-3.49889e-12
-0.000116144
-2.87184e-12
-0.000116144
-1.79719e-12
1.14987e-12
-0.000110142
1.90942e-12
-0.000110142
-1.68072e-12
-0.000110142
-8.9721e-13
-0.000110142
-6.8468e-12
-0.000110142
-3.62411e-12
-0.000110142
-9.10605e-12
-0.000110142
-5.04369e-12
-0.000110142
-1.02959e-11
-0.000110142
-5.72156e-12
-0.000110142
-1.03872e-11
-0.000110142
-5.94013e-12
-0.000110142
-9.44047e-12
-0.000110142
-5.79964e-12
-0.000110142
-7.54031e-12
-0.000110142
-5.17589e-12
-0.000110142
-5.32798e-12
-0.000110142
-4.14379e-12
-0.000110142
-2.64693e-12
-0.000110142
-1.97833e-12
1.36056e-12
-9.78078e-05
2.04531e-12
-9.78078e-05
-1.69507e-12
-9.78078e-05
-1.13127e-12
-9.78078e-05
-6.8068e-12
-9.78078e-05
-4.19805e-12
-9.78078e-05
-8.91395e-12
-9.78078e-05
-5.83866e-12
-9.78078e-05
-9.94163e-12
-9.78078e-05
-6.67211e-12
-9.78078e-05
-9.91001e-12
-9.78078e-05
-6.94045e-12
-9.78078e-05
-8.89521e-12
-9.78078e-05
-6.75174e-12
-9.78078e-05
-7.02227e-12
-9.78078e-05
-5.93921e-12
-9.78078e-05
-4.87963e-12
-9.78078e-05
-4.73858e-12
-9.78078e-05
-2.32316e-12
-9.78078e-05
-2.11427e-12
1.52109e-12
-7.91406e-05
2.09659e-12
-7.91406e-05
-1.7309e-12
-7.91406e-05
-1.42742e-12
-7.91406e-05
-6.60077e-12
-7.91406e-05
-4.75771e-12
-7.91406e-05
-8.49712e-12
-7.91406e-05
-6.58254e-12
-7.91406e-05
-9.32893e-12
-7.91406e-05
-7.55091e-12
-7.91406e-05
-9.17003e-12
-7.91406e-05
-7.85257e-12
-7.91406e-05
-8.11022e-12
-7.91406e-05
-7.59839e-12
-7.91406e-05
-6.31973e-12
-7.91406e-05
-6.59263e-12
-7.91406e-05
-4.29469e-12
-7.91406e-05
-5.22594e-12
-7.91406e-05
-1.95074e-12
-7.91406e-05
-2.19136e-12
1.61406e-12
-5.41406e-05
2.06466e-12
-5.41406e-05
-1.78034e-12
-5.41406e-05
-1.76405e-12
-5.41406e-05
-6.24831e-12
-5.41406e-05
-5.25216e-12
-5.41406e-05
-7.89902e-12
-5.41406e-05
-7.20596e-12
-5.41406e-05
-8.52232e-12
-5.41406e-05
-8.27391e-12
-5.41406e-05
-8.24672e-12
-5.41406e-05
-8.58762e-12
-5.41406e-05
-7.17112e-12
-5.41406e-05
-8.2547e-12
-5.41406e-05
-5.51109e-12
-5.41406e-05
-7.07072e-12
-5.41406e-05
-3.63876e-12
-5.41406e-05
-5.55201e-12
-5.41406e-05
-1.57515e-12
-5.41406e-05
-2.20075e-12
1.62725e-12
-2.28078e-05
1.95489e-12
-2.28078e-05
-1.82685e-12
-2.28078e-05
-2.11119e-12
-2.28078e-05
-5.77171e-12
-2.28078e-05
-5.62929e-12
-2.28078e-05
-7.16444e-12
-2.28078e-05
-7.64301e-12
-2.28078e-05
-7.58697e-12
-2.28078e-05
-8.76384e-12
-2.28078e-05
-7.21872e-12
-2.28078e-05
-9.0661e-12
-2.28078e-05
-6.16145e-12
-2.28078e-05
-8.64798e-12
-2.28078e-05
-4.67032e-12
-2.28078e-05
-7.31977e-12
-2.28078e-05
-2.97556e-12
-2.28078e-05
-5.67579e-12
-2.28078e-05
-1.23364e-12
-2.28078e-05
-2.1407e-12
1.5552e-12
1.48578e-05
1.77539e-12
1.48578e-05
-1.84905e-12
1.48578e-05
-2.42837e-12
1.48578e-05
-5.19565e-12
1.48578e-05
-5.83567e-12
1.48578e-05
-6.33714e-12
1.48578e-05
-7.83075e-12
1.48578e-05
-6.58446e-12
1.48578e-05
-8.95035e-12
1.48578e-05
-6.15809e-12
1.48578e-05
-9.21853e-12
1.48578e-05
-5.1557e-12
1.48578e-05
-8.71905e-12
1.48578e-05
-3.86039e-12
1.48578e-05
-7.29825e-12
1.48578e-05
-2.36e-12
1.48578e-05
-5.572e-12
1.48578e-05
-9.50614e-13
1.48578e-05
-2.01461e-12
1.40068e-12
5.88562e-05
1.53717e-12
5.88562e-05
-1.82218e-12
5.88562e-05
-2.66069e-12
5.88562e-05
-4.53949e-12
5.88562e-05
-5.81116e-12
5.88562e-05
-5.44836e-12
5.88562e-05
-7.70151e-12
5.88562e-05
-5.55811e-12
5.88562e-05
-8.76162e-12
5.88562e-05
-5.11382e-12
5.88562e-05
-8.97707e-12
5.88562e-05
-4.20258e-12
5.88562e-05
-8.41433e-12
5.88562e-05
-3.11901e-12
5.88562e-05
-6.96971e-12
5.88562e-05
-1.82504e-12
5.88562e-05
-5.22679e-12
5.88562e-05
-7.3144e-13
5.88562e-05
-1.82509e-12
1.17702e-12
0.000109187
1.25199e-12
0.000109187
-1.72018e-12
0.000109187
-2.73953e-12
0.000109187
-3.80953e-12
0.000109187
-5.48535e-12
0.000109187
-4.50566e-12
0.000109187
-7.17499e-12
0.000109187
-4.51853e-12
0.000109187
-8.11301e-12
0.000109187
-4.09618e-12
0.000109187
-8.26101e-12
0.000109187
-3.30962e-12
0.000109187
-7.67011e-12
0.000109187
-2.44562e-12
0.000109187
-6.28841e-12
0.000109187
-1.36999e-12
0.000109187
-4.62549e-12
0.000109187
-5.58648e-13
0.000109187
-1.56466e-12
9.11208e-13
0.000165852
9.3681e-13
0.000165852
-1.50718e-12
0.000165852
-2.57742e-12
0.000165852
-2.97298e-12
0.000165852
-4.76514e-12
0.000165852
-3.45758e-12
0.000165852
-6.14319e-12
0.000165852
-3.40166e-12
0.000165852
-6.89197e-12
0.000165852
-3.03292e-12
0.000165852
-6.96536e-12
0.000165852
-2.40199e-12
0.000165852
-6.40109e-12
0.000165852
-1.76711e-12
0.000165852
-5.1875e-12
0.000165852
-9.34423e-13
0.000165852
-3.73772e-12
0.000165852
-3.80119e-13
0.000165852
-1.20711e-12
6.48272e-13
0.000228848
6.3294e-13
0.000228848
-1.11521e-12
0.000228848
-2.04506e-12
0.000228848
-1.90392e-12
0.000228848
-3.48816e-12
0.000228848
-2.11986e-12
0.000228848
-4.40871e-12
0.000228848
-1.98282e-12
0.000228848
-4.88876e-12
0.000228848
-1.68068e-12
0.000228848
-4.88678e-12
0.000228848
-1.24001e-12
0.000228848
-4.43028e-12
0.000228848
-8.6902e-13
0.000228848
-3.52312e-12
0.000228848
-3.46979e-13
0.000228848
-2.47398e-12
0.000228848
-8.21931e-14
0.000228848
-6.85826e-13
4.5758e-13
0.000298178
2.6969e-13
0.000298178
-6.45023e-13
0.000298178
-1.25961e-12
0.000298178
-7.7225e-13
0.000298178
-1.83997e-12
0.000298178
-6.94691e-13
0.000298178
-2.18679e-12
0.000298178
-4.70989e-13
0.000298178
-2.32842e-12
0.000298178
-2.35288e-13
0.000298178
-2.2415e-12
0.000298178
9.1328e-15
0.000298178
-1.94327e-12
0.000298178
1.23423e-13
0.000298178
-1.43572e-12
0.000298178
3.14947e-13
0.000298178
-9.17399e-13
0.000298178
2.98908e-13
0.000298178
-6.32214e-15
3.76056e-13
0.000373841
2.34791e-14
0.000373841
6.96373e-14
0.000373841
-5.29693e-14
0.000373841
6.74694e-13
0.000373841
3.67666e-13
0.000373841
1.15121e-12
0.000373841
7.16514e-13
0.000373841
1.51931e-12
0.000373841
9.66643e-13
0.000373841
1.70106e-12
0.000373841
1.12188e-12
0.000373841
1.7178e-12
0.000373841
1.17512e-12
0.000373841
1.52003e-12
0.000373841
1.14775e-12
0.000373841
1.27898e-12
0.000373841
9.69675e-13
0.000373841
8.7112e-13
0.000373841
8.55675e-13
4.38993e-13
0.000455836
0.000455836
0.000455836
0.000455836
0.000455836
0.000455836
0.000455836
0.000455836
0.000455836
0.000455836
0.000455836
0.000455836
0.000455836
0.000455836
0.000455836
0.000455836
0.000455836
0.000455836
0.000455836
)
;

boundaryField
{
    top
    {
        type            calculated;
        value           uniform 0;
    }
    bottom
    {
        type            calculated;
        value           uniform 0;
    }
    inlet
    {
        type            calculated;
        value           nonuniform List<scalar> 
20
(
1.91641e-05
5.11594e-05
7.68219e-05
9.61516e-05
0.000109148
0.000115812
0.000116144
0.000110142
9.78078e-05
7.91406e-05
5.41406e-05
2.28078e-05
-1.48578e-05
-5.88562e-05
-0.000109187
-0.000165852
-0.000228848
-0.000298178
-0.000373841
-0.000455836
)
;
    }
    outlet
    {
        type            calculated;
        value           nonuniform List<scalar> 
20
(
-1.91641e-05
-5.11594e-05
-7.68219e-05
-9.61516e-05
-0.000109148
-0.000115813
-0.000116144
-0.000110142
-9.78078e-05
-7.91406e-05
-5.41406e-05
-2.28078e-05
1.48578e-05
5.88562e-05
0.000109187
0.000165852
0.000228848
0.000298178
0.000373841
0.000455836
)
;
    }
    frontAndBack
    {
        type            empty;
        value           nonuniform 0();
    }
}


// ************************************************************************* //
