/*--------------------------------*- C++ -*----------------------------------*\
| =========                 |                                                 |
| \\      /  F ield         | OpenFOAM: The Open Source CFD Toolbox           |
|  \\    /   O peration     | Version:  4.1                                   |
|   \\  /    A nd           | Web:      www.OpenFOAM.org                      |
|    \\/     M anipulation  |                                                 |
\*---------------------------------------------------------------------------*/
FoamFile
{
    version     2.0;
    format      ascii;
    class       volVectorField;
    location    "4.7";
    object      U;
}
// * * * * * * * * * * * * * * * * * * * * * * * * * * * * * * * * * * * * * //

dimensions      [0 1 -1 0 0 0 0];

internalField   nonuniform List<vector> 
400
(
(-0.383281 9.24379e-11 0)
(-0.383281 -3.18719e-11 0)
(-0.383281 -1.71776e-10 0)
(-0.383281 -2.68238e-10 0)
(-0.383281 -3.99781e-10 0)
(-0.383281 -4.40758e-10 0)
(-0.383281 -5.5399e-10 0)
(-0.383281 -5.63563e-10 0)
(-0.383281 -6.34929e-10 0)
(-0.383281 -6.2829e-10 0)
(-0.383281 -6.5207e-10 0)
(-0.383281 -6.33662e-10 0)
(-0.383281 -6.08982e-10 0)
(-0.383281 -5.75932e-10 0)
(-0.383281 -5.19519e-10 0)
(-0.383281 -4.87104e-10 0)
(-0.383281 -3.70054e-10 0)
(-0.383281 -3.60538e-10 0)
(-0.383281 -2.31845e-10 0)
(-0.383281 -1.0818e-10 0)
(-1.02319 8.12796e-10 0)
(-1.02319 9.1615e-10 0)
(-1.02319 1.64989e-09 0)
(-1.02319 1.13463e-09 0)
(-1.02319 2.24057e-09 0)
(-1.02319 1.34642e-09 0)
(-1.02319 2.66188e-09 0)
(-1.02319 1.36369e-09 0)
(-1.02319 2.86909e-09 0)
(-1.02319 1.27487e-09 0)
(-1.02319 2.77679e-09 0)
(-1.02319 1.08454e-09 0)
(-1.02319 2.41758e-09 0)
(-1.02319 8.99851e-10 0)
(-1.02319 1.81906e-09 0)
(-1.02319 5.76323e-10 0)
(-1.02319 1.23311e-09 0)
(-1.02319 3.12722e-10 0)
(-1.02319 3.53687e-10 0)
(-1.02319 3.48544e-10 0)
(-1.53644 5.10945e-10 0)
(-1.53644 -5.4583e-10 0)
(-1.53644 -2.40594e-10 0)
(-1.53644 -2.25516e-09 0)
(-1.53644 -9.35168e-10 0)
(-1.53644 -3.26622e-09 0)
(-1.53644 -1.29768e-09 0)
(-1.53644 -3.94424e-09 0)
(-1.53644 -1.42279e-09 0)
(-1.53644 -4.19092e-09 0)
(-1.53644 -1.45195e-09 0)
(-1.53644 -4.01704e-09 0)
(-1.53644 -1.40383e-09 0)
(-1.53644 -3.38338e-09 0)
(-1.53644 -1.31462e-09 0)
(-1.53644 -2.59767e-09 0)
(-1.53644 -9.86821e-10 0)
(-1.53644 -1.589e-09 0)
(-1.53644 -7.50955e-10 0)
(-1.53644 3.4806e-11 0)
(-1.92303 8.11053e-10 0)
(-1.92303 -9.16724e-10 0)
(-1.92303 -2.5506e-11 0)
(-1.92303 -3.43456e-09 0)
(-1.92303 -7.82583e-10 0)
(-1.92303 -4.80139e-09 0)
(-1.92303 -1.09518e-09 0)
(-1.92303 -5.67579e-09 0)
(-1.92303 -1.15429e-09 0)
(-1.92303 -5.92479e-09 0)
(-1.92303 -1.17706e-09 0)
(-1.92303 -5.57235e-09 0)
(-1.92303 -1.19224e-09 0)
(-1.92303 -4.5796e-09 0)
(-1.92303 -1.21641e-09 0)
(-1.92303 -3.38082e-09 0)
(-1.92303 -9.8091e-10 0)
(-1.92303 -1.89383e-09 0)
(-1.92303 -7.72161e-10 0)
(-1.92303 4.27057e-10 0)
(-2.18297 9.97747e-10 0)
(-2.18297 -1.39052e-09 0)
(-2.18297 -4.63691e-10 0)
(-2.18297 -4.98403e-09 0)
(-2.18297 -1.78798e-09 0)
(-2.18297 -6.88168e-09 0)
(-2.18297 -2.40787e-09 0)
(-2.18297 -8.03969e-09 0)
(-2.18297 -2.60263e-09 0)
(-2.18297 -8.32965e-09 0)
(-2.18297 -2.63778e-09 0)
(-2.18297 -7.78223e-09 0)
(-2.18297 -2.56475e-09 0)
(-2.18297 -6.39227e-09 0)
(-2.18297 -2.39754e-09 0)
(-2.18297 -4.6764e-09 0)
(-2.18297 -1.88418e-09 0)
(-2.18297 -2.58214e-09 0)
(-2.18297 -1.18858e-09 0)
(-2.18297 5.6305e-10 0)
(-2.31625 1.28942e-09 0)
(-2.31625 -1.58128e-09 0)
(-2.31625 -5.87173e-10 0)
(-2.31625 -5.90562e-09 0)
(-2.31625 -2.32734e-09 0)
(-2.31625 -8.07669e-09 0)
(-2.31625 -3.1663e-09 0)
(-2.31625 -9.35808e-09 0)
(-2.31625 -3.47447e-09 0)
(-2.31625 -9.63937e-09 0)
(-2.31625 -3.54887e-09 0)
(-2.31625 -8.94946e-09 0)
(-2.31625 -3.45735e-09 0)
(-2.31625 -7.3041e-09 0)
(-2.31625 -3.18639e-09 0)
(-2.31625 -5.29583e-09 0)
(-2.31625 -2.52653e-09 0)
(-2.31625 -2.85369e-09 0)
(-2.31625 -1.44907e-09 0)
(-2.31625 8.01678e-10 0)
(-2.32287 1.58258e-09 0)
(-2.32287 -1.64381e-09 0)
(-2.32287 -6.77976e-10 0)
(-2.32288 -6.46607e-09 0)
(-2.32288 -2.82159e-09 0)
(-2.32288 -8.7563e-09 0)
(-2.32288 -3.88748e-09 0)
(-2.32288 -1.0057e-08 0)
(-2.32288 -4.3316e-09 0)
(-2.32288 -1.02846e-08 0)
(-2.32288 -4.46058e-09 0)
(-2.32288 -9.47816e-09 0)
(-2.32288 -4.35668e-09 0)
(-2.32288 -7.67752e-09 0)
(-2.32288 -3.96646e-09 0)
(-2.32288 -5.51645e-09 0)
(-2.32288 -3.16614e-09 0)
(-2.32288 -2.88788e-09 0)
(-2.32288 -1.67402e-09 0)
(-2.32288 1.04761e-09 0)
(-2.20284 1.83031e-09 0)
(-2.20284 -1.65355e-09 0)
(-2.20284 -8.12158e-10 0)
(-2.20284 -6.74461e-09 0)
(-2.20284 -3.3515e-09 0)
(-2.20284 -9.02454e-09 0)
(-2.20284 -4.65451e-09 0)
(-2.20284 -1.0257e-08 0)
(-2.20284 -5.25281e-09 0)
(-2.20284 -1.03968e-08 0)
(-2.20284 -5.44106e-09 0)
(-2.20284 -9.4947e-09 0)
(-2.20284 -5.31386e-09 0)
(-2.20284 -7.61934e-09 0)
(-2.20284 -4.77158e-09 0)
(-2.20284 -5.41509e-09 0)
(-2.20284 -3.8167e-09 0)
(-2.20284 -2.74261e-09 0)
(-2.20284 -1.87062e-09 0)
(-2.20284 1.27333e-09 0)
(-1.95616 2.00704e-09 0)
(-1.95616 -1.66232e-09 0)
(-1.95616 -1.00744e-09 0)
(-1.95616 -6.81109e-09 0)
(-1.95616 -3.90769e-09 0)
(-1.95616 -8.98448e-09 0)
(-1.95616 -5.43828e-09 0)
(-1.95616 -1.00844e-08 0)
(-1.95616 -6.19289e-09 0)
(-1.95616 -1.01103e-08 0)
(-1.95616 -6.43536e-09 0)
(-1.95616 -9.12931e-09 0)
(-1.95616 -6.26978e-09 0)
(-1.95616 -7.2469e-09 0)
(-1.95616 -5.55127e-09 0)
(-1.95616 -5.07571e-09 0)
(-1.95616 -4.43421e-09 0)
(-1.95616 -2.47034e-09 0)
(-1.95616 -2.02673e-09 0)
(-1.95616 1.46027e-09 0)
(-1.58281 2.10133e-09 0)
(-1.58281 -1.68824e-09 0)
(-1.58281 -1.26811e-09 0)
(-1.58281 -6.69555e-09 0)
(-1.58281 -4.46846e-09 0)
(-1.58281 -8.69077e-09 0)
(-1.58281 -6.19982e-09 0)
(-1.58281 -9.61421e-09 0)
(-1.58281 -7.09832e-09 0)
(-1.58281 -9.5159e-09 0)
(-1.58281 -7.38231e-09 0)
(-1.58281 -8.47765e-09 0)
(-1.58281 -7.16096e-09 0)
(-1.58281 -6.64787e-09 0)
(-1.58281 -6.25375e-09 0)
(-1.58281 -4.56678e-09 0)
(-1.58281 -4.9724e-09 0)
(-1.58281 -2.12533e-09 0)
(-1.58281 -2.13134e-09 0)
(-1.58281 1.58753e-09 0)
(-1.08281 2.11074e-09 0)
(-1.08281 -1.73138e-09 0)
(-1.08281 -1.57922e-09 0)
(-1.08281 -6.42062e-09 0)
(-1.08281 -4.98839e-09 0)
(-1.08281 -8.19074e-09 0)
(-1.08281 -6.87422e-09 0)
(-1.08281 -8.91477e-09 0)
(-1.08281 -7.88871e-09 0)
(-1.08281 -8.69584e-09 0)
(-1.08281 -8.19549e-09 0)
(-1.08281 -7.62721e-09 0)
(-1.08281 -7.90322e-09 0)
(-1.08281 -5.9024e-09 0)
(-1.08281 -6.81294e-09 0)
(-1.08281 -3.95371e-09 0)
(-1.08281 -5.37567e-09 0)
(-1.08281 -1.75546e-09 0)
(-1.08281 -2.17334e-09 0)
(-1.08281 1.64047e-09 0)
(-0.456156 2.03827e-09 0)
(-0.456156 -1.78031e-09 0)
(-0.456156 -1.91629e-09 0)
(-0.456156 -6.00771e-09 0)
(-0.456156 -5.41726e-09 0)
(-0.456156 -7.52895e-09 0)
(-0.456156 -7.39526e-09 0)
(-0.456156 -8.05117e-09 0)
(-0.456156 -8.48472e-09 0)
(-0.456156 -7.72916e-09 0)
(-0.456156 -8.79174e-09 0)
(-0.456156 -6.66244e-09 0)
(-0.456156 -8.41854e-09 0)
(-0.456156 -5.08653e-09 0)
(-0.456156 -7.16981e-09 0)
(-0.456156 -3.30112e-09 0)
(-0.456156 -5.59657e-09 0)
(-0.456156 -1.40182e-09 0)
(-0.456156 -2.14766e-09 0)
(-0.456156 1.61051e-09 0)
(0.297156 1.89048e-09 0)
(0.297156 -1.81656e-09 0)
(0.297156 -2.24504e-09 0)
(0.297156 -5.481e-09 0)
(0.297156 -5.70289e-09 0)
(0.297156 -6.75019e-09 0)
(0.297156 -7.69927e-09 0)
(0.297156 -7.08711e-09 0)
(0.297156 -8.81331e-09 0)
(0.297156 -6.69141e-09 0)
(0.297156 -9.09736e-09 0)
(0.297156 -5.66239e-09 0)
(0.297156 -8.64158e-09 0)
(0.297156 -4.26848e-09 0)
(0.297156 -7.27675e-09 0)
(0.297156 -2.66815e-09 0)
(0.297156 -5.60177e-09 0)
(0.297156 -1.0946e-09 0)
(0.297156 -2.0555e-09 0)
(0.297156 1.49647e-09 0)
(1.17712 1.68058e-09 0)
(1.17712 -1.81396e-09 0)
(1.17712 -2.51371e-09 0)
(1.17712 -4.85645e-09 0)
(1.17712 -5.78354e-09 0)
(1.17712 -5.88335e-09 0)
(1.17712 -7.71639e-09 0)
(1.17712 -6.0647e-09 0)
(1.17712 -8.80052e-09 0)
(1.17712 -5.63212e-09 0)
(1.17712 -9.04356e-09 0)
(1.17712 -4.67806e-09 0)
(1.17712 -8.51711e-09 0)
(1.17712 -3.48947e-09 0)
(1.17712 -7.09606e-09 0)
(1.17712 -2.09185e-09 0)
(1.17712 -5.37223e-09 0)
(1.17712 -8.43997e-10 0)
(1.17712 -1.90054e-09 0)
(1.17712 1.30663e-09 0)
(2.18375 1.4108e-09 0)
(2.18375 -1.75548e-09 0)
(2.18375 -2.67009e-09 0)
(2.18375 -4.16366e-09 0)
(2.18375 -5.60202e-09 0)
(2.18375 -4.96953e-09 0)
(2.18375 -7.37676e-09 0)
(2.18375 -5.03565e-09 0)
(2.18375 -8.36722e-09 0)
(2.18375 -4.60639e-09 0)
(2.18375 -8.54735e-09 0)
(2.18375 -3.76145e-09 0)
(2.18375 -7.97572e-09 0)
(2.18375 -2.7878e-09 0)
(2.18375 -6.57795e-09 0)
(2.18375 -1.60263e-09 0)
(2.18375 -4.8886e-09 0)
(2.18375 -6.50607e-10 0)
(2.18375 -1.67645e-09 0)
(2.18375 1.06128e-09 0)
(3.31703 1.10346e-09 0)
(3.31703 -1.60613e-09 0)
(3.31703 -2.63008e-09 0)
(3.31703 -3.37969e-09 0)
(3.31703 -5.07459e-09 0)
(3.31703 -3.97224e-09 0)
(3.31703 -6.59147e-09 0)
(3.31703 -3.95478e-09 0)
(3.31703 -7.42518e-09 0)
(3.31703 -3.56278e-09 0)
(3.31703 -7.53531e-09 0)
(3.31703 -2.85774e-09 0)
(3.31703 -6.9645e-09 0)
(3.31703 -2.10787e-09 0)
(3.31703 -5.68433e-09 0)
(3.31703 -1.15483e-09 0)
(3.31703 -4.14019e-09 0)
(3.31703 -4.70376e-10 0)
(3.31703 -1.37158e-09 0)
(3.31703 7.96859e-10 0)
(4.57697 8.90952e-10 0)
(4.57697 -1.16951e-09 0)
(4.57697 -2.10164e-09 0)
(4.57697 -2.15899e-09 0)
(4.57697 -3.80519e-09 0)
(4.57697 -2.42037e-09 0)
(4.57697 -4.88437e-09 0)
(4.57697 -2.27615e-09 0)
(4.57697 -5.46719e-09 0)
(4.57697 -1.93366e-09 0)
(4.57697 -5.50556e-09 0)
(4.57697 -1.42939e-09 0)
(4.57697 -5.04496e-09 0)
(4.57697 -9.89489e-10 0)
(4.57697 -4.06986e-09 0)
(4.57697 -3.99136e-10 0)
(4.57697 -2.917e-09 0)
(4.57697 -8.791e-11 0)
(4.57697 -8.70115e-10 0)
(4.57697 5.97018e-10 0)
(5.96356 1.47996e-10 0)
(5.96356 -1.33431e-09 0)
(5.96356 -2.23976e-09 0)
(5.96356 -2.18493e-09 0)
(5.96356 -3.55523e-09 0)
(5.96356 -2.54478e-09 0)
(5.96356 -4.38616e-09 0)
(5.96356 -2.53274e-09 0)
(5.96356 -4.76891e-09 0)
(5.96356 -2.29755e-09 0)
(5.96356 -4.68695e-09 0)
(5.96356 -1.86682e-09 0)
(5.96356 -4.18778e-09 0)
(5.96356 -1.42247e-09 0)
(5.96356 -3.29531e-09 0)
(5.96356 -8.00308e-10 0)
(5.96356 -2.26088e-09 0)
(5.96356 -3.44615e-10 0)
(5.96356 -6.51318e-10 0)
(5.96356 2.96824e-10 0)
(7.47681 4.90358e-10 0)
(7.47681 2.17689e-10 0)
(7.47681 6.67739e-12 0)
(7.47681 9.87795e-10 0)
(7.47681 2.67873e-10 0)
(7.47681 1.62294e-09 0)
(7.47681 4.64665e-10 0)
(7.47681 2.12756e-09 0)
(7.47681 5.93785e-10 0)
(7.47681 2.38016e-09 0)
(7.47681 6.70902e-10 0)
(7.47681 2.40403e-09 0)
(7.47681 7.00224e-10 0)
(7.47681 2.11037e-09 0)
(7.47681 7.31353e-10 0)
(7.47681 1.754e-09 0)
(7.47681 6.12453e-10 0)
(7.47681 1.13827e-09 0)
(7.47681 7.07073e-10 0)
(7.47681 4.73318e-10 0)
(9.11672 -2.97062e-10 0)
(9.11672 -4.68419e-10 0)
(9.11672 -6.69971e-10 0)
(9.11672 -6.80516e-10 0)
(9.11672 -8.42285e-10 0)
(9.11672 -8.06855e-10 0)
(9.11672 -9.17606e-10 0)
(9.11672 -8.41551e-10 0)
(9.11672 -9.05697e-10 0)
(9.11672 -8.0167e-10 0)
(9.11672 -8.12632e-10 0)
(9.11672 -6.93705e-10 0)
(9.11672 -6.5335e-10 0)
(9.11672 -5.46012e-10 0)
(9.11672 -4.51353e-10 0)
(9.11672 -3.44831e-10 0)
(9.11672 -2.36466e-10 0)
(9.11672 -1.44271e-10 0)
(9.11672 2.02663e-11 0)
(9.11672 7.779e-11 0)
)
;

boundaryField
{
    top
    {
        type            fixedValue;
        value           uniform (10 0 0);
    }
    bottom
    {
        type            fixedValue;
        value           uniform (0 0 0);
    }
    inlet
    {
        type            zeroGradient;
    }
    outlet
    {
        type            zeroGradient;
    }
    frontAndBack
    {
        type            empty;
    }
}


// ************************************************************************* //
