/*--------------------------------*- C++ -*----------------------------------*\
| =========                 |                                                 |
| \\      /  F ield         | OpenFOAM: The Open Source CFD Toolbox           |
|  \\    /   O peration     | Version:  4.1                                   |
|   \\  /    A nd           | Web:      www.OpenFOAM.org                      |
|    \\/     M anipulation  |                                                 |
\*---------------------------------------------------------------------------*/
FoamFile
{
    version     2.0;
    format      ascii;
    class       surfaceScalarField;
    location    "2.3";
    object      phi;
}
// * * * * * * * * * * * * * * * * * * * * * * * * * * * * * * * * * * * * * //

dimensions      [0 3 -1 0 0 0 0];

internalField   nonuniform List<scalar> 
760
(
3.1664e-05
-2.05134e-13
3.1664e-05
1.82376e-12
3.1664e-05
3.30648e-13
3.1664e-05
-2.14359e-12
3.1664e-05
1.55572e-12
3.1664e-05
-3.39e-12
3.1664e-05
2.65281e-12
3.1664e-05
-5.22611e-12
3.1664e-05
2.37205e-12
3.1664e-05
-6.3847e-12
3.1664e-05
8.86541e-13
3.1664e-05
-7.19717e-12
3.1664e-05
-1.60158e-12
3.1664e-05
-7.81437e-12
3.1664e-05
-4.37675e-12
3.1664e-05
-7.7982e-12
3.1664e-05
-6.31997e-12
3.1664e-05
-5.86213e-12
3.1664e-05
-5.02601e-12
-2.37294e-12
8.86592e-05
-1.55896e-12
8.86592e-05
4.69078e-12
8.86592e-05
-4.59675e-13
8.86592e-05
-2.03569e-12
8.86592e-05
2.09135e-12
8.86592e-05
-3.67599e-12
8.86592e-05
4.97653e-12
8.86592e-05
-5.88227e-12
8.86592e-05
5.72165e-12
8.86592e-05
-6.1272e-12
8.86592e-05
4.96977e-12
8.86592e-05
-5.06163e-12
8.86592e-05
3.15935e-12
8.86592e-05
-3.42099e-12
8.86592e-05
1.04082e-12
8.86592e-05
-1.57609e-12
8.86592e-05
-9.99877e-13
8.86592e-05
3.12097e-13
8.86592e-05
-3.78987e-12
-4.11096e-12
0.000139322
-3.32066e-12
0.000139322
7.94102e-12
0.000139322
-1.8819e-12
0.000139322
-5.78148e-13
0.000139322
1.48805e-12
0.000139322
-2.25943e-12
0.000139322
6.01263e-12
0.000139322
-4.2519e-12
0.000139322
7.88399e-12
0.000139322
-3.13101e-12
0.000139322
8.28178e-12
0.000139322
1.82686e-13
0.000139322
7.86791e-12
0.000139322
4.25369e-12
0.000139322
7.19619e-12
0.000139322
7.61565e-12
0.000139322
5.48609e-12
0.000139322
8.19129e-12
0.000139322
-3.05571e-12
-7.66724e-12
0.000183651
-4.76393e-12
0.000183651
1.09824e-11
0.000183651
-3.44986e-12
0.000183651
1.43475e-12
0.000183651
1.86553e-13
0.000183651
-1.49307e-13
0.000183651
5.91236e-12
0.000183651
-1.74811e-12
0.000183651
8.6602e-12
0.000183651
5.7444e-13
0.000183651
1.00663e-11
0.000183651
5.72781e-12
0.000183651
1.09697e-11
0.000183651
1.1657e-11
0.000183651
1.1719e-11
0.000183651
1.59457e-11
0.000183651
1.04639e-11
0.000183651
1.49324e-11
0.000183651
-3.43893e-12
-1.17458e-11
0.000221648
-5.85199e-12
0.000221648
1.39206e-11
0.000221648
-5.07182e-12
0.000221648
3.80957e-12
0.000221648
-1.6706e-12
0.000221648
2.35817e-12
0.000221648
4.83163e-12
0.000221648
1.18723e-12
0.000221648
8.14079e-12
0.000221648
4.41063e-12
0.000221648
1.02638e-11
0.000221648
1.08374e-11
0.000221648
1.21714e-11
0.000221648
1.78907e-11
0.000221648
1.40528e-11
0.000221648
2.24218e-11
0.000221648
1.32143e-11
0.000221648
1.9659e-11
0.000221648
-5.21034e-12
-1.6358e-11
0.000253312
-6.52394e-12
0.000253312
1.66921e-11
0.000253312
-6.67378e-12
0.000253312
6.44035e-12
0.000253312
-3.90423e-12
0.000253312
5.17546e-12
0.000253312
2.98832e-12
0.000253312
4.48725e-12
0.000253312
6.63126e-12
0.000253312
8.38939e-12
0.000253312
9.30005e-12
0.000253312
1.56522e-11
0.000253312
1.20482e-11
0.000253312
2.32827e-11
0.000253312
1.49326e-11
0.000253312
2.75792e-11
0.000253312
1.45774e-11
0.000253312
2.29897e-11
0.000253312
-7.45711e-12
-2.07588e-11
0.000278643
-6.77531e-12
0.000278643
1.92414e-11
0.000278643
-8.19104e-12
0.000278643
9.17114e-12
0.000278643
-6.31937e-12
0.000278643
8.14454e-12
0.000278643
6.4027e-13
0.000278643
7.97341e-12
0.000278643
4.45476e-12
0.000278643
1.23777e-11
0.000278643
7.56131e-12
0.000278643
2.01328e-11
0.000278643
1.10517e-11
0.000278643
2.79354e-11
0.000278643
1.48684e-11
0.000278643
3.16825e-11
0.000278643
1.50875e-11
0.000278643
2.52748e-11
0.000278643
-9.61233e-12
-2.44646e-11
0.000297642
-6.64984e-12
0.000297642
2.14798e-11
0.000297642
-9.57312e-12
0.000297642
1.18335e-11
0.000297642
-8.73604e-12
0.000297642
1.10954e-11
0.000297642
-1.96861e-12
0.000297642
1.14466e-11
0.000297642
1.90123e-12
0.000297642
1.6207e-11
0.000297642
5.37049e-12
0.000297642
2.41841e-11
0.000297642
9.53191e-12
0.000297642
3.18679e-11
0.000297642
1.42303e-11
0.000297642
3.48871e-11
0.000297642
1.51148e-11
0.000297642
2.6761e-11
0.000297642
-1.12936e-11
-2.71311e-11
0.000310307
-6.23242e-12
0.000310307
2.32937e-11
0.000310307
-1.07777e-11
0.000310307
1.42568e-11
0.000310307
-1.0993e-11
0.000310307
1.38522e-11
0.000310307
-4.61678e-12
0.000310307
1.46988e-11
0.000310307
-7.82054e-13
0.000310307
1.9686e-11
0.000310307
2.98108e-12
0.000310307
2.76667e-11
0.000310307
7.73571e-12
0.000310307
3.50254e-11
0.000310307
1.325e-11
0.000310307
3.72447e-11
0.000310307
1.48673e-11
0.000310307
2.75928e-11
0.000310307
-1.22911e-11
-2.85571e-11
0.00031664
-5.63618e-12
0.00031664
2.45513e-11
0.00031664
-1.1762e-11
0.00031664
1.62776e-11
0.00031664
-1.29455e-11
0.00031664
1.62413e-11
0.00031664
-7.10543e-12
0.00031664
1.75279e-11
0.00031664
-3.38434e-12
0.00031664
2.26223e-11
0.00031664
5.92842e-13
0.00031664
3.04257e-11
0.00031664
5.83657e-12
0.00031664
3.7315e-11
0.00031664
1.20643e-11
0.00031664
3.87449e-11
0.00031664
1.44401e-11
0.00031664
2.78481e-11
0.00031664
-1.25251e-11
-2.86703e-11
0.00031664
-4.98426e-12
0.00031664
2.51183e-11
0.00031664
-1.2476e-11
0.00031664
1.7749e-11
0.00031664
-1.44628e-11
0.00031664
1.80987e-11
0.00031664
-9.25729e-12
0.00031664
1.97495e-11
0.00031664
-5.72432e-12
0.00031664
2.48385e-11
0.00031664
-1.63131e-12
0.00031664
3.23138e-11
0.00031664
3.96415e-12
0.00031664
3.86374e-11
0.00031664
1.07575e-11
0.00031664
3.93532e-11
0.00031664
1.38646e-11
0.00031664
2.75723e-11
0.00031664
-1.20029e-11
-2.75048e-11
0.000310307
-4.39069e-12
0.000310307
2.48766e-11
0.000310307
-1.28605e-11
0.000310307
1.85493e-11
0.000310307
-1.54299e-11
0.000310307
1.92786e-11
0.000310307
-1.09195e-11
0.000310307
2.12055e-11
0.000310307
-7.64892e-12
0.000310307
2.61826e-11
0.000310307
-3.55819e-12
0.000310307
3.32024e-11
0.000310307
2.21855e-12
0.000310307
3.89001e-11
0.000310307
9.38259e-12
0.000310307
3.90247e-11
0.000310307
1.31346e-11
0.000310307
2.67873e-11
0.000310307
-1.08007e-11
-2.51897e-11
0.000297642
-3.94246e-12
0.000297642
2.37454e-11
0.000297642
-1.28492e-11
0.000297642
1.85898e-11
0.000297642
-1.57525e-11
0.000297642
1.96609e-11
0.000297642
-1.19692e-11
0.000297642
2.17696e-11
0.000297642
-9.03702e-12
0.000297642
2.65307e-11
0.000297642
-5.08556e-12
0.000297642
3.29828e-11
0.000297642
6.70936e-13
0.000297642
3.80156e-11
0.000297642
7.96278e-12
0.000297642
3.76982e-11
0.000297642
1.22085e-11
0.000297642
2.54788e-11
0.000297642
-9.0661e-12
-2.19484e-11
0.000278643
-3.68268e-12
0.000278643
2.17025e-11
0.000278643
-1.23759e-11
0.000278643
1.78202e-11
0.000278643
-1.53647e-11
0.000278643
1.91585e-11
0.000278643
-1.23213e-11
0.000278643
2.13485e-11
0.000278643
-9.80691e-12
0.000278643
2.5784e-11
0.000278643
-6.15091e-12
0.000278643
3.15561e-11
0.000278643
-6.49386e-13
0.000278643
3.5883e-11
0.000278643
6.47323e-12
0.000278643
3.52673e-11
0.000278643
1.09878e-11
0.000278643
2.35579e-11
0.000278643
-7.0458e-12
-1.8113e-11
0.000253312
-3.59763e-12
0.000253312
1.87993e-11
0.000253312
-1.13861e-11
0.000253312
1.62333e-11
0.000253312
-1.42391e-11
0.000253312
1.77242e-11
0.000253312
-1.19375e-11
0.000253312
1.98834e-11
0.000253312
-9.92543e-12
0.000253312
2.38637e-11
0.000253312
-6.74306e-12
0.000253312
2.88216e-11
0.000253312
-1.77225e-12
0.000253312
3.23688e-11
0.000253312
4.81665e-12
0.000253312
3.15516e-11
0.000253312
9.28791e-12
0.000253312
2.08223e-11
0.000253312
-5.11911e-12
-1.41416e-11
0.000221648
-3.60318e-12
0.000221648
1.51696e-11
0.000221648
-9.84735e-12
0.000221648
1.38643e-11
0.000221648
-1.23903e-11
0.000221648
1.53552e-11
0.000221648
-1.08252e-11
0.000221648
1.73517e-11
0.000221648
-9.40507e-12
0.000221648
2.07113e-11
0.000221648
-6.89777e-12
0.000221648
2.46773e-11
0.000221648
-2.78235e-12
0.000221648
2.73079e-11
0.000221648
2.82657e-12
0.000221648
2.62963e-11
0.000221648
6.84046e-12
0.000221648
1.69497e-11
0.000221648
-3.79784e-12
-1.06136e-11
0.000183651
-3.57941e-12
0.000183651
1.10483e-11
0.000183651
-7.80386e-12
0.000183651
1.08278e-11
0.000183651
-9.95056e-12
0.000183651
1.21282e-11
0.000183651
-9.13845e-12
0.000183651
1.37822e-11
0.000183651
-8.44251e-12
0.000183651
1.62697e-11
0.000183651
-6.88809e-12
0.000183651
1.89449e-11
0.000183651
-4.07169e-12
0.000183651
2.03563e-11
0.000183651
-3.78193e-14
0.000183651
1.89595e-11
0.000183651
2.98087e-12
0.000183651
1.12794e-11
0.000183651
-3.91309e-12
-8.2801e-12
0.000139322
-3.15276e-12
0.000139322
6.62591e-12
0.000139322
-5.16828e-12
0.000139322
7.15114e-12
0.000139322
-6.81031e-12
0.000139322
8.09502e-12
0.000139322
-6.67683e-12
0.000139322
9.29024e-12
0.000139322
-6.6802e-12
0.000139322
1.07711e-11
0.000139322
-6.14741e-12
0.000139322
1.20549e-11
0.000139322
-4.82835e-12
0.000139322
1.21974e-11
0.000139322
-2.75104e-12
0.000139322
1.04123e-11
0.000139322
-1.20565e-12
0.000139322
4.61151e-12
0.000139322
-5.01353e-12
-7.14002e-12
8.86592e-05
-2.1577e-12
8.86592e-05
2.29356e-12
8.86592e-05
-2.12957e-12
8.86592e-05
3.10385e-12
8.86592e-05
-3.34138e-12
8.86592e-05
3.52261e-12
8.86592e-05
-3.87006e-12
8.86592e-05
4.07471e-12
8.86592e-05
-4.65171e-12
8.86592e-05
4.29648e-12
8.86592e-05
-5.35029e-12
8.86592e-05
3.90491e-12
8.86592e-05
-5.91058e-12
8.86592e-05
2.47543e-12
8.86592e-05
-6.33237e-12
8.86592e-05
2.29886e-14
8.86592e-05
-6.7853e-12
8.86592e-05
-3.83798e-12
8.86592e-05
-8.15576e-12
-7.77954e-12
3.1664e-05
3.1664e-05
3.1664e-05
3.1664e-05
3.1664e-05
3.1664e-05
3.1664e-05
3.1664e-05
3.1664e-05
3.1664e-05
3.1664e-05
3.1664e-05
3.1664e-05
3.1664e-05
3.1664e-05
3.1664e-05
3.1664e-05
3.1664e-05
3.1664e-05
)
;

boundaryField
{
    top
    {
        type            calculated;
        value           uniform 0;
    }
    bottom
    {
        type            calculated;
        value           uniform 0;
    }
    inlet
    {
        type            calculated;
        value           nonuniform List<scalar> 
20
(
-3.1664e-05
-8.86592e-05
-0.000139322
-0.000183651
-0.000221648
-0.000253312
-0.000278643
-0.000297642
-0.000310307
-0.00031664
-0.00031664
-0.000310307
-0.000297642
-0.000278643
-0.000253312
-0.000221648
-0.000183651
-0.000139322
-8.86592e-05
-3.1664e-05
)
;
    }
    outlet
    {
        type            calculated;
        value           nonuniform List<scalar> 
20
(
3.1664e-05
8.86592e-05
0.000139322
0.000183651
0.000221648
0.000253312
0.000278643
0.000297642
0.000310307
0.00031664
0.00031664
0.000310307
0.000297642
0.000278643
0.000253312
0.000221648
0.000183651
0.000139322
8.86592e-05
3.1664e-05
)
;
    }
    frontAndBack
    {
        type            empty;
        value           nonuniform 0();
    }
}


// ************************************************************************* //
