/*--------------------------------*- C++ -*----------------------------------*\
| =========                 |                                                 |
| \\      /  F ield         | OpenFOAM: The Open Source CFD Toolbox           |
|  \\    /   O peration     | Version:  4.1                                   |
|   \\  /    A nd           | Web:      www.OpenFOAM.org                      |
|    \\/     M anipulation  |                                                 |
\*---------------------------------------------------------------------------*/
FoamFile
{
    version     2.0;
    format      ascii;
    class       volVectorField;
    location    "2.3";
    object      U;
}
// * * * * * * * * * * * * * * * * * * * * * * * * * * * * * * * * * * * * * //

dimensions      [0 1 -1 0 0 0 0];

internalField   nonuniform List<vector> 
400
(
(0.63328 -2.31577e-10 0)
(0.63328 3.40632e-10 0)
(0.63328 -8.1676e-11 0)
(0.63328 -1.41067e-10 0)
(0.63328 3.3567e-10 0)
(0.63328 -1.86936e-10 0)
(0.63328 7.18716e-10 0)
(0.63328 -2.40592e-10 0)
(0.63328 1.06074e-09 0)
(0.63328 2.6722e-11 0)
(0.63328 1.3672e-09 0)
(0.63328 5.6855e-10 0)
(0.63328 1.70657e-09 0)
(0.63328 1.31031e-09 0)
(0.63328 2.11248e-09 0)
(0.63328 2.09737e-09 0)
(0.63328 2.36442e-09 0)
(0.63328 2.45392e-09 0)
(0.63328 1.92976e-09 0)
(0.63328 9.49192e-10 0)
(1.77318 -1.02527e-09 0)
(1.77318 3.9771e-09 0)
(1.77318 7.00866e-11 0)
(1.77318 -2.7979e-09 0)
(1.77318 2.18307e-09 0)
(1.77318 -4.7688e-09 0)
(1.77318 4.40545e-09 0)
(1.77318 -7.52517e-09 0)
(1.77318 4.33528e-09 0)
(1.77318 -8.88087e-09 0)
(1.77318 2.27652e-09 0)
(1.77318 -9.48692e-09 0)
(1.77318 -1.25392e-09 0)
(1.77318 -9.81483e-09 0)
(1.77318 -5.23153e-09 0)
(1.77318 -9.55931e-09 0)
(1.77318 -8.30554e-09 0)
(1.77318 -7.35426e-09 0)
(1.77318 -8.13311e-09 0)
(1.77318 -5.16204e-09 0)
(2.78643 -2.48087e-09 0)
(2.78643 5.9243e-09 0)
(2.78643 -1.30883e-09 0)
(2.78643 -7.68198e-10 0)
(2.78643 1.63333e-09 0)
(2.78643 -2.04626e-09 0)
(2.78643 5.30304e-09 0)
(2.78643 -3.57121e-09 0)
(2.78643 7.04966e-09 0)
(2.78643 -2.49667e-09 0)
(2.78643 7.6208e-09 0)
(2.78643 4.65372e-10 0)
(2.78643 7.67486e-09 0)
(2.78643 4.22103e-09 0)
(2.78643 7.61888e-09 0)
(2.78643 7.57584e-09 0)
(2.78643 6.6718e-09 0)
(2.78643 8.53369e-09 0)
(2.78643 3.12929e-10 0)
(2.78643 -3.56757e-09 0)
(3.67302 -4.33732e-09 0)
(3.67302 9.5521e-09 0)
(3.67302 -2.72952e-09 0)
(3.67302 4.02975e-10 0)
(3.67302 7.86291e-10 0)
(3.67302 -1.32606e-09 0)
(3.67302 5.91517e-09 0)
(3.67302 -3.24853e-09 0)
(3.67302 8.10805e-09 0)
(3.67302 -1.67808e-09 0)
(3.67302 8.78531e-09 0)
(3.67302 2.34583e-09 0)
(3.67302 8.72644e-09 0)
(3.67302 7.06465e-09 0)
(3.67302 8.42121e-09 0)
(3.67302 1.06069e-08 0)
(3.67302 6.69267e-09 0)
(3.67302 1.02635e-08 0)
(3.67302 -4.37171e-09 0)
(3.67302 -1.05703e-08 0)
(4.43296 -5.49697e-09 0)
(4.43296 1.23531e-08 0)
(4.43296 -4.34348e-09 0)
(4.43296 2.68782e-09 0)
(4.43296 -8.2744e-10 0)
(4.43296 1.18232e-09 0)
(4.43296 5.2512e-09 0)
(4.43296 -1.96372e-10 0)
(4.43296 8.24069e-09 0)
(4.43296 2.55085e-09 0)
(4.43296 9.98232e-09 0)
(4.43296 8.28528e-09 0)
(4.43296 1.13632e-08 0)
(4.43296 1.46926e-08 0)
(4.43296 1.26551e-08 0)
(4.43296 1.90109e-08 0)
(4.43296 1.15993e-08 0)
(4.43296 1.70417e-08 0)
(4.43296 -4.57997e-09 0)
(4.43296 -1.43167e-08 0)
(5.06624 -6.31748e-09 0)
(5.06624 1.52166e-08 0)
(5.06624 -5.94928e-09 0)
(5.06624 5.16803e-09 0)
(5.06624 -2.86401e-09 0)
(5.06624 3.81826e-09 0)
(5.06624 3.80067e-09 0)
(5.06624 2.87997e-09 0)
(5.06624 7.24574e-09 0)
(5.06624 6.40099e-09 0)
(5.06624 9.60727e-09 0)
(5.06624 1.31754e-08 0)
(5.06624 1.18901e-08 0)
(5.06624 2.04224e-08 0)
(5.06624 1.42195e-08 0)
(5.06624 2.47391e-08 0)
(5.06624 1.35839e-08 0)
(5.06624 2.10189e-08 0)
(5.06624 -6.70354e-09 0)
(5.06624 -1.8964e-08 0)
(5.57286 -6.70211e-09 0)
(5.57286 1.78915e-08 0)
(5.57286 -7.49026e-09 0)
(5.57286 7.83167e-09 0)
(5.57286 -5.17566e-09 0)
(5.57286 6.69461e-09 0)
(5.57286 1.71941e-09 0)
(5.57286 6.2514e-09 0)
(5.57286 5.42249e-09 0)
(5.57286 1.0357e-08 0)
(5.57286 8.2755e-09 0)
(5.57286 1.77949e-08 0)
(5.57286 1.13464e-08 0)
(5.57286 2.54231e-08 0)
(5.57286 1.46394e-08 0)
(5.57286 2.9361e-08 0)
(5.57286 1.45266e-08 0)
(5.57286 2.38624e-08 0)
(5.57286 -8.91176e-09 0)
(5.57286 -2.30642e-08 0)
(5.95283 -6.68439e-09 0)
(5.95283 2.03135e-08 0)
(5.95283 -8.91238e-09 0)
(5.95283 1.05121e-08 0)
(5.95283 -7.57708e-09 0)
(5.95283 9.63639e-09 0)
(5.95283 -7.42547e-10 0)
(5.95283 9.70924e-09 0)
(5.95283 3.07434e-09 0)
(5.95283 1.42405e-08 0)
(5.95283 6.32792e-09 0)
(5.95283 2.2037e-08 0)
(5.95283 1.01024e-08 0)
(5.95283 2.97001e-08 0)
(5.95283 1.42978e-08 0)
(5.95283 3.30132e-08 0)
(5.95283 1.48009e-08 0)
(5.95283 2.57846e-08 0)
(5.95283 -1.08182e-08 0)
(5.95283 -2.6272e-08 0)
(6.20614 -6.3393e-09 0)
(6.20614 2.23734e-08 0)
(6.20614 -1.01729e-08 0)
(6.20614 1.30407e-08 0)
(6.20614 -9.89853e-09 0)
(6.20614 1.24716e-08 0)
(6.20614 -3.35523e-09 0)
(6.20614 1.30509e-08 0)
(6.20614 4.71303e-10 0)
(6.20614 1.78723e-08 0)
(6.20614 4.05043e-09 0)
(6.20614 2.57837e-08 0)
(6.20614 8.45211e-09 0)
(6.20614 3.32323e-08 0)
(6.20614 1.3491e-08 0)
(6.20614 3.57928e-08 0)
(6.20614 1.46914e-08 0)
(6.20614 2.69703e-08 0)
(6.20614 -1.21374e-08 0)
(6.20614 -2.83183e-08 0)
(6.3328 -5.77576e-09 0)
(6.3328 2.39421e-08 0)
(6.3328 -1.12334e-08 0)
(6.3328 1.525e-08 0)
(6.3328 -1.19868e-08 0)
(6.3328 1.50262e-08 0)
(6.3328 -5.90684e-09 0)
(6.3328 1.60724e-08 0)
(6.3328 -2.15627e-09 0)
(6.3328 2.10621e-08 0)
(6.3328 1.67326e-09 0)
(6.3328 2.88906e-08 0)
(6.3328 6.61128e-09 0)
(6.3328 3.59493e-08 0)
(6.3328 1.24103e-08 0)
(6.3328 3.77243e-08 0)
(6.3328 1.43564e-08 0)
(6.3328 2.75316e-08 0)
(6.3328 -1.27289e-08 0)
(6.3328 -2.90694e-08 0)
(6.3328 -5.11851e-09 0)
(6.3328 2.48807e-08 0)
(6.3328 -1.20524e-08 0)
(6.3328 1.69846e-08 0)
(6.3328 -1.37046e-08 0)
(6.3328 1.71319e-08 0)
(6.3328 -8.2092e-09 0)
(6.3328 1.85804e-08 0)
(6.3328 -4.61162e-09 0)
(6.3328 2.36246e-08 0)
(6.3328 -6.20834e-10 0)
(6.3328 3.12052e-08 0)
(6.3328 4.73338e-09 0)
(6.3328 3.77531e-08 0)
(6.3328 1.11681e-08 0)
(6.3328 3.87826e-08 0)
(6.3328 1.386e-08 0)
(6.3328 2.75269e-08 0)
(6.3328 -1.2563e-08 0)
(6.3328 -2.8513e-08 0)
(6.20614 -4.48988e-09 0)
(6.20614 2.50598e-08 0)
(6.20614 -1.25798e-08 0)
(6.20614 1.811e-08 0)
(6.20614 -1.49299e-08 0)
(6.20614 1.86342e-08 0)
(6.20614 -1.00968e-08 0)
(6.20614 2.04036e-08 0)
(6.20614 -6.72599e-09 0)
(6.20614 2.53942e-08 0)
(6.20614 -2.68118e-09 0)
(6.20614 3.2589e-08 0)
(6.20614 2.93677e-09 0)
(6.20614 3.85472e-08 0)
(6.20614 9.83687e-09 0)
(6.20614 3.89274e-08 0)
(6.20614 1.32173e-08 0)
(6.20614 2.69902e-08 0)
(6.20614 -1.16831e-08 0)
(6.20614 -2.67353e-08 0)
(5.95283 -3.991e-09 0)
(5.95283 2.43797e-08 0)
(5.95283 -1.27565e-08 0)
(5.95283 1.85218e-08 0)
(5.95283 -1.55596e-08 0)
(5.95283 1.94017e-08 0)
(5.95283 -1.14322e-08 0)
(5.95283 2.14011e-08 0)
(5.95283 -8.36126e-09 0)
(5.95283 2.62344e-08 0)
(5.95283 -4.38756e-09 0)
(5.95283 3.29249e-08 0)
(5.95283 1.31102e-09 0)
(5.95283 3.82436e-08 0)
(5.95283 8.45971e-09 0)
(5.95283 3.81087e-08 0)
(5.95283 1.24085e-08 0)
(5.95283 2.59299e-08 0)
(5.95283 -1.0199e-08 0)
(5.95283 -2.39152e-08 0)
(5.57286 -3.68292e-09 0)
(5.57286 2.279e-08 0)
(5.57286 -1.25179e-08 0)
(5.57286 1.81509e-08 0)
(5.57286 -1.55148e-08 0)
(5.57286 1.93313e-08 0)
(5.57286 -1.21128e-08 0)
(5.57286 2.14623e-08 0)
(5.57286 -9.41755e-09 0)
(5.57286 2.60304e-08 0)
(5.57286 -5.65989e-09 0)
(5.57286 3.21036e-08 0)
(5.57286 -9.74043e-11 0)
(5.57286 3.67411e-08 0)
(5.57286 7.03039e-09 0)
(5.57286 3.62349e-08 0)
(5.57286 1.13569e-08 0)
(5.57286 2.42907e-08 0)
(5.57286 -8.30642e-09 0)
(5.57286 -2.03341e-08 0)
(5.06624 -3.57448e-09 0)
(5.06624 2.0306e-08 0)
(5.06624 -1.18034e-08 0)
(5.06624 1.69698e-08 0)
(5.06624 -1.4751e-08 0)
(5.06624 1.83573e-08 0)
(5.06624 -1.20802e-08 0)
(5.06624 2.05109e-08 0)
(5.06624 -9.84055e-09 0)
(5.06624 2.46936e-08 0)
(5.06624 -6.46446e-09 0)
(5.06624 3.00255e-08 0)
(5.06624 -1.29146e-09 0)
(5.06624 3.39229e-08 0)
(5.06624 5.4865e-09 0)
(5.06624 3.31656e-08 0)
(5.06624 9.92209e-09 0)
(5.06624 2.19365e-08 0)
(5.06624 -6.31311e-09 0)
(5.06624 -1.63804e-08 0)
(4.43296 -3.6005e-09 0)
(4.43296 1.70139e-08 0)
(4.43296 -1.05539e-08 0)
(4.43296 1.4983e-08 0)
(4.43296 -1.3239e-08 0)
(4.43296 1.6447e-08 0)
(4.43296 -1.12872e-08 0)
(4.43296 1.85111e-08 0)
(4.43296 -9.57412e-09 0)
(4.43296 2.2168e-08 0)
(4.43296 -6.74839e-09 0)
(4.43296 2.66234e-08 0)
(4.43296 -2.24e-09 0)
(4.43296 2.97022e-08 0)
(4.43296 3.80606e-09 0)
(4.43296 2.87707e-08 0)
(4.43296 7.99391e-09 0)
(4.43296 1.86962e-08 0)
(4.43296 -4.57835e-09 0)
(4.43296 -1.25418e-08 0)
(3.67302 -3.84068e-09 0)
(3.67302 1.32273e-08 0)
(3.67302 -8.9845e-09 0)
(3.67302 1.24337e-08 0)
(3.67302 -1.13999e-08 0)
(3.67302 1.37648e-08 0)
(3.67302 -1.02951e-08 0)
(3.67302 1.54749e-08 0)
(3.67302 -9.41352e-09 0)
(3.67302 1.82052e-08 0)
(3.67302 -7.64702e-09 0)
(3.67302 2.12377e-08 0)
(3.67302 -4.52067e-09 0)
(3.67302 2.28783e-08 0)
(3.67302 -3.49647e-11 0)
(3.67302 2.13178e-08 0)
(3.67302 3.32752e-09 0)
(3.67302 1.27131e-08 0)
(3.67302 -4.96939e-09 0)
(3.67302 -1.0041e-08 0)
(2.78643 -3.01445e-09 0)
(2.78643 8.50127e-09 0)
(2.78643 -5.98175e-09 0)
(2.78643 8.54073e-09 0)
(2.78643 -7.45787e-09 0)
(2.78643 9.77177e-09 0)
(2.78643 -6.60382e-09 0)
(2.78643 1.14894e-08 0)
(2.78643 -5.67359e-09 0)
(2.78643 1.40556e-08 0)
(2.78643 -3.82565e-09 0)
(2.78643 1.69638e-08 0)
(2.78643 -7.4519e-10 0)
(2.78643 1.89699e-08 0)
(2.78643 3.29192e-09 0)
(2.78643 1.85454e-08 0)
(2.78643 5.99851e-09 0)
(2.78643 1.20336e-08 0)
(2.78643 -6.87658e-10 0)
(2.78643 -5.56594e-09 0)
(1.77318 -3.54196e-09 0)
(1.77318 5.03287e-09 0)
(1.77318 -4.6107e-09 0)
(1.77318 5.98106e-09 0)
(1.77318 -6.47879e-09 0)
(1.77318 6.5868e-09 0)
(1.77318 -7.09443e-09 0)
(1.77318 7.17619e-09 0)
(1.77318 -8.15922e-09 0)
(1.77318 7.43611e-09 0)
(1.77318 -9.14019e-09 0)
(1.77318 6.88179e-09 0)
(1.77318 -9.83982e-09 0)
(1.77318 4.85629e-09 0)
(1.77318 -9.97835e-09 0)
(1.77318 1.38376e-09 0)
(1.77318 -9.73542e-09 0)
(1.77318 -3.9247e-09 0)
(1.77318 -1.05156e-08 0)
(1.77318 -9.15056e-09 0)
(0.63328 -4.31831e-10 0)
(0.63328 6.2767e-10 0)
(0.63328 -2.55978e-10 0)
(0.63328 7.18996e-10 0)
(0.63328 -2.94174e-10 0)
(0.63328 9.82755e-10 0)
(0.63328 -7.22629e-11 0)
(0.63328 1.49712e-09 0)
(0.63328 2.62502e-10 0)
(0.63328 2.20162e-09 0)
(0.63328 8.59792e-10 0)
(0.63328 3.04741e-09 0)
(0.63328 1.72793e-09 0)
(0.63328 3.82509e-09 0)
(0.63328 2.60607e-09 0)
(0.63328 4.13622e-09 0)
(0.63328 2.87077e-09 0)
(0.63328 2.92064e-09 0)
(0.63328 7.85585e-10 0)
(0.63328 -1.20547e-09 0)
)
;

boundaryField
{
    top
    {
        type            fixedValue;
        value           uniform (0 0 0);
    }
    bottom
    {
        type            fixedValue;
        value           uniform (0 0 0);
    }
    inlet
    {
        type            zeroGradient;
    }
    outlet
    {
        type            zeroGradient;
    }
    frontAndBack
    {
        type            empty;
    }
}


// ************************************************************************* //
