/*--------------------------------*- C++ -*----------------------------------*\
| =========                 |                                                 |
| \\      /  F ield         | OpenFOAM: The Open Source CFD Toolbox           |
|  \\    /   O peration     | Version:  4.1                                   |
|   \\  /    A nd           | Web:      www.OpenFOAM.org                      |
|    \\/     M anipulation  |                                                 |
\*---------------------------------------------------------------------------*/
FoamFile
{
    version     2.0;
    format      ascii;
    class       surfaceScalarField;
    location    "2.9";
    object      phi;
}
// * * * * * * * * * * * * * * * * * * * * * * * * * * * * * * * * * * * * * //

dimensions      [0 3 -1 0 0 0 0];

internalField   nonuniform List<scalar> 
760
(
-1.91641e-05
3.20395e-13
-1.91641e-05
8.06324e-13
-1.91641e-05
-6.64834e-14
-1.91641e-05
9.83809e-13
-1.91641e-05
-3.64762e-13
-1.91641e-05
1.19464e-12
-1.91641e-05
-6.12948e-13
-1.91641e-05
1.27338e-12
-1.91641e-05
-7.61371e-13
-1.91641e-05
1.22199e-12
-1.91641e-05
-8.14215e-13
-1.91641e-05
1.04431e-12
-1.91641e-05
-7.61872e-13
-1.91641e-05
7.69694e-13
-1.91641e-05
-6.21157e-13
-1.91641e-05
3.86913e-13
-1.91641e-05
-3.7103e-13
-1.91641e-05
3.00844e-14
-1.91641e-05
-2.15146e-13
-7.71983e-14
-5.11594e-05
2.62594e-13
-5.11594e-05
5.03631e-13
-5.11594e-05
-1.23583e-12
-5.11594e-05
-2.16945e-13
-5.11594e-05
-2.39601e-12
-5.11594e-05
-4.7068e-13
-5.11594e-05
-3.21404e-12
-5.11594e-05
-6.50165e-13
-5.11594e-05
-3.62321e-12
-5.11594e-05
-7.67999e-13
-5.11594e-05
-3.65221e-12
-5.11594e-05
-8.43908e-13
-5.11594e-05
-3.31013e-12
-5.11594e-05
-8.64354e-13
-5.11594e-05
-2.67122e-12
-5.11594e-05
-9.2062e-13
-5.11594e-05
-1.71854e-12
-5.11594e-05
-8.66408e-13
-5.11594e-05
-9.13383e-13
-1.8863e-13
-7.68219e-05
2.53362e-13
-7.68219e-05
-5.96553e-14
-7.68219e-05
-2.38208e-12
-7.68219e-05
-1.97083e-12
-7.68219e-05
-4.37118e-12
-7.68219e-05
-2.84829e-12
-7.68219e-05
-5.70479e-12
-7.68219e-05
-3.34683e-12
-7.68219e-05
-6.33817e-12
-7.68219e-05
-3.51183e-12
-7.68219e-05
-6.33018e-12
-7.68219e-05
-3.39349e-12
-7.68219e-05
-5.71058e-12
-7.68219e-05
-3.00429e-12
-7.68219e-05
-4.61445e-12
-7.68219e-05
-2.53071e-12
-7.68219e-05
-3.00581e-12
-7.68219e-05
-1.88398e-12
-7.68219e-05
-1.571e-12
-1.95616e-13
-9.61515e-05
4.51672e-13
-9.61515e-05
-4.29329e-13
-9.61515e-05
-3.22409e-12
-9.61516e-05
-3.4895e-12
-9.61515e-05
-5.92669e-12
-9.61516e-05
-4.94304e-12
-9.61515e-05
-7.70156e-12
-9.61516e-05
-5.72575e-12
-9.61515e-05
-8.53718e-12
-9.61516e-05
-5.93343e-12
-9.61516e-05
-8.51989e-12
-9.61516e-05
-5.64302e-12
-9.61516e-05
-7.6931e-12
-9.61516e-05
-4.8872e-12
-9.61516e-05
-6.24753e-12
-9.61516e-05
-3.94209e-12
-9.61516e-05
-4.10242e-12
-9.61516e-05
-2.78849e-12
-9.61516e-05
-2.13286e-12
-1.38926e-13
-0.000109148
7.80681e-13
-0.000109148
-6.32758e-13
-0.000109148
-3.8136e-12
-0.000109148
-4.74248e-12
-0.000109148
-7.08938e-12
-0.000109148
-6.68866e-12
-0.000109148
-9.21655e-12
-0.000109148
-7.70379e-12
-0.000109148
-1.02178e-11
-0.000109148
-7.94244e-12
-0.000109148
-1.02048e-11
-0.000109148
-7.50417e-12
-0.000109148
-9.22988e-12
-0.000109148
-6.43641e-12
-0.000109148
-7.53085e-12
-0.000109148
-5.09446e-12
-0.000109148
-4.97231e-12
-0.000109148
-3.53261e-12
-0.000109148
-2.55775e-12
-1.66544e-14
-0.000115812
1.14296e-12
-0.000115812
-7.59984e-13
-0.000115812
-4.25337e-12
-0.000115812
-5.81124e-12
-0.000115812
-7.97831e-12
-0.000115812
-8.17419e-12
-0.000115812
-1.0378e-11
-0.000115812
-9.37774e-12
-0.000115812
-1.15052e-11
-0.000115812
-9.63462e-12
-0.000115812
-1.1496e-11
-0.000115812
-9.06307e-12
-0.000115812
-1.04098e-11
-0.000115812
-7.72288e-12
-0.000115812
-8.52255e-12
-0.000115812
-6.03683e-12
-0.000115812
-5.64878e-12
-0.000115812
-4.13595e-12
-0.000115812
-2.8518e-12
1.47721e-13
-0.000116144
1.46357e-12
-0.000116144
-8.71721e-13
-0.000116144
-4.59744e-12
-0.000116144
-6.72895e-12
-0.000116144
-8.65249e-12
-0.000116144
-9.42658e-12
-0.000116144
-1.12447e-11
-0.000116144
-1.07752e-11
-0.000116144
-1.24534e-11
-0.000116144
-1.10355e-11
-0.000116144
-1.24384e-11
-0.000116144
-1.03409e-11
-0.000116144
-1.12659e-11
-0.000116144
-8.76314e-12
-0.000116144
-9.23988e-12
-0.000116144
-6.77845e-12
-0.000116144
-6.13789e-12
-0.000116144
-4.59744e-12
-0.000116144
-3.01734e-12
3.36396e-13
-0.000110142
1.69491e-12
-0.000110142
-1.00377e-12
-0.000110142
-4.86448e-12
-0.000110142
-7.49572e-12
-0.000110142
-9.12919e-12
-0.000110142
-1.04352e-11
-0.000110142
-1.18308e-11
-0.000110142
-1.18831e-11
-0.000110142
-1.30733e-11
-0.000110142
-1.21306e-11
-0.000110142
-1.30396e-11
-0.000110142
-1.13227e-11
-0.000110142
-1.18019e-11
-0.000110142
-9.5443e-12
-0.000110142
-9.68145e-12
-0.000110142
-7.30816e-12
-0.000110142
-6.43582e-12
-0.000110142
-4.90753e-12
-0.000110142
-3.05907e-12
5.35107e-13
-9.78078e-05
1.80787e-12
-9.78078e-05
-1.17799e-12
-9.78078e-05
-5.05532e-12
-9.78078e-05
-8.09931e-12
-9.78078e-05
-9.40872e-12
-9.78078e-05
-1.11798e-11
-9.78078e-05
-1.21347e-11
-9.78078e-05
-1.26792e-11
-9.78078e-05
-1.33637e-11
-9.78078e-05
-1.28969e-11
-9.78078e-05
-1.32989e-11
-9.78078e-05
-1.19872e-11
-9.78078e-05
-1.20174e-11
-9.78078e-05
-1.00492e-11
-9.78078e-05
-9.84683e-12
-9.78078e-05
-7.6132e-12
-9.78078e-05
-6.5412e-12
-9.78078e-05
-5.05857e-12
-9.78078e-05
-2.99025e-12
7.30424e-13
-7.91406e-05
1.78887e-12
-7.91406e-05
-1.40637e-12
-7.91406e-05
-5.16314e-12
-7.91406e-05
-8.52258e-12
-7.91406e-05
-9.48495e-12
-7.91406e-05
-1.164e-11
-7.91406e-05
-1.21508e-11
-7.91406e-05
-1.31416e-11
-7.91406e-05
-1.3322e-11
-7.91406e-05
-1.3313e-11
-7.91406e-05
-1.32167e-11
-7.91406e-05
-1.23152e-11
-7.91406e-05
-1.19148e-11
-7.91406e-05
-1.02632e-11
-7.91406e-05
-9.74043e-12
-7.91406e-05
-7.68453e-12
-7.91406e-05
-6.45642e-12
-7.91406e-05
-5.04601e-12
-7.91406e-05
-2.83049e-12
9.08442e-13
-5.41406e-05
1.63845e-12
-5.41406e-05
-1.69073e-12
-5.41406e-05
-5.17994e-12
-5.41406e-05
-8.74779e-12
-5.41406e-05
-9.3523e-12
-5.41406e-05
-1.18005e-11
-5.41406e-05
-1.18768e-11
-5.41406e-05
-1.32559e-11
-5.41406e-05
-1.29515e-11
-5.41406e-05
-1.33662e-11
-5.41406e-05
-1.28006e-11
-5.41406e-05
-1.22976e-11
-5.41406e-05
-1.1504e-11
-5.41406e-05
-1.01812e-11
-5.41406e-05
-9.3743e-12
-5.41406e-05
-7.52276e-12
-5.41406e-05
-6.18926e-12
-5.41406e-05
-4.87098e-12
-5.41406e-05
-2.60323e-12
1.0533e-12
-2.28078e-05
1.37147e-12
-2.28078e-05
-2.01875e-12
-2.28078e-05
-5.09903e-12
-2.28078e-05
-8.75693e-12
-2.28078e-05
-9.00851e-12
-2.28078e-05
-1.16521e-11
-2.28078e-05
-1.13181e-11
-2.28078e-05
-1.3016e-11
-2.28078e-05
-1.2265e-11
-2.28078e-05
-1.30547e-11
-2.28078e-05
-1.20681e-11
-2.28078e-05
-1.19378e-11
-2.28078e-05
-1.08041e-11
-2.28078e-05
-9.81031e-12
-2.28078e-05
-8.76843e-12
-2.28078e-05
-7.14137e-12
-2.28078e-05
-5.75375e-12
-2.28078e-05
-4.54258e-12
-2.28078e-05
-2.33186e-12
1.14654e-12
1.48578e-05
1.01757e-12
1.48578e-05
-2.35799e-12
1.48578e-05
-4.91389e-12
1.48578e-05
-8.52963e-12
1.48578e-05
-8.45416e-12
1.48578e-05
-1.11882e-11
1.48578e-05
-1.04868e-11
1.48578e-05
-1.24218e-11
1.48578e-05
-1.12834e-11
1.48578e-05
-1.23858e-11
1.48578e-05
-1.1045e-11
1.48578e-05
-1.12507e-11
1.48578e-05
-9.84206e-12
1.48578e-05
-9.17026e-12
1.48578e-05
-7.94901e-12
1.48578e-05
-6.56709e-12
1.48578e-05
-5.17003e-12
1.48578e-05
-4.0801e-12
1.48578e-05
-2.03524e-12
1.1687e-12
5.88563e-05
6.19921e-13
5.88563e-05
-2.65005e-12
5.88563e-05
-4.6137e-12
5.88563e-05
-8.03931e-12
5.88563e-05
-7.68893e-12
5.88563e-05
-1.03983e-11
5.88563e-05
-9.39737e-12
5.88563e-05
-1.14733e-11
5.88563e-05
-1.00306e-11
5.88563e-05
-1.13712e-11
5.88563e-05
-9.75989e-12
5.88563e-05
-1.02585e-11
5.88563e-05
-8.64795e-12
5.88563e-05
-8.28992e-12
5.88563e-05
-6.94401e-12
5.88563e-05
-5.83688e-12
5.88563e-05
-4.46233e-12
5.88563e-05
-3.51475e-12
5.88563e-05
-1.72371e-12
1.1036e-12
0.000109188
2.30014e-13
0.000109188
-2.81183e-12
0.000109188
-4.18213e-12
0.000109188
-7.25476e-12
0.000109188
-6.71111e-12
0.000109188
-9.26727e-12
0.000109188
-8.06353e-12
0.000109188
-1.01677e-11
0.000109188
-8.5286e-12
0.000109188
-1.00214e-11
0.000109188
-8.23888e-12
0.000109188
-8.98419e-12
0.000109188
-7.24907e-12
0.000109188
-7.20098e-12
0.000109188
-5.77783e-12
0.000109188
-4.99024e-12
0.000109188
-3.65459e-12
0.000109188
-2.88716e-12
0.000109188
-1.395e-12
9.46476e-13
0.000165852
-9.58854e-14
0.000165852
-2.73797e-12
0.000165852
-3.58445e-12
0.000165852
-6.13231e-12
0.000165852
-5.49817e-12
0.000165852
-7.75781e-12
0.000165852
-6.47148e-12
0.000165852
-8.47543e-12
0.000165852
-6.76674e-12
0.000165852
-8.31883e-12
0.000165852
-6.47436e-12
0.000165852
-7.42252e-12
0.000165852
-5.64154e-12
0.000165852
-5.91025e-12
0.000165852
-4.44818e-12
0.000165852
-4.04337e-12
0.000165852
-2.75237e-12
0.000165852
-2.23271e-12
0.000165852
-1.02709e-12
7.1818e-13
0.000228848
-3.07432e-13
0.000228848
-2.32391e-12
0.000228848
-2.75858e-12
0.000228848
-4.61477e-12
0.000228848
-3.98723e-12
0.000228848
-5.79881e-12
0.000228848
-4.55043e-12
0.000228848
-6.31911e-12
0.000228848
-4.66734e-12
0.000228848
-6.18768e-12
0.000228848
-4.38959e-12
0.000228848
-5.5051e-12
0.000228848
-3.75661e-12
0.000228848
-4.36337e-12
0.000228848
-2.89831e-12
0.000228848
-2.95554e-12
0.000228848
-1.71884e-12
0.000228848
-1.55091e-12
0.000228848
-5.72121e-13
4.78019e-13
0.000298178
-4.19188e-13
0.000298178
-1.59787e-12
0.000298178
-1.75566e-12
0.000298178
-2.80877e-12
0.000298178
-2.27538e-12
0.000298178
-3.49723e-12
0.000298178
-2.41426e-12
0.000298178
-3.79518e-12
0.000298178
-2.3452e-12
0.000298178
-3.70498e-12
0.000298178
-2.09199e-12
0.000298178
-3.28363e-12
0.000298178
-1.68489e-12
0.000298178
-2.58598e-12
0.000298178
-1.19739e-12
0.000298178
-1.72304e-12
0.000298178
-5.87429e-13
0.000298178
-8.41205e-13
0.000298178
-3.00145e-14
3.0499e-13
0.000373841
-3.62582e-13
0.000373841
-5.55792e-13
0.000373841
-4.94071e-13
0.000373841
-7.14144e-13
0.000373841
-2.64336e-13
0.000373841
-8.08787e-13
0.000373841
5.25218e-14
0.000373841
-8.21655e-13
0.000373841
3.19505e-13
0.000373841
-7.57291e-13
0.000373841
5.29521e-13
0.000373841
-6.25473e-13
0.000373841
6.67093e-13
0.000373841
-4.38641e-13
0.000373841
7.19424e-13
0.000373841
-2.17152e-13
0.000373841
6.97716e-13
0.000373841
-4.34962e-15
0.000373841
6.02562e-13
2.90135e-13
0.000455836
0.000455836
0.000455836
0.000455836
0.000455836
0.000455836
0.000455836
0.000455836
0.000455836
0.000455836
0.000455836
0.000455836
0.000455836
0.000455836
0.000455836
0.000455836
0.000455836
0.000455836
0.000455836
)
;

boundaryField
{
    top
    {
        type            calculated;
        value           uniform 0;
    }
    bottom
    {
        type            calculated;
        value           uniform 0;
    }
    inlet
    {
        type            calculated;
        value           nonuniform List<scalar> 
20
(
1.91641e-05
5.11594e-05
7.68219e-05
9.61515e-05
0.000109148
0.000115812
0.000116144
0.000110142
9.78078e-05
7.91406e-05
5.41406e-05
2.28078e-05
-1.48578e-05
-5.88563e-05
-0.000109188
-0.000165852
-0.000228848
-0.000298178
-0.000373841
-0.000455836
)
;
    }
    outlet
    {
        type            calculated;
        value           nonuniform List<scalar> 
20
(
-1.91641e-05
-5.11594e-05
-7.68219e-05
-9.61516e-05
-0.000109148
-0.000115812
-0.000116144
-0.000110142
-9.78078e-05
-7.91406e-05
-5.41406e-05
-2.28078e-05
1.48578e-05
5.88563e-05
0.000109188
0.000165852
0.000228848
0.000298178
0.000373841
0.000455836
)
;
    }
    frontAndBack
    {
        type            empty;
        value           nonuniform 0();
    }
}


// ************************************************************************* //
