/*--------------------------------*- C++ -*----------------------------------*\
| =========                 |                                                 |
| \\      /  F ield         | OpenFOAM: The Open Source CFD Toolbox           |
|  \\    /   O peration     | Version:  4.1                                   |
|   \\  /    A nd           | Web:      www.OpenFOAM.org                      |
|    \\/     M anipulation  |                                                 |
\*---------------------------------------------------------------------------*/
FoamFile
{
    version     2.0;
    format      ascii;
    class       volVectorField;
    location    "2.9";
    object      U;
}
// * * * * * * * * * * * * * * * * * * * * * * * * * * * * * * * * * * * * * //

dimensions      [0 1 -1 0 0 0 0];

internalField   nonuniform List<vector> 
400
(
(-0.383281 1.47404e-11 0)
(-0.383281 -7.55807e-11 0)
(-0.383281 -3.94412e-10 0)
(-0.383281 -3.23112e-10 0)
(-0.383281 -7.10508e-10 0)
(-0.383281 -4.87906e-10 0)
(-0.383281 -9.33769e-10 0)
(-0.383281 -5.91544e-10 0)
(-0.383281 -1.04569e-09 0)
(-0.383281 -6.37583e-10 0)
(-0.383281 -1.05076e-09 0)
(-0.383281 -6.28399e-10 0)
(-0.383281 -9.55682e-10 0)
(-0.383281 -5.68416e-10 0)
(-0.383281 -7.77805e-10 0)
(-0.383281 -4.82695e-10 0)
(-0.383281 -5.2665e-10 0)
(-0.383281 -3.41321e-10 0)
(-0.383281 -2.92159e-10 0)
(-0.383281 -1.23093e-10 0)
(-1.02319 2.98297e-10 0)
(-1.02319 9.66678e-10 0)
(-1.02319 -4.59791e-10 0)
(-1.02319 9.83234e-10 0)
(-1.02319 -1.05429e-09 0)
(-1.02319 1.20481e-09 0)
(-1.02319 -1.49907e-09 0)
(-1.02319 1.28112e-09 0)
(-1.02319 -1.73236e-09 0)
(-1.02319 1.22379e-09 0)
(-1.02319 -1.76929e-09 0)
(-1.02319 1.02822e-09 0)
(-1.02319 -1.60409e-09 0)
(-1.02319 7.29588e-10 0)
(-1.02319 -1.27368e-09 0)
(-1.02319 2.95023e-10 0)
(-1.02319 -7.43685e-10 0)
(-1.02319 -1.04642e-10 0)
(-1.02319 -3.74025e-10 0)
(-1.02319 -5.87816e-11 0)
(-1.53644 1.13329e-10 0)
(-1.53644 -1.27095e-10 0)
(-1.53644 -2.12333e-09 0)
(-1.53644 -1.69797e-09 0)
(-1.53644 -3.86701e-09 0)
(-1.53644 -2.48537e-09 0)
(-1.53644 -5.05336e-09 0)
(-1.53644 -2.94986e-09 0)
(-1.53644 -5.62389e-09 0)
(-1.53644 -3.12052e-09 0)
(-1.53644 -5.62395e-09 0)
(-1.53644 -3.0356e-09 0)
(-1.53644 -5.08185e-09 0)
(-1.53644 -2.70877e-09 0)
(-1.53644 -4.11033e-09 0)
(-1.53644 -2.2954e-09 0)
(-1.53644 -2.70812e-09 0)
(-1.53644 -1.69492e-09 0)
(-1.53644 -1.43937e-09 0)
(-1.53644 -3.18411e-10 0)
(-1.92303 3.63571e-10 0)
(-1.92303 -1.85539e-10 0)
(-1.92303 -2.69101e-09 0)
(-1.92303 -2.58522e-09 0)
(-1.92303 -4.97036e-09 0)
(-1.92303 -3.69017e-09 0)
(-1.92303 -6.47675e-09 0)
(-1.92303 -4.29792e-09 0)
(-1.92303 -7.18826e-09 0)
(-1.92303 -4.47559e-09 0)
(-1.92303 -7.1767e-09 0)
(-1.92303 -4.28533e-09 0)
(-1.92303 -6.47657e-09 0)
(-1.92303 -3.74643e-09 0)
(-1.92303 -5.24541e-09 0)
(-1.92303 -3.08596e-09 0)
(-1.92303 -3.42507e-09 0)
(-1.92303 -2.23887e-09 0)
(-1.92303 -1.78889e-09 0)
(-1.92303 -1.33457e-10 0)
(-2.18297 6.27364e-10 0)
(-2.18297 -5.22864e-10 0)
(-2.18297 -3.4808e-09 0)
(-2.18297 -4.09395e-09 0)
(-2.18297 -6.45695e-09 0)
(-2.18297 -5.78872e-09 0)
(-2.18297 -8.39752e-09 0)
(-2.18297 -6.68513e-09 0)
(-2.18297 -9.31231e-09 0)
(-2.18297 -6.90886e-09 0)
(-2.18297 -9.29964e-09 0)
(-2.18297 -6.54745e-09 0)
(-2.18297 -8.40682e-09 0)
(-2.18297 -5.64037e-09 0)
(-2.18297 -6.84668e-09 0)
(-2.18297 -4.50318e-09 0)
(-2.18297 -4.51045e-09 0)
(-2.18297 -3.15014e-09 0)
(-2.18297 -2.34027e-09 0)
(-2.18297 -7.07479e-11 0)
(-2.31625 9.81108e-10 0)
(-2.31625 -6.81186e-10 0)
(-2.31625 -4.00093e-09 0)
(-2.31625 -5.26099e-09 0)
(-2.31625 -7.49444e-09 0)
(-2.31625 -7.41481e-09 0)
(-2.31625 -9.75078e-09 0)
(-2.31625 -8.52279e-09 0)
(-2.31625 -1.08129e-08 0)
(-2.31625 -8.77127e-09 0)
(-2.31625 -1.08041e-08 0)
(-2.31625 -8.26846e-09 0)
(-2.31625 -9.77964e-09 0)
(-2.31625 -7.06751e-09 0)
(-2.31625 -7.99624e-09 0)
(-2.31625 -5.55739e-09 0)
(-2.31625 -5.29015e-09 0)
(-2.31625 -3.83152e-09 0)
(-2.31625 -2.70014e-09 0)
(-2.31625 7.98263e-11 0)
(-2.32287 1.33391e-09 0)
(-2.32287 -7.89272e-10 0)
(-2.32287 -4.39354e-09 0)
(-2.32287 -6.24686e-09 0)
(-2.32287 -8.27527e-09 0)
(-2.32287 -8.77481e-09 0)
(-2.32287 -1.07641e-08 0)
(-2.32287 -1.0047e-08 0)
(-2.32287 -1.19297e-08 0)
(-2.32287 -1.03053e-08 0)
(-2.32287 -1.19196e-08 0)
(-2.32287 -9.67461e-09 0)
(-2.32287 -1.07959e-08 0)
(-2.32287 -8.2201e-09 0)
(-2.32287 -8.84909e-09 0)
(-2.32287 -6.3911e-09 0)
(-2.32287 -5.86998e-09 0)
(-2.32287 -4.36078e-09 0)
(-2.32287 -2.92455e-09 0)
(-2.32287 2.65065e-10 0)
(-2.20284 1.61687e-09 0)
(-2.20284 -9.04449e-10 0)
(-2.20284 -4.70277e-09 0)
(-2.20284 -7.09007e-09 0)
(-2.20284 -8.85688e-09 0)
(-2.20284 -9.90737e-09 0)
(-2.20284 -1.14988e-08 0)
(-2.20284 -1.13014e-08 0)
(-2.20284 -1.27229e-08 0)
(-2.20284 -1.15547e-08 0)
(-2.20284 -1.27005e-08 0)
(-2.20284 -1.08057e-08 0)
(-2.20284 -1.14999e-08 0)
(-2.20284 -9.13177e-09 0)
(-2.20284 -9.4352e-09 0)
(-2.20284 -7.02743e-09 0)
(-2.20284 -6.26684e-09 0)
(-2.20284 -4.74893e-09 0)
(-2.20284 -3.0276e-09 0)
(-2.20284 4.64257e-10 0)
(-1.95616 1.79545e-09 0)
(-1.95616 -1.05064e-09 0)
(-1.95616 -4.93258e-09 0)
(-1.95616 -7.77226e-09 0)
(-1.95616 -9.23634e-09 0)
(-1.95616 -1.07796e-08 0)
(-1.95616 -1.19462e-08 0)
(-1.95616 -1.22476e-08 0)
(-1.95616 -1.31805e-08 0)
(-1.95616 -1.2479e-08 0)
(-1.95616 -1.31331e-08 0)
(-1.95616 -1.16225e-08 0)
(-1.95616 -1.18776e-08 0)
(-1.95616 -9.76908e-09 0)
(-1.95616 -9.74014e-09 0)
(-1.95616 -7.4404e-09 0)
(-1.95616 -6.46847e-09 0)
(-1.95616 -4.97764e-09 0)
(-1.95616 -3.01188e-09 0)
(-1.95616 6.65751e-10 0)
(-1.58281 1.84675e-09 0)
(-1.58281 -1.24715e-09 0)
(-1.58281 -5.08217e-09 0)
(-1.58281 -8.28382e-09 0)
(-1.58281 -9.41539e-09 0)
(-1.58281 -1.13783e-08 0)
(-1.58281 -1.21083e-08 0)
(-1.58281 -1.28722e-08 0)
(-1.58281 -1.33072e-08 0)
(-1.58281 -1.30651e-08 0)
(-1.58281 -1.3224e-08 0)
(-1.58281 -1.21136e-08 0)
(-1.58281 -1.19362e-08 0)
(-1.58281 -1.01238e-08 0)
(-1.58281 -9.77143e-09 0)
(-1.58281 -7.62482e-09 0)
(-1.58281 -6.47956e-09 0)
(-1.58281 -5.04484e-09 0)
(-1.58281 -2.89645e-09 0)
(-1.58281 8.54801e-10 0)
(-1.08281 1.76374e-09 0)
(-1.08281 -1.50167e-09 0)
(-1.08281 -5.14491e-09 0)
(-1.08281 -8.60793e-09 0)
(-1.08281 -9.38933e-09 0)
(-1.08281 -1.16867e-08 0)
(-1.08281 -1.19827e-08 0)
(-1.08281 -1.31581e-08 0)
(-1.08281 -1.31047e-08 0)
(-1.08281 -1.32967e-08 0)
(-1.08281 -1.29786e-08 0)
(-1.08281 -1.22656e-08 0)
(-1.08281 -1.16833e-08 0)
(-1.08281 -1.01865e-08 0)
(-1.08281 -9.5383e-09 0)
(-1.08281 -7.57683e-09 0)
(-1.08281 -6.30584e-09 0)
(-1.08281 -4.9492e-09 0)
(-1.08281 -2.70329e-09 0)
(-1.08281 1.01655e-09 0)
(-0.456156 1.55339e-09 0)
(-0.456156 -1.81011e-09 0)
(-0.456156 -5.114e-09 0)
(-0.456156 -8.72737e-09 0)
(-0.456156 -9.15456e-09 0)
(-0.456156 -1.16934e-08 0)
(-0.456156 -1.15709e-08 0)
(-0.456156 -1.30957e-08 0)
(-0.456156 -1.25812e-08 0)
(-0.456156 -1.31673e-08 0)
(-0.456156 -1.24096e-08 0)
(-0.456156 -1.20759e-08 0)
(-0.456156 -1.1133e-08 0)
(-0.456156 -9.95864e-09 0)
(-0.456156 -9.05663e-09 0)
(-0.456156 -7.30344e-09 0)
(-0.456156 -5.95796e-09 0)
(-0.456156 -4.69573e-09 0)
(-0.456156 -2.45591e-09 0)
(-0.456156 1.13422e-09 0)
(0.297157 1.23764e-09 0)
(0.297157 -2.151e-09 0)
(0.297157 -4.98333e-09 0)
(0.297157 -8.62272e-09 0)
(0.297157 -8.71003e-09 0)
(0.297157 -1.139e-08 0)
(0.297157 -1.08811e-08 0)
(0.297157 -1.2681e-08 0)
(0.297157 -1.17528e-08 0)
(0.297157 -1.26784e-08 0)
(0.297157 -1.15375e-08 0)
(0.297157 -1.15525e-08 0)
(0.297157 -1.03076e-08 0)
(0.297157 -9.45223e-09 0)
(0.297157 -8.34868e-09 0)
(0.297157 -6.82364e-09 0)
(0.297157 -5.45207e-09 0)
(0.297157 -4.29752e-09 0)
(0.297157 -2.17516e-09 0)
(0.297157 1.18913e-09 0)
(1.17713 8.5518e-10 0)
(1.17713 -2.47661e-09 0)
(1.17713 -4.73918e-09 0)
(1.17713 -8.26515e-09 0)
(1.17713 -8.04789e-09 0)
(1.17713 -1.0761e-08 0)
(1.17713 -9.91713e-09 0)
(1.17713 -1.19061e-08 0)
(1.17713 -1.06319e-08 0)
(1.17713 -1.18315e-08 0)
(1.17713 -1.03802e-08 0)
(1.17713 -1.07065e-08 0)
(1.17713 -9.22709e-09 0)
(1.17713 -8.6852e-09 0)
(1.17713 -7.43506e-09 0)
(1.17713 -6.16451e-09 0)
(1.17713 -4.80586e-09 0)
(1.17713 -3.77695e-09 0)
(1.17713 -1.87416e-09 0)
(1.17713 1.16467e-09 0)
(2.18375 4.46752e-10 0)
(2.18375 -2.72619e-09 0)
(2.18375 -4.38612e-09 0)
(2.18375 -7.64154e-09 0)
(2.18375 -7.19183e-09 0)
(2.18375 -9.81436e-09 0)
(2.18375 -8.72229e-09 0)
(2.18375 -1.07922e-08 0)
(2.18375 -9.27211e-09 0)
(2.18375 -1.06601e-08 0)
(2.18375 -8.99406e-09 0)
(2.18375 -9.58119e-09 0)
(2.18375 -7.94541e-09 0)
(2.18375 -7.70505e-09 0)
(2.18375 -6.36105e-09 0)
(2.18375 -5.37771e-09 0)
(2.18375 -4.05576e-09 0)
(2.18375 -3.17517e-09 0)
(2.18375 -1.56157e-09 0)
(2.18375 1.04553e-09 0)
(3.31703 7.73763e-11 0)
(3.31703 -2.78741e-09 0)
(3.31703 -3.87145e-09 0)
(3.31703 -6.68662e-09 0)
(3.31703 -6.09046e-09 0)
(3.31703 -8.48745e-09 0)
(3.31703 -7.25023e-09 0)
(3.31703 -9.2832e-09 0)
(3.31703 -7.63026e-09 0)
(3.31703 -9.12142e-09 0)
(3.31703 -7.34167e-09 0)
(3.31703 -8.14945e-09 0)
(3.31703 -6.43373e-09 0)
(3.31703 -6.50147e-09 0)
(3.31703 -5.10665e-09 0)
(3.31703 -4.46887e-09 0)
(3.31703 -3.19637e-09 0)
(3.31703 -2.52166e-09 0)
(3.31703 -1.21671e-09 0)
(3.31703 8.46396e-10 0)
(4.57697 -1.46401e-10 0)
(4.57697 -2.46969e-09 0)
(4.57697 -3.04026e-09 0)
(4.57697 -5.20686e-09 0)
(4.57697 -4.52861e-09 0)
(4.57697 -6.54561e-09 0)
(4.57697 -5.24063e-09 0)
(4.57697 -7.12673e-09 0)
(4.57697 -5.42236e-09 0)
(4.57697 -6.97057e-09 0)
(4.57697 -5.14162e-09 0)
(4.57697 -6.19492e-09 0)
(4.57697 -4.43894e-09 0)
(4.57697 -4.90296e-09 0)
(4.57697 -3.46376e-09 0)
(4.57697 -3.32125e-09 0)
(4.57697 -2.09082e-09 0)
(4.57697 -1.76863e-09 0)
(4.57697 -7.33117e-10 0)
(4.57697 6.17017e-10 0)
(5.96356 -5.50551e-10 0)
(5.96356 -2.26181e-09 0)
(5.96356 -2.68285e-09 0)
(5.96356 -4.2191e-09 0)
(5.96356 -3.81147e-09 0)
(5.96356 -5.31007e-09 0)
(5.96356 -4.34376e-09 0)
(5.96356 -5.80385e-09 0)
(5.96356 -4.45609e-09 0)
(5.96356 -5.70289e-09 0)
(5.96356 -4.1876e-09 0)
(5.96356 -5.09278e-09 0)
(5.96356 -3.57927e-09 0)
(5.96356 -4.06063e-09 0)
(5.96356 -2.7511e-09 0)
(5.96356 -2.77211e-09 0)
(5.96356 -1.64162e-09 0)
(5.96356 -1.45224e-09 0)
(5.96356 -5.71696e-10 0)
(5.96356 2.91122e-10 0)
(7.47681 -2.70076e-10 0)
(7.47681 -8.36408e-10 0)
(7.47681 -7.48557e-10 0)
(7.47681 -1.26271e-09 0)
(7.47681 -6.15255e-10 0)
(7.47681 -1.52229e-09 0)
(7.47681 -3.28024e-10 0)
(7.47681 -1.62272e-09 0)
(7.47681 -6.10497e-11 0)
(7.47681 -1.55953e-09 0)
(7.47681 1.78686e-10 0)
(7.47681 -1.35875e-09 0)
(7.47681 3.7015e-10 0)
(7.47681 -1.03622e-09 0)
(7.47681 4.9279e-10 0)
(7.47681 -6.38186e-10 0)
(7.47681 5.58029e-10 0)
(7.47681 -2.14777e-10 0)
(7.47681 5.71138e-10 0)
(7.47681 2.90345e-10 0)
(9.11672 -2.88684e-10 0)
(9.11672 -5.18143e-10 0)
(9.11672 -6.36137e-10 0)
(9.11672 -8.26215e-10 0)
(9.11672 -8.27534e-10 0)
(9.11672 -1.03309e-09 0)
(9.11672 -9.03372e-10 0)
(9.11672 -1.13245e-09 0)
(9.11672 -8.9824e-10 0)
(9.11672 -1.12203e-09 0)
(9.11672 -8.16993e-10 0)
(9.11672 -1.01267e-09 0)
(9.11672 -6.71077e-10 0)
(9.11672 -8.22549e-10 0)
(9.11672 -4.87386e-10 0)
(9.11672 -5.67247e-10 0)
(9.11672 -2.61469e-10 0)
(9.11672 -2.96589e-10 0)
(9.11672 -5.74377e-11 0)
(9.11672 3.58918e-11 0)
)
;

boundaryField
{
    top
    {
        type            fixedValue;
        value           uniform (10 0 0);
    }
    bottom
    {
        type            fixedValue;
        value           uniform (0 0 0);
    }
    inlet
    {
        type            zeroGradient;
    }
    outlet
    {
        type            zeroGradient;
    }
    frontAndBack
    {
        type            empty;
    }
}


// ************************************************************************* //
