/*--------------------------------*- C++ -*----------------------------------*\
| =========                 |                                                 |
| \\      /  F ield         | OpenFOAM: The Open Source CFD Toolbox           |
|  \\    /   O peration     | Version:  4.1                                   |
|   \\  /    A nd           | Web:      www.OpenFOAM.org                      |
|    \\/     M anipulation  |                                                 |
\*---------------------------------------------------------------------------*/
FoamFile
{
    version     2.0;
    format      ascii;
    class       surfaceScalarField;
    location    "0.3";
    object      phi;
}
// * * * * * * * * * * * * * * * * * * * * * * * * * * * * * * * * * * * * * //

dimensions      [0 3 -1 0 0 0 0];

internalField   nonuniform List<scalar> 
760
(
-1.9121e-05
5.51933e-10
-1.91207e-05
-3.52216e-10
-1.91212e-05
5.35584e-10
-1.91208e-05
-3.89458e-10
-1.91212e-05
4.22984e-10
-1.91209e-05
-3.64139e-10
-1.91212e-05
3.13193e-10
-1.91209e-05
-2.73511e-10
-1.91211e-05
1.52538e-10
-1.9121e-05
-1.11012e-10
-1.9121e-05
-1.45553e-12
-1.91211e-05
9.18076e-11
-1.91209e-05
-1.73747e-10
-1.91211e-05
2.5178e-10
-1.91208e-05
-3.06496e-10
-1.91212e-05
4.01472e-10
-1.91208e-05
-4.80224e-10
-1.91213e-05
5.36846e-10
-1.91207e-05
-5.51797e-10
6.64704e-10
-5.10309e-05
1.41969e-09
-5.10307e-05
-6.0791e-10
-5.10315e-05
1.27706e-09
-5.10311e-05
-7.75578e-10
-5.10316e-05
9.62641e-10
-5.10312e-05
-7.70619e-10
-5.10315e-05
6.65238e-10
-5.10312e-05
-5.80132e-10
-5.10314e-05
3.16402e-10
-5.10313e-05
-2.12741e-10
-5.10313e-05
-1.98074e-11
-5.10314e-05
2.15626e-10
-5.10312e-05
-4.00411e-10
-5.10315e-05
5.63131e-10
-5.10311e-05
-7.06886e-10
-5.10316e-05
8.90103e-10
-5.1031e-05
-1.05392e-09
-5.10316e-05
1.1564e-09
-5.1031e-05
-1.16998e-09
1.42648e-09
-7.66113e-05
2.31453e-09
-7.66114e-05
-5.40138e-10
-7.66121e-05
1.91579e-09
-7.66119e-05
-9.22049e-10
-7.66123e-05
1.3447e-09
-7.66121e-05
-1.01126e-09
-7.66123e-05
8.59121e-10
-7.66121e-05
-7.65221e-10
-7.66121e-05
3.81706e-10
-7.66121e-05
-2.48307e-10
-7.6612e-05
-6.97066e-11
-7.66121e-05
3.28877e-10
-7.6612e-05
-5.82157e-10
-7.66122e-05
7.97567e-10
-7.66119e-05
-1.00232e-09
-7.66123e-05
1.23578e-09
-7.66119e-05
-1.44341e-09
-7.66123e-05
1.54588e-09
-7.66119e-05
-1.5066e-09
1.84037e-09
-9.58644e-05
3.19565e-09
-9.58647e-05
-2.01024e-10
-9.58653e-05
2.42421e-09
-9.58653e-05
-8.5887e-10
-9.58655e-05
1.55907e-09
-9.58654e-05
-1.0963e-09
-9.58655e-05
9.06625e-10
-9.58654e-05
-8.31736e-10
-9.58654e-05
3.56272e-10
-9.58654e-05
-2.27056e-10
-9.58653e-05
-1.46577e-10
-9.58654e-05
4.29893e-10
-9.58653e-05
-7.15534e-10
-9.58654e-05
9.55656e-10
-9.58653e-05
-1.19011e-09
-9.58655e-05
1.44215e-09
-9.58653e-05
-1.65706e-09
-9.58654e-05
1.7206e-09
-9.58654e-05
-1.59042e-09
1.89935e-09
-0.000108792
4.01726e-09
-0.000108793
3.45235e-10
-0.000108793
2.78515e-09
-0.000108793
-6.19187e-10
-0.000108793
1.61296e-09
-0.000108793
-1.04108e-09
-0.000108793
8.22152e-10
-0.000108793
-7.94397e-10
-0.000108793
2.51192e-10
-0.000108793
-1.57695e-10
-0.000108793
-2.42437e-10
-0.000108793
5.16052e-10
-0.000108793
-8.01408e-10
-0.000108793
1.03862e-09
-0.000108793
-1.2735e-09
-0.000108793
1.51776e-09
-0.000108793
-1.7098e-09
-0.000108793
1.70781e-09
-0.000108793
-1.45609e-09
1.62642e-09
-0.000115396
4.72623e-09
-0.000115397
1.03023e-09
-0.000115397
2.98497e-09
-0.000115397
-2.41707e-10
-0.000115397
1.52004e-09
-0.000115397
-8.64178e-10
-0.000115397
6.27405e-10
-0.000115397
-6.67789e-10
-0.000115397
8.35258e-11
-0.000115397
-5.04212e-11
-0.000115397
-3.47183e-10
-0.000115397
5.83027e-10
-0.000115397
-8.39407e-10
-0.000115397
1.04825e-09
-0.000115397
-1.259e-09
-0.000115397
1.47258e-09
-0.000115397
-1.6182e-09
-0.000115397
1.53349e-09
-0.000115397
-1.14181e-09
1.07133e-09
-0.000115678
5.27017e-09
-0.000115678
1.78248e-09
-0.000115678
3.01801e-09
-0.000115679
2.29957e-10
-0.000115679
1.30064e-09
-0.000115679
-5.89626e-10
-0.000115679
3.48901e-10
-0.000115679
-4.70185e-10
-0.000115679
-1.26991e-10
-0.000115679
8.238e-11
-0.000115679
-4.50644e-10
-0.000115679
6.26577e-10
-0.000115679
-8.30184e-10
-0.000115679
9.89243e-10
-0.000115679
-1.15588e-09
-0.000115679
1.32065e-09
-0.000115679
-1.40291e-09
-0.000115679
1.22675e-09
-0.000115679
-6.88487e-10
3.05593e-10
-0.000109638
5.60266e-09
-0.000109639
2.53158e-09
-0.000109639
2.8873e-09
-0.000109639
7.49973e-10
-0.000109639
9.80476e-10
-0.000109639
-2.45331e-10
-0.000109639
1.62152e-11
-0.000109639
-2.22284e-10
-0.000109639
-3.59204e-10
-0.000109639
2.27253e-10
-0.000109639
-5.42999e-10
-0.000109639
6.43184e-10
-0.000109639
-7.7578e-10
-0.000109639
8.68902e-10
-0.000109639
-9.76348e-10
-0.000109639
1.07946e-09
-0.000109639
-1.08811e-09
-0.000109639
8.18986e-10
-0.00010964
-1.38997e-10
-5.85379e-10
-9.72787e-05
5.68882e-09
-9.72794e-05
3.21182e-09
-9.72791e-05
2.60493e-09
-9.72797e-05
1.27255e-09
-9.72793e-05
5.89215e-10
-9.72797e-05
1.38199e-10
-9.72793e-05
-3.39876e-10
-9.72796e-05
5.37437e-11
-9.72794e-05
-5.9192e-10
-9.72795e-05
3.70745e-10
-9.72794e-05
-6.15618e-10
-9.72794e-05
6.30718e-10
-9.72795e-05
-6.80161e-10
-9.72793e-05
6.9717e-10
-9.72796e-05
-7.35603e-10
-9.72793e-05
7.69762e-10
-9.72797e-05
-7.01002e-10
-9.72792e-05
3.43538e-10
-9.72798e-05
4.62165e-10
-1.5109e-09
-7.85996e-05
5.51049e-09
-7.86002e-05
3.76551e-09
-7.85998e-05
2.19202e-09
-7.86002e-05
1.75415e-09
-7.85998e-05
1.5902e-10
-7.86002e-05
5.29176e-10
-7.85999e-05
-6.89214e-10
-7.86001e-05
3.35253e-10
-7.85999e-05
-8.05221e-10
-7.86e-05
5.0035e-10
-7.86e-05
-6.61756e-10
-7.85999e-05
5.8899e-10
-7.86001e-05
-5.4961e-10
-7.85999e-05
4.86647e-10
-7.86002e-05
-4.51686e-10
-7.85998e-05
4.15215e-10
-7.86002e-05
-2.7126e-10
-7.85997e-05
-1.64528e-10
-7.86003e-05
1.06924e-09
-2.38334e-09
-5.3601e-05
5.07049e-09
-5.36014e-05
4.14613e-09
-5.36009e-05
1.67845e-09
-5.36013e-05
2.15568e-09
-5.36009e-05
-2.76796e-10
-5.36013e-05
8.96027e-10
-5.3601e-05
-1.00384e-09
-5.36012e-05
6.00189e-10
-5.3601e-05
-9.81599e-10
-5.36011e-05
6.05346e-10
-5.36011e-05
-6.77137e-10
-5.3601e-05
5.2014e-10
-5.36012e-05
-3.9292e-10
-5.3601e-05
2.52486e-10
-5.36013e-05
-1.45229e-10
-5.36009e-05
4.19126e-11
-5.36014e-05
1.69607e-10
-5.36009e-05
-6.68851e-10
-5.36014e-05
1.6361e-09
-3.12536e-09
-2.22829e-05
4.39552e-09
-2.22831e-05
4.32128e-09
-2.22826e-05
1.1023e-09
-2.22828e-05
2.44455e-09
-2.22824e-05
-6.84973e-10
-2.22827e-05
1.20897e-09
-2.22825e-05
-1.25935e-09
-2.22827e-05
8.28089e-10
-2.22826e-05
-1.10689e-09
-2.22827e-05
6.77433e-10
-2.22827e-05
-6.6031e-10
-2.22826e-05
4.28808e-10
-2.22827e-05
-2.21365e-10
-2.22825e-05
1.21066e-11
-2.22828e-05
1.60996e-10
-2.22825e-05
-3.22286e-10
-2.22829e-05
5.89066e-10
-2.22824e-05
-1.13244e-09
-2.22829e-05
2.11788e-09
-3.67527e-09
1.53552e-05
3.53721e-09
1.53552e-05
4.27503e-09
1.53558e-05
5.09034e-10
1.53557e-05
2.59655e-09
1.5356e-05
-1.03334e-09
1.53558e-05
1.44154e-09
1.53559e-05
-1.43585e-09
1.53558e-05
1.00092e-09
1.53558e-05
-1.17093e-09
1.53558e-05
7.11117e-10
1.53558e-05
-6.12769e-10
1.53559e-05
3.22089e-10
1.53557e-05
-4.84346e-11
1.53559e-05
-2.15293e-10
1.53556e-05
4.42726e-10
1.5356e-05
-6.48611e-10
1.53556e-05
9.54487e-10
1.5356e-05
-1.51866e-09
1.53556e-05
2.47334e-09
-3.99004e-09
5.93141e-05
2.5709e-09
5.93143e-05
4.00945e-09
5.93149e-05
-4.97422e-11
5.93149e-05
2.59716e-09
5.93152e-05
-1.29168e-09
5.9315e-05
1.57206e-09
5.93151e-05
-1.51855e-09
5.9315e-05
1.10369e-09
5.9315e-05
-1.16788e-09
5.9315e-05
7.03814e-10
5.93149e-05
-5.3878e-10
5.9315e-05
2.09266e-10
5.93149e-05
1.10669e-10
5.93151e-05
-4.09432e-10
5.93148e-05
6.75033e-10
5.93151e-05
-9.08397e-10
5.93148e-05
1.23415e-09
5.93151e-05
-1.79256e-09
5.93149e-05
2.6675e-09
-4.04599e-09
0.000109595
1.59185e-09
0.000109595
3.5445e-09
0.000109596
-5.18219e-10
0.000109596
2.44217e-09
0.000109596
-1.43269e-09
0.000109596
1.58468e-09
0.000109596
-1.49791e-09
0.000109596
1.1248e-09
0.000109596
-1.09633e-09
0.000109596
6.5567e-10
0.000109596
-4.44966e-10
0.000109596
1.01335e-10
0.000109596
2.39755e-10
0.000109596
-5.49888e-10
0.000109596
8.33324e-10
0.000109596
-1.07419e-09
0.000109596
1.39837e-09
0.000109596
-1.92256e-09
0.000109596
2.67417e-09
-3.83757e-09
0.000166199
7.08768e-10
0.000166199
2.91594e-09
0.0001662
-8.39412e-10
0.0001662
2.13723e-09
0.0001662
-1.43285e-09
0.0001662
1.47016e-09
0.0001662
-1.3694e-09
0.0001662
1.05601e-09
0.0001662
-9.59033e-10
0.0001662
5.68974e-10
0.0001662
-3.39549e-10
0.0001662
1.04275e-11
0.0001662
3.22598e-10
0.0001662
-6.17228e-10
0.0001662
8.9447e-10
0.0001662
-1.121e-09
0.0001662
1.42062e-09
0.0001662
-1.882e-09
0.0001662
2.47757e-09
-3.37485e-09
0.000229127
3.51293e-11
0.000229128
2.1706e-09
0.000229128
-9.60079e-10
0.000229128
1.69652e-09
0.000229128
-1.27421e-09
0.000229128
1.22567e-09
0.000229128
-1.13373e-09
0.000229128
8.91939e-10
0.000229128
-7.63104e-10
0.000229128
4.47603e-10
0.000229128
-2.31607e-10
0.000229128
-5.08648e-11
0.000229128
3.44122e-10
0.000229128
-5.94446e-10
0.000229128
8.38481e-10
0.000229128
-1.02732e-09
0.000229128
1.27858e-09
0.000229128
-1.65073e-09
0.000229129
2.07334e-09
-2.68131e-09
0.000298382
-3.20411e-10
0.000298383
1.3603e-09
0.000298383
-8.31932e-10
0.000298383
1.13787e-09
0.000298383
-9.40989e-10
0.000298383
8.57066e-10
0.000298383
-7.91106e-10
0.000298383
6.3035e-10
0.000298383
-5.17225e-10
0.000298383
2.94755e-10
0.000298383
-1.30345e-10
0.000298383
-7.043e-11
0.000298383
2.90227e-10
0.000298383
-4.67246e-10
0.000298383
6.4676e-10
0.000298383
-7.76651e-10
0.000298383
9.54979e-10
0.000298383
-1.21237e-09
0.000298383
1.46192e-09
-1.78963e-09
0.000373965
-2.61706e-10
0.000373965
5.30146e-10
0.000373965
-4.26278e-10
0.000373966
4.78827e-10
0.000373965
-4.31851e-10
0.000373966
3.70039e-10
0.000373965
-3.47632e-10
0.000373966
2.73528e-10
0.000373965
-2.32206e-10
0.000373966
1.16042e-10
0.000373965
-4.58711e-11
0.000373965
-3.83454e-11
0.000373966
1.50272e-10
0.000373965
-2.25408e-10
0.000373966
3.08144e-10
0.000373965
-3.5579e-10
0.000373966
4.35909e-10
0.000373965
-5.58078e-10
0.000373966
6.52531e-10
-7.461e-10
0.000455877
0.000455878
0.000455878
0.000455878
0.000455878
0.000455878
0.000455878
0.000455878
0.000455878
0.000455878
0.000455878
0.000455878
0.000455878
0.000455878
0.000455878
0.000455878
0.000455878
0.000455878
0.000455878
)
;

boundaryField
{
    top
    {
        type            calculated;
        value           uniform 0;
    }
    bottom
    {
        type            calculated;
        value           uniform 0;
    }
    inlet
    {
        type            calculated;
        value           nonuniform List<scalar> 
20
(
1.91204e-05
5.10301e-05
7.66105e-05
9.58635e-05
0.000108791
0.000115395
0.000115677
0.000109638
9.72786e-05
7.85998e-05
5.36015e-05
2.22836e-05
-1.53543e-05
-5.93131e-05
-0.000109594
-0.000166198
-0.000229126
-0.000298382
-0.000373965
-0.000455878
)
;
    }
    outlet
    {
        type            calculated;
        value           nonuniform List<scalar> 
20
(
-1.91214e-05
-5.10318e-05
-7.66123e-05
-9.58654e-05
-0.000108793
-0.000115397
-0.000115678
-0.000109639
-9.72789e-05
-7.85995e-05
-5.36007e-05
-2.22824e-05
1.53559e-05
5.9315e-05
0.000109596
0.0001662
0.000229128
0.000298382
0.000373965
0.000455877
)
;
    }
    frontAndBack
    {
        type            empty;
        value           nonuniform 0();
    }
}


// ************************************************************************* //
