/*--------------------------------*- C++ -*----------------------------------*\
| =========                 |                                                 |
| \\      /  F ield         | OpenFOAM: The Open Source CFD Toolbox           |
|  \\    /   O peration     | Version:  4.1                                   |
|   \\  /    A nd           | Web:      www.OpenFOAM.org                      |
|    \\/     M anipulation  |                                                 |
\*---------------------------------------------------------------------------*/
FoamFile
{
    version     2.0;
    format      ascii;
    class       volVectorField;
    location    "0.3";
    object      U;
}
// * * * * * * * * * * * * * * * * * * * * * * * * * * * * * * * * * * * * * //

dimensions      [0 1 -1 0 0 0 0];

internalField   nonuniform List<vector> 
400
(
(-0.382414 2.63149e-07 0)
(-0.382415 -1.99701e-07 0)
(-0.382422 2.674e-07 0)
(-0.382415 -2.06779e-07 0)
(-0.382427 2.16814e-07 0)
(-0.382412 -1.90161e-07 0)
(-0.382431 1.61501e-07 0)
(-0.38241 -1.44262e-07 0)
(-0.382433 8.01943e-08 0)
(-0.382407 -5.89067e-08 0)
(-0.382434 3.51713e-09 0)
(-0.382407 4.59404e-08 0)
(-0.382434 -8.75453e-08 0)
(-0.382407 1.27213e-07 0)
(-0.382432 -1.56247e-07 0)
(-0.382409 2.06518e-07 0)
(-0.382429 -2.48163e-07 0)
(-0.382413 2.80299e-07 0)
(-0.382425 -2.89018e-07 0)
(-0.38242 3.47172e-07 0)
(-1.02061 9.52738e-07 0)
(-1.02061 -5.27965e-07 0)
(-1.02063 8.98047e-07 0)
(-1.02061 -6.12444e-07 0)
(-1.02065 7.0214e-07 0)
(-1.0206 -5.81929e-07 0)
(-1.02066 5.06483e-07 0)
(-1.02059 -4.35589e-07 0)
(-1.02066 2.4718e-07 0)
(-1.02059 -1.69645e-07 0)
(-1.02067 -3.96404e-09 0)
(-1.02058 1.51482e-07 0)
(-1.02067 -2.86033e-07 0)
(-1.02059 4.10616e-07 0)
(-1.02066 -5.12884e-07 0)
(-1.02059 6.54108e-07 0)
(-1.02065 -7.79775e-07 0)
(-1.0206 8.64315e-07 0)
(-1.02064 -8.91915e-07 0)
(-1.02062 1.08078e-06 0)
(-1.53222 1.84769e-06 0)
(-1.53222 -6.37427e-07 0)
(-1.53225 1.60809e-06 0)
(-1.53221 -8.9102e-07 0)
(-1.53228 1.17813e-06 0)
(-1.5322 -9.20923e-07 0)
(-1.53229 7.86334e-07 0)
(-1.53219 -6.96315e-07 0)
(-1.53231 3.64685e-07 0)
(-1.53217 -2.4279e-07 0)
(-1.53231 -3.77568e-08 0)
(-1.53217 2.73131e-07 0)
(-1.53231 -4.97004e-07 0)
(-1.53217 6.91897e-07 0)
(-1.5323 -8.68572e-07 0)
(-1.53219 1.08587e-06 0)
(-1.53229 -1.27816e-06 0)
(-1.5322 1.38971e-06 0)
(-1.53227 -1.3836e-06 0)
(-1.53223 1.69708e-06 0)
(-1.91728 2.7609e-06 0)
(-1.91728 -4.31094e-07 0)
(-1.91732 2.20259e-06 0)
(-1.91727 -9.39371e-07 0)
(-1.91736 1.49222e-06 0)
(-1.91725 -1.09044e-06 0)
(-1.91738 9.18263e-07 0)
(-1.91723 -8.24534e-07 0)
(-1.9174 3.91486e-07 0)
(-1.91721 -2.50734e-07 0)
(-1.9174 -1.00941e-07 0)
(-1.91721 3.81975e-07 0)
(-1.9174 -6.59211e-07 0)
(-1.91721 8.94529e-07 0)
(-1.91739 -1.1231e-06 0)
(-1.91723 1.37175e-06 0)
(-1.91737 -1.59123e-06 0)
(-1.91726 1.68127e-06 0)
(-1.91734 -1.60825e-06 0)
(-1.9173 1.95853e-06 0)
(-2.17583 3.62861e-06 0)
(-2.17583 2.69721e-08 0)
(-2.17589 2.64505e-06 0)
(-2.17582 -7.80377e-07 0)
(-2.17593 1.6264e-06 0)
(-2.17579 -1.10334e-06 0)
(-2.17595 8.9633e-07 0)
(-2.17576 -8.3811e-07 0)
(-2.17597 3.22781e-07 0)
(-2.17574 -2.03671e-07 0)
(-2.17598 -1.90471e-07 0)
(-2.17574 4.77112e-07 0)
(-2.17598 -7.7067e-07 0)
(-2.17575 1.01634e-06 0)
(-2.17597 -1.25861e-06 0)
(-2.17577 1.5129e-06 0)
(-2.17595 -1.72334e-06 0)
(-2.1758 1.75949e-06 0)
(-2.17591 -1.57535e-06 0)
(-2.17585 1.84562e-06 0)
(-2.30791 4.4057e-06 0)
(-2.30791 6.6176e-07 0)
(-2.30797 2.9264e-06 0)
(-2.30789 -4.599e-07 0)
(-2.30802 1.60126e-06 0)
(-2.30785 -9.80532e-07 0)
(-2.30805 7.49694e-07 0)
(-2.30782 -7.51088e-07 0)
(-2.30807 1.81267e-07 0)
(-2.3078 -1.12104e-07 0)
(-2.30809 -2.93435e-07 0)
(-2.3078 5.54499e-07 0)
(-2.30808 -8.32268e-07 0)
(-2.3078 1.0609e-06 0)
(-2.30807 -1.29003e-06 0)
(-2.30783 1.52374e-06 0)
(-2.30804 -1.69772e-06 0)
(-2.30787 1.65738e-06 0)
(-2.30799 -1.33899e-06 0)
(-2.30792 1.41353e-06 0)
(-2.31355 5.04428e-06 0)
(-2.31354 1.39832e-06 0)
(-2.31361 3.04253e-06 0)
(-2.31351 -2.38759e-08 0)
(-2.31366 1.43885e-06 0)
(-2.31347 -7.47879e-07 0)
(-2.3137 5.05753e-07 0)
(-2.31344 -5.83829e-07 0)
(-2.31372 -1.31587e-08 0)
(-2.31342 1.12878e-08 0)
(-2.31374 -4.0018e-07 0)
(-2.31341 6.10693e-07 0)
(-2.31373 -8.4634e-07 0)
(-2.31342 1.03451e-06 0)
(-2.31372 -1.22825e-06 0)
(-2.31345 1.42092e-06 0)
(-2.31368 -1.53828e-06 0)
(-2.31349 1.40903e-06 0)
(-2.31363 -9.4444e-07 0)
(-2.31355 7.31717e-07 0)
(-2.19277 5.49324e-06 0)
(-2.19275 2.1657e-06 0)
(-2.19283 2.9918e-06 0)
(-2.19271 4.83226e-07 0)
(-2.19288 1.1622e-06 0)
(-2.19267 -4.31152e-07 0)
(-2.19292 1.92619e-07 0)
(-2.19263 -3.55745e-07 0)
(-2.19295 -2.39904e-07 0)
(-2.19261 1.53504e-07 0)
(-2.19296 -5.00509e-07 0)
(-2.19261 6.41582e-07 0)
(-2.19296 -8.13968e-07 0)
(-2.19262 9.42856e-07 0)
(-2.19294 -1.08363e-06 0)
(-2.19265 1.21974e-06 0)
(-2.1929 -1.26703e-06 0)
(-2.19269 1.04407e-06 0)
(-2.19284 -4.32687e-07 0)
(-2.19276 -1.19816e-07 0)
(-1.94558 5.70992e-06 0)
(-1.94555 2.89566e-06 0)
(-1.94564 2.78114e-06 0)
(-1.94551 1.01562e-06 0)
(-1.94569 7.98817e-07 0)
(-1.94547 -5.93676e-08 0)
(-1.94573 -1.59432e-07 0)
(-1.94543 -8.81409e-08 0)
(-1.94576 -4.77621e-07 0)
(-1.94541 3.01006e-07 0)
(-1.94578 -5.85037e-07 0)
(-1.9454 6.44079e-07 0)
(-1.94577 -7.37839e-07 0)
(-1.94542 7.94186e-07 0)
(-1.94575 -8.69489e-07 0)
(-1.94545 9.3888e-07 0)
(-1.94571 -9.09134e-07 0)
(-1.9455 5.94165e-07 0)
(-1.94565 1.53427e-07 0)
(-1.94556 -1.05158e-06 0)
(-1.572 5.66643e-06 0)
(-1.57196 3.52576e-06 0)
(-1.57206 2.42718e-06 0)
(-1.57192 1.52814e-06 0)
(-1.57211 3.79916e-07 0)
(-1.57187 3.35987e-07 0)
(-1.57215 -5.19526e-07 0)
(-1.57183 1.96304e-07 0)
(-1.57218 -7.05448e-07 0)
(-1.57181 4.40559e-07 0)
(-1.57219 -6.45895e-07 0)
(-1.57181 6.16868e-07 0)
(-1.57219 -6.22972e-07 0)
(-1.57182 5.99736e-07 0)
(-1.57216 -6.02411e-07 0)
(-1.57186 6.00574e-07 0)
(-1.57212 -4.93094e-07 0)
(-1.57191 9.35617e-08 0)
(-1.57206 7.68785e-07 0)
(-1.57198 -1.97231e-06 0)
(-1.07204 5.35414e-06 0)
(-1.07199 4.0031e-06 0)
(-1.07208 1.95557e-06 0)
(-1.07194 1.97888e-06 0)
(-1.07213 -6.13808e-08 0)
(-1.07189 7.22789e-07 0)
(-1.07217 -8.58165e-07 0)
(-1.07185 4.74933e-07 0)
(-1.0722 -9.04368e-07 0)
(-1.07183 5.60324e-07 0)
(-1.07221 -6.7744e-07 0)
(-1.07183 5.60838e-07 0)
(-1.07221 -4.76892e-07 0)
(-1.07185 3.73444e-07 0)
(-1.07218 -3.01835e-07 0)
(-1.07188 2.29874e-07 0)
(-1.07214 -4.97389e-08 0)
(-1.07193 -4.21839e-07 0)
(-1.07208 1.36711e-06 0)
(-1.072 -2.79765e-06 0)
(-0.44568 4.78725e-06 0)
(-0.445622 4.28748e-06 0)
(-0.445719 1.40051e-06 0)
(-0.445567 2.33144e-06 0)
(-0.445762 -4.9148e-07 0)
(-0.445521 1.06993e-06 0)
(-0.445801 -1.14882e-06 0)
(-0.445488 7.26222e-07 0)
(-0.445829 -1.0583e-06 0)
(-0.44547 6.50627e-07 0)
(-0.445839 -6.76735e-07 0)
(-0.445469 4.79347e-07 0)
(-0.44583 -3.09673e-07 0)
(-0.445486 1.31693e-07 0)
(-0.445804 1.03993e-08 0)
(-0.445522 -1.46029e-07 0)
(-0.445762 3.88661e-07 0)
(-0.445572 -9.1511e-07 0)
(-0.445705 1.90239e-06 0)
(-0.445635 -3.45681e-06 0)
(0.307079 4.0049e-06 0)
(0.307144 4.35416e-06 0)
(0.307049 8.0406e-07 0)
(0.3072 2.55693e-06 0)
(0.307011 -8.77388e-07 0)
(0.307243 1.34882e-06 0)
(0.306975 -1.36909e-06 0)
(0.307273 9.30699e-07 0)
(0.30695 -1.15492e-06 0)
(0.307289 7.04479e-07 0)
(0.306941 -6.438e-07 0)
(0.307289 3.7829e-07 0)
(0.30695 -1.33807e-07 0)
(0.307271 -1.07048e-07 0)
(0.306976 3.10568e-07 0)
(0.307237 -4.98548e-07 0)
(0.307016 7.89222e-07 0)
(0.307189 -1.34907e-06 0)
(0.30707 2.33081e-06 0)
(0.307131 -3.89684e-06 0)
(1.18625 3.07109e-06 0)
(1.18632 4.19603e-06 0)
(1.18623 2.15093e-07 0)
(1.18638 2.63579e-06 0)
(1.1862 -1.18777e-06 0)
(1.18642 1.53513e-06 0)
(1.18617 -1.50158e-06 0)
(1.18644 1.07176e-06 0)
(1.18615 -1.18619e-06 0)
(1.18646 7.17865e-07 0)
(1.18614 -5.81609e-07 0)
(1.18646 2.65924e-07 0)
(1.18615 3.62092e-08 0)
(1.18644 -3.22878e-07 0)
(1.18617 5.73882e-07 0)
(1.18641 -7.98729e-07 0)
(1.18621 1.11955e-06 0)
(1.18636 -1.68759e-06 0)
(1.18626 2.61367e-06 0)
(1.18631 -4.08458e-06 0)
(2.19187 2.07166e-06 0)
(2.19194 3.82491e-06 0)
(2.19186 -3.12762e-07 0)
(2.19199 2.55914e-06 0)
(2.19183 -1.39421e-06 0)
(2.19203 1.61026e-06 0)
(2.1918 -1.53458e-06 0)
(2.19205 1.13635e-06 0)
(2.19178 -1.14873e-06 0)
(2.19206 6.89743e-07 0)
(2.19178 -4.95707e-07 0)
(2.19206 1.52449e-07 0)
(2.19179 1.84694e-07 0)
(2.19204 -4.95512e-07 0)
(2.19181 7.75743e-07 0)
(2.19201 -1.01876e-06 0)
(2.19184 1.34924e-06 0)
(2.19197 -1.89765e-06 0)
(2.19189 2.72059e-06 0)
(2.19193 -4.00674e-06 0)
(3.32395 1.10891e-06 0)
(3.32401 3.2696e-06 0)
(3.32394 -7.22987e-07 0)
(3.32406 2.3284e-06 0)
(3.32392 -1.47153e-06 0)
(3.32409 1.56193e-06 0)
(3.3239 -1.46151e-06 0)
(3.32411 1.11476e-06 0)
(3.32388 -1.04347e-06 0)
(3.32411 6.2156e-07 0)
(3.32388 -3.93678e-07 0)
(3.32411 4.9375e-08 0)
(3.32389 2.95487e-07 0)
(3.3241 -6.05167e-07 0)
(3.32391 8.92538e-07 0)
(3.32407 -1.13266e-06 0)
(3.32394 1.45056e-06 0)
(3.32404 -1.95042e-06 0)
(3.32397 2.63116e-06 0)
(3.324 -3.6665e-06 0)
(4.58252 2.98786e-07 0)
(4.58258 2.56762e-06 0)
(4.58252 -9.54083e-07 0)
(4.58262 1.94861e-06 0)
(4.5825 -1.39322e-06 0)
(4.58264 1.38121e-06 0)
(4.58249 -1.27568e-06 0)
(4.58265 9.97869e-07 0)
(4.58248 -8.72646e-07 0)
(4.58266 5.14674e-07 0)
(4.58247 -2.83808e-07 0)
(4.58266 -3.03268e-08 0)
(4.58248 3.51053e-07 0)
(4.58264 -6.30942e-07 0)
(4.5825 8.98539e-07 0)
(4.58262 -1.11354e-06 0)
(4.58252 1.39482e-06 0)
(4.5826 -1.8165e-06 0)
(4.58255 2.32771e-06 0)
(4.58257 -3.07346e-06 0)
(5.96762 -2.28587e-07 0)
(5.96767 1.75604e-06 0)
(5.96762 -9.48057e-07 0)
(5.9677 1.42811e-06 0)
(5.96761 -1.13921e-06 0)
(5.96771 1.05458e-06 0)
(5.9676 -9.78471e-07 0)
(5.96772 7.72905e-07 0)
(5.96759 -6.44732e-07 0)
(5.96772 3.72534e-07 0)
(5.96759 -1.75641e-07 0)
(5.96772 -7.1159e-08 0)
(5.9676 3.33654e-07 0)
(5.96771 -5.51658e-07 0)
(5.96761 7.70279e-07 0)
(5.9677 -9.29128e-07 0)
(5.96763 1.14818e-06 0)
(5.96768 -1.46717e-06 0)
(5.96765 1.80111e-06 0)
(5.96766 -2.24618e-06 0)
(7.47929 -3.66096e-07 0)
(7.47932 9.20302e-07 0)
(7.47929 -6.64647e-07 0)
(7.47933 8.0298e-07 0)
(7.47928 -6.98779e-07 0)
(7.47934 6.2029e-07 0)
(7.47927 -5.69585e-07 0)
(7.47935 4.5658e-07 0)
(7.47927 -3.72915e-07 0)
(7.47935 2.00941e-07 0)
(7.47927 -8.22225e-08 0)
(7.47935 -6.22162e-08 0)
(7.47927 2.31668e-07 0)
(7.47934 -3.59573e-07 0)
(7.47928 4.91894e-07 0)
(7.47933 -5.83145e-07 0)
(7.47929 7.14127e-07 0)
(7.47932 -9.01891e-07 0)
(7.4793 1.06477e-06 0)
(7.47931 -1.25583e-06 0)
(9.11755 -1.64656e-07 0)
(9.11756 2.52226e-07 0)
(9.11755 -2.30768e-07 0)
(9.11757 2.38279e-07 0)
(9.11755 -2.26492e-07 0)
(9.11757 1.84682e-07 0)
(9.11755 -1.76592e-07 0)
(9.11757 1.4034e-07 0)
(9.11754 -1.13306e-07 0)
(9.11757 5.83029e-08 0)
(9.11754 -2.04024e-08 0)
(9.11757 -2.35594e-08 0)
(9.11755 7.90884e-08 0)
(9.11757 -1.1868e-07 0)
(9.11755 1.62057e-07 0)
(9.11756 -1.84668e-07 0)
(9.11755 2.25744e-07 0)
(9.11756 -2.87561e-07 0)
(9.11756 3.3257e-07 0)
(9.11756 -3.70778e-07 0)
)
;

boundaryField
{
    top
    {
        type            fixedValue;
        value           uniform (10 0 0);
    }
    bottom
    {
        type            fixedValue;
        value           uniform (0 0 0);
    }
    inlet
    {
        type            zeroGradient;
    }
    outlet
    {
        type            zeroGradient;
    }
    frontAndBack
    {
        type            empty;
    }
}


// ************************************************************************* //
