/*--------------------------------*- C++ -*----------------------------------*\
| =========                 |                                                 |
| \\      /  F ield         | OpenFOAM: The Open Source CFD Toolbox           |
|  \\    /   O peration     | Version:  4.1                                   |
|   \\  /    A nd           | Web:      www.OpenFOAM.org                      |
|    \\/     M anipulation  |                                                 |
\*---------------------------------------------------------------------------*/
FoamFile
{
    version     2.0;
    format      ascii;
    class       surfaceScalarField;
    location    "2.6";
    object      phi;
}
// * * * * * * * * * * * * * * * * * * * * * * * * * * * * * * * * * * * * * //

dimensions      [0 3 -1 0 0 0 0];

internalField   nonuniform List<scalar> 
760
(
-1.91641e-05
1.38695e-13
-1.91641e-05
2.87625e-12
-1.91641e-05
3.67562e-12
-1.91641e-05
5.20724e-12
-1.91641e-05
6.50009e-12
-1.91641e-05
7.60872e-12
-1.91641e-05
8.33723e-12
-1.91641e-05
9.01276e-12
-1.91641e-05
9.28772e-12
-1.91641e-05
9.59934e-12
-1.91641e-05
9.23696e-12
-1.91641e-05
9.27789e-12
-1.91641e-05
8.39729e-12
-1.91641e-05
8.15998e-12
-1.91641e-05
6.81038e-12
-1.91641e-05
6.49396e-12
-1.91641e-05
4.9988e-12
-1.91641e-05
4.06403e-12
-1.91641e-05
2.386e-12
2.74822e-12
-5.11594e-05
9.49287e-13
-5.11594e-05
5.546e-12
-5.11594e-05
8.38586e-12
-5.11594e-05
9.50265e-12
-5.11594e-05
1.42484e-11
-5.11594e-05
1.38607e-11
-5.11594e-05
1.80682e-11
-5.11594e-05
1.64256e-11
-5.11594e-05
1.99592e-11
-5.11594e-05
1.75382e-11
-5.11594e-05
1.97064e-11
-5.11594e-05
1.70234e-11
-5.11594e-05
1.77359e-11
-5.11594e-05
1.50912e-11
-5.11594e-05
1.41775e-11
-5.11594e-05
1.21564e-11
-5.11594e-05
1.00963e-11
-5.11594e-05
7.84814e-12
-5.11594e-05
4.54731e-12
5.26474e-12
-7.68218e-05
2.77251e-12
-7.68218e-05
8.71543e-12
-7.68218e-05
1.49792e-11
-7.68218e-05
1.43789e-11
-7.68218e-05
2.45162e-11
-7.68218e-05
2.08057e-11
-7.68218e-05
3.07081e-11
-7.68218e-05
2.46176e-11
-7.68218e-05
3.36061e-11
-7.68218e-05
2.62859e-11
-7.68218e-05
3.29285e-11
-7.68218e-05
2.55619e-11
-7.68218e-05
2.93448e-11
-7.68218e-05
2.27745e-11
-7.68218e-05
2.31439e-11
-7.68218e-05
1.8464e-11
-7.68218e-05
1.60124e-11
-7.68218e-05
1.22383e-11
-7.68218e-05
6.7992e-12
7.94049e-12
-9.61515e-05
5.49659e-12
-9.61515e-05
1.2382e-11
-9.61515e-05
2.27749e-11
-9.61515e-05
1.99395e-11
-9.61515e-05
3.61248e-11
-9.61515e-05
2.84964e-11
-9.61515e-05
4.4738e-11
-9.61515e-05
3.35989e-11
-9.61515e-05
4.85383e-11
-9.61515e-05
3.5786e-11
-9.61515e-05
4.72336e-11
-9.61515e-05
3.4762e-11
-9.61515e-05
4.17408e-11
-9.61515e-05
3.09975e-11
-9.61515e-05
3.2561e-11
-9.61515e-05
2.51151e-11
-9.61515e-05
2.20103e-11
-9.61515e-05
1.69012e-11
-9.61515e-05
8.8586e-12
1.03984e-11
-0.000109148
8.58988e-12
-0.000109148
1.61736e-11
-0.000109148
3.07512e-11
-0.000109148
2.58391e-11
-0.000109148
4.77003e-11
-0.000109148
3.66154e-11
-0.000109148
5.85745e-11
-0.000109148
4.30933e-11
-0.000109148
6.31277e-11
-0.000109148
4.58172e-11
-0.000109148
6.11077e-11
-0.000109148
4.44554e-11
-0.000109148
5.3667e-11
-0.000109148
3.96347e-11
-0.000109148
4.15364e-11
-0.000109148
3.20192e-11
-0.000109148
2.76338e-11
-0.000109148
2.17447e-11
-0.000109148
1.06776e-11
1.27e-11
-0.000115812
1.16547e-11
-0.000115812
1.96173e-11
-0.000115812
3.79078e-11
-0.000115812
3.1396e-11
-0.000115812
5.77586e-11
-0.000115812
4.42842e-11
-0.000115812
7.04316e-11
-0.000115812
5.21146e-11
-0.000115812
7.5478e-11
-0.000115812
5.53703e-11
-0.000115812
7.27362e-11
-0.000115812
5.369e-11
-0.000115812
6.35543e-11
-0.000115812
4.7856e-11
-0.000115812
4.88856e-11
-0.000115812
3.85168e-11
-0.000115812
3.21458e-11
-0.000115812
2.63155e-11
-0.000115812
1.20343e-11
1.45956e-11
-0.000116144
1.44471e-11
-0.000116144
2.24364e-11
-0.000116144
4.36964e-11
-0.000116144
3.62085e-11
-0.000116144
6.55283e-11
-0.000116144
5.09785e-11
-0.000116144
7.93991e-11
-0.000116144
6.00625e-11
-0.000116144
8.46399e-11
-0.000116144
6.38235e-11
-0.000116144
8.12245e-11
-0.000116144
6.18741e-11
-0.000116144
7.06401e-11
-0.000116144
5.5142e-11
-0.000116144
5.40459e-11
-0.000116144
4.42006e-11
-0.000116144
3.52018e-11
-0.000116144
3.03269e-11
-0.000116144
1.2857e-11
1.59329e-11
-0.000110142
1.68582e-11
-0.000110142
2.45484e-11
-0.000110142
4.79142e-11
-0.000110142
4.0162e-11
-0.000110142
7.07746e-11
-0.000110142
5.6523e-11
-0.000110142
8.52254e-11
-0.000110142
6.67103e-11
-0.000110142
9.03773e-11
-0.000110142
7.09185e-11
-0.000110142
8.63738e-11
-0.000110142
6.87434e-11
-0.000110142
7.4777e-11
-0.000110142
6.12412e-11
-0.000110142
5.69366e-11
-0.000110142
4.88631e-11
-0.000110142
3.67678e-11
-0.000110142
3.36085e-11
-0.000110142
1.32038e-11
1.66173e-11
-9.78077e-05
1.88176e-11
-9.78077e-05
2.59289e-11
-9.78077e-05
5.04833e-11
-9.78077e-05
4.3157e-11
-9.78077e-05
7.34739e-11
-9.78077e-05
6.07389e-11
-9.78077e-05
8.79235e-11
-9.78077e-05
7.18109e-11
-9.78077e-05
9.27455e-11
-9.78077e-05
7.6366e-11
-9.78077e-05
8.82706e-11
-9.78077e-05
7.39986e-11
-9.78077e-05
7.60691e-11
-9.78077e-05
6.587e-11
-9.78077e-05
5.76684e-11
-9.78077e-05
5.22809e-11
-9.78077e-05
3.69282e-11
-9.78077e-05
3.59797e-11
-9.78077e-05
1.31616e-11
1.65986e-11
-7.91406e-05
2.02644e-11
-7.91406e-05
2.65849e-11
-7.91406e-05
5.13951e-11
-7.91406e-05
4.51056e-11
-7.91406e-05
7.37308e-11
-7.91406e-05
6.34571e-11
-7.91406e-05
8.76734e-11
-7.91406e-05
7.51234e-11
-7.91406e-05
9.19869e-11
-7.91406e-05
7.98816e-11
-7.91406e-05
8.71872e-11
-7.91406e-05
7.73469e-11
-7.91406e-05
7.47885e-11
-7.91406e-05
6.87528e-11
-7.91406e-05
5.64813e-11
-7.91406e-05
5.42474e-11
-7.91406e-05
3.58561e-11
-7.91406e-05
3.72747e-11
-7.91406e-05
1.2835e-11
1.5883e-11
-5.41406e-05
2.11296e-11
-5.41406e-05
2.65293e-11
-5.41406e-05
5.0675e-11
-5.41406e-05
4.58986e-11
-5.41406e-05
7.17107e-11
-5.41406e-05
6.44854e-11
-5.41406e-05
8.47339e-11
-5.41406e-05
7.63855e-11
-5.41406e-05
8.84312e-11
-5.41406e-05
8.11654e-11
-5.41406e-05
8.34802e-11
-5.41406e-05
7.84877e-11
-5.41406e-05
7.12816e-11
-5.41406e-05
6.96165e-11
-5.41406e-05
5.36671e-11
-5.41406e-05
5.45709e-11
-5.41406e-05
3.3762e-11
-5.41406e-05
3.73489e-11
-5.41406e-05
1.2313e-11
1.45341e-11
-2.28077e-05
2.13371e-11
-2.28077e-05
2.57722e-11
-2.28077e-05
4.83791e-11
-2.28077e-05
4.5407e-11
-2.28077e-05
6.76131e-11
-2.28077e-05
6.36219e-11
-2.28077e-05
7.94024e-11
-2.28077e-05
7.53349e-11
-2.28077e-05
8.24441e-11
-2.28077e-05
7.99304e-11
-2.28077e-05
7.75352e-11
-2.28077e-05
7.71436e-11
-2.28077e-05
6.59155e-11
-2.28077e-05
6.82207e-11
-2.28077e-05
4.95221e-11
-2.28077e-05
5.30966e-11
-2.28077e-05
3.0861e-11
-2.28077e-05
3.61007e-11
-2.28077e-05
1.16474e-11
1.26628e-11
1.48579e-05
2.08156e-11
1.48579e-05
2.43187e-11
1.48579e-05
4.46024e-11
1.48579e-05
4.35009e-11
1.48579e-05
6.16616e-11
1.48579e-05
6.06833e-11
1.48579e-05
7.19934e-11
1.48579e-05
7.17473e-11
1.48579e-05
7.43965e-11
1.48579e-05
7.59441e-11
1.48579e-05
6.97305e-11
1.48579e-05
7.31018e-11
1.48579e-05
5.9041e-11
1.48579e-05
6.43959e-11
1.48579e-05
4.43143e-11
1.48579e-05
4.97326e-11
1.48579e-05
2.73467e-11
1.48579e-05
3.34936e-11
1.48579e-05
1.08403e-11
1.04137e-11
5.88563e-05
1.95237e-11
5.88563e-05
2.21839e-11
5.88563e-05
3.95049e-11
5.88563e-05
4.00953e-11
5.88563e-05
5.41263e-11
5.88563e-05
5.55704e-11
5.88563e-05
6.28572e-11
5.88563e-05
6.55132e-11
5.88563e-05
6.4678e-11
5.88563e-05
6.91095e-11
5.88563e-05
6.04468e-11
5.88563e-05
6.62894e-11
5.88563e-05
5.09966e-11
5.88563e-05
5.81076e-11
5.88563e-05
3.82857e-11
5.88563e-05
4.44941e-11
5.88563e-05
2.33892e-11
5.88563e-05
2.95845e-11
5.88563e-05
9.85279e-12
7.95298e-12
0.000109188
1.74624e-11
0.000109188
1.93785e-11
0.000109188
3.3292e-11
0.000109188
3.51534e-11
0.000109188
4.52818e-11
0.000109188
4.82778e-11
0.000109188
5.23228e-11
0.000109188
5.66566e-11
0.000109188
5.36302e-11
0.000109188
5.94878e-11
0.000109188
4.99987e-11
0.000109188
5.67988e-11
0.000109188
4.20447e-11
0.000109188
4.94796e-11
0.000109188
3.16039e-11
0.000109188
3.75181e-11
0.000109188
1.90975e-11
0.000109188
2.45331e-11
0.000109188
8.6086e-12
5.44743e-12
0.000165852
1.47259e-11
0.000165852
1.60195e-11
0.000165852
2.63742e-11
0.000165852
2.8926e-11
0.000165852
3.56738e-11
0.000165852
3.92236e-11
0.000165852
4.10335e-11
0.000165852
4.57161e-11
0.000165852
4.1918e-11
0.000165852
4.76919e-11
0.000165852
3.90053e-11
0.000165852
4.52566e-11
0.000165852
3.27083e-11
0.000165852
3.91074e-11
0.000165852
2.46402e-11
0.000165852
2.93017e-11
0.000165852
1.4714e-11
0.000165852
1.87412e-11
0.000165852
7.11363e-12
3.11426e-12
0.000228848
1.15928e-11
0.000228848
1.23833e-11
0.000228848
1.94226e-11
0.000228848
2.20576e-11
0.000228848
2.61946e-11
0.000228848
2.93834e-11
0.000228848
3.00288e-11
0.000228848
3.38957e-11
0.000228848
3.06092e-11
0.000228848
3.50367e-11
0.000228848
2.84621e-11
0.000228848
3.29597e-11
0.000228848
2.38267e-11
0.000228848
2.81671e-11
0.000228848
1.80168e-11
0.000228848
2.07731e-11
0.000228848
1.06361e-11
0.000228848
1.28832e-11
0.000228848
5.5031e-12
1.19099e-12
0.000298178
7.82492e-12
0.000298178
8.28968e-12
0.000298178
1.24709e-11
0.000298178
1.45796e-11
0.000298178
1.68978e-11
0.000298178
1.9068e-11
0.000298178
1.93922e-11
0.000298178
2.17472e-11
0.000298178
1.97981e-11
0.000298178
2.22514e-11
0.000298178
1.846e-11
0.000298178
2.07316e-11
0.000298178
1.54886e-11
0.000298178
1.74996e-11
0.000298178
1.18038e-11
0.000298178
1.26881e-11
0.000298178
6.95327e-12
0.000298178
7.59493e-12
0.000298178
3.82814e-12
5.22244e-14
0.000373841
4.07558e-12
0.000373841
4.36179e-12
0.000373841
6.4093e-12
0.000373841
7.63104e-12
0.000373841
8.8874e-12
0.000373841
9.79657e-12
0.000373841
1.03334e-11
0.000373841
1.10267e-11
0.000373841
1.06701e-11
0.000373841
1.11502e-11
0.000373841
1.00641e-11
0.000373841
1.02717e-11
0.000373841
8.55119e-12
0.000373841
8.55086e-12
0.000373841
6.62913e-12
0.000373841
6.08821e-12
0.000373841
4.00353e-12
0.000373841
3.51673e-12
0.000373841
2.28859e-12
-2.55975e-13
0.000455836
0.000455836
0.000455836
0.000455836
0.000455836
0.000455836
0.000455836
0.000455836
0.000455836
0.000455836
0.000455836
0.000455836
0.000455836
0.000455836
0.000455836
0.000455836
0.000455836
0.000455836
0.000455836
)
;

boundaryField
{
    top
    {
        type            calculated;
        value           uniform 0;
    }
    bottom
    {
        type            calculated;
        value           uniform 0;
    }
    inlet
    {
        type            calculated;
        value           nonuniform List<scalar> 
20
(
1.91641e-05
5.11594e-05
7.68218e-05
9.61515e-05
0.000109148
0.000115812
0.000116144
0.000110142
9.78077e-05
7.91406e-05
5.41406e-05
2.28077e-05
-1.48579e-05
-5.88563e-05
-0.000109188
-0.000165852
-0.000228848
-0.000298178
-0.000373841
-0.000455836
)
;
    }
    outlet
    {
        type            calculated;
        value           nonuniform List<scalar> 
20
(
-1.91641e-05
-5.11594e-05
-7.68218e-05
-9.61515e-05
-0.000109148
-0.000115812
-0.000116144
-0.000110142
-9.78077e-05
-7.91406e-05
-5.41406e-05
-2.28077e-05
1.48579e-05
5.88563e-05
0.000109188
0.000165852
0.000228848
0.000298178
0.000373841
0.000455836
)
;
    }
    frontAndBack
    {
        type            empty;
        value           nonuniform 0();
    }
}


// ************************************************************************* //
