/*--------------------------------*- C++ -*----------------------------------*\
| =========                 |                                                 |
| \\      /  F ield         | OpenFOAM: The Open Source CFD Toolbox           |
|  \\    /   O peration     | Version:  4.1                                   |
|   \\  /    A nd           | Web:      www.OpenFOAM.org                      |
|    \\/     M anipulation  |                                                 |
\*---------------------------------------------------------------------------*/
FoamFile
{
    version     2.0;
    format      ascii;
    class       volVectorField;
    location    "2.6";
    object      U;
}
// * * * * * * * * * * * * * * * * * * * * * * * * * * * * * * * * * * * * * //

dimensions      [0 1 -1 0 0 0 0];

internalField   nonuniform List<vector> 
400
(
(-0.383281 8.27807e-12 0)
(-0.383281 1.29412e-09 0)
(-0.383281 1.55358e-09 0)
(-0.383281 2.34252e-09 0)
(-0.383281 2.77156e-09 0)
(-0.383281 3.41149e-09 0)
(-0.383281 3.56183e-09 0)
(-0.383281 4.03105e-09 0)
(-0.383281 3.97488e-09 0)
(-0.383281 4.28533e-09 0)
(-0.383281 3.95781e-09 0)
(-0.383281 4.13317e-09 0)
(-0.383281 3.60533e-09 0)
(-0.383281 3.62459e-09 0)
(-0.383281 2.92893e-09 0)
(-0.383281 2.87302e-09 0)
(-0.383281 2.16357e-09 0)
(-0.383281 1.7717e-09 0)
(-0.383281 1.03448e-09 0)
(-0.383281 1.18124e-09 0)
(-1.02319 6.16957e-10 0)
(-1.02319 4.47193e-09 0)
(-1.02319 6.47366e-09 0)
(-1.02319 7.90723e-09 0)
(-1.02319 1.10836e-08 0)
(-1.02319 1.14923e-08 0)
(-1.02319 1.40805e-08 0)
(-1.02319 1.35908e-08 0)
(-1.02319 1.55744e-08 0)
(-1.02319 1.44715e-08 0)
(-1.02319 1.53994e-08 0)
(-1.02319 1.40034e-08 0)
(-1.02319 1.38904e-08 0)
(-1.02319 1.2359e-08 0)
(-1.02319 1.1143e-08 0)
(-1.02319 9.88964e-09 0)
(-1.02319 7.98651e-09 0)
(-1.02319 6.3037e-09 0)
(-1.02319 3.65292e-09 0)
(-1.02319 4.1492e-09 0)
(-1.53644 1.82102e-09 0)
(-1.53644 7.19358e-09 0)
(-1.53644 1.17589e-08 0)
(-1.53644 1.20983e-08 0)
(-1.53644 1.95136e-08 0)
(-1.53644 1.75613e-08 0)
(-1.53644 2.45552e-08 0)
(-1.53644 2.07872e-08 0)
(-1.53644 2.69671e-08 0)
(-1.53644 2.21909e-08 0)
(-1.53644 2.64998e-08 0)
(-1.53644 2.15577e-08 0)
(-1.53644 2.37075e-08 0)
(-1.53644 1.91602e-08 0)
(-1.53644 1.87965e-08 0)
(-1.53644 1.54855e-08 0)
(-1.53644 1.31557e-08 0)
(-1.53644 1.01436e-08 0)
(-1.53644 5.7136e-09 0)
(-1.53644 6.66632e-09 0)
(-1.92303 4.12364e-09 0)
(-1.92303 1.05344e-08 0)
(-1.92303 1.88474e-08 0)
(-1.92303 1.71529e-08 0)
(-1.92303 3.02543e-08 0)
(-1.92303 2.4628e-08 0)
(-1.92303 3.76313e-08 0)
(-1.92303 2.90713e-08 0)
(-1.92303 4.09655e-08 0)
(-1.92303 3.0987e-08 0)
(-1.92303 3.99722e-08 0)
(-1.92303 3.01053e-08 0)
(-1.92303 3.54456e-08 0)
(-1.92303 2.68259e-08 0)
(-1.92303 2.77745e-08 0)
(-1.92303 2.17298e-08 0)
(-1.92303 1.89532e-08 0)
(-1.92303 1.45222e-08 0)
(-1.92303 7.79598e-09 0)
(-1.92303 9.10944e-09 0)
(-2.18297 7.0238e-09 0)
(-2.18297 1.42422e-08 0)
(-2.18297 2.67246e-08 0)
(-2.18297 2.28412e-08 0)
(-2.18297 4.18521e-08 0)
(-2.18297 3.24926e-08 0)
(-2.18297 5.15819e-08 0)
(-2.18297 3.8273e-08 0)
(-2.18297 5.57529e-08 0)
(-2.18297 4.07261e-08 0)
(-2.18297 5.40922e-08 0)
(-2.18297 3.95373e-08 0)
(-2.18297 4.76363e-08 0)
(-2.18297 3.52545e-08 0)
(-2.18297 3.69959e-08 0)
(-2.18297 2.85195e-08 0)
(-2.18297 2.47874e-08 0)
(-2.18297 1.92931e-08 0)
(-2.18297 9.74752e-09 0)
(-2.18297 1.15254e-08 0)
(-2.31625 1.01097e-08 0)
(-2.31625 1.78728e-08 0)
(-2.31625 3.42825e-08 0)
(-2.31625 2.85631e-08 0)
(-2.31625 5.26555e-08 0)
(-2.31625 4.03808e-08 0)
(-2.31625 6.44145e-08 0)
(-2.31625 4.75273e-08 0)
(-2.31625 6.92101e-08 0)
(-2.31625 5.05171e-08 0)
(-2.31625 6.68338e-08 0)
(-2.31625 4.90023e-08 0)
(-2.31625 5.85352e-08 0)
(-2.31625 4.36867e-08 0)
(-2.31625 4.51539e-08 0)
(-2.31625 3.52242e-08 0)
(-2.31625 2.98558e-08 0)
(-2.31625 2.40036e-08 0)
(-2.31625 1.13414e-08 0)
(-2.31625 1.36307e-08 0)
(-2.32287 1.30447e-08 0)
(-2.32287 2.10074e-08 0)
(-2.32287 4.07449e-08 0)
(-2.32287 3.37306e-08 0)
(-2.32287 6.15539e-08 0)
(-2.32287 4.75407e-08 0)
(-2.32287 7.48088e-08 0)
(-2.32287 5.59893e-08 0)
(-2.32287 7.99481e-08 0)
(-2.32287 5.94989e-08 0)
(-2.32287 7.68754e-08 0)
(-2.32287 5.76935e-08 0)
(-2.32287 6.70073e-08 0)
(-2.32287 5.14266e-08 0)
(-2.32287 5.13978e-08 0)
(-2.32287 4.13065e-08 0)
(-2.32287 3.36338e-08 0)
(-2.32287 2.82906e-08 0)
(-2.32287 1.2432e-08 0)
(-2.32287 1.52527e-08 0)
(-2.20284 1.56566e-08 0)
(-2.20284 2.34815e-08 0)
(-2.20284 4.57516e-08 0)
(-2.20284 3.8118e-08 0)
(-2.20284 6.80678e-08 0)
(-2.20284 5.36666e-08 0)
(-2.20284 8.2214e-08 0)
(-2.20284 6.3296e-08 0)
(-2.20284 8.74079e-08 0)
(-2.20284 6.72833e-08 0)
(-2.20284 8.37052e-08 0)
(-2.20284 6.52309e-08 0)
(-2.20284 7.26295e-08 0)
(-2.20284 5.81294e-08 0)
(-2.20284 5.54329e-08 0)
(-2.20284 4.64882e-08 0)
(-2.20284 3.59523e-08 0)
(-2.20284 3.19427e-08 0)
(-2.20284 1.30252e-08 0)
(-2.20284 1.627e-08 0)
(-1.95615 1.78488e-08 0)
(-1.95615 2.52335e-08 0)
(-1.95615 4.9146e-08 0)
(-1.95615 4.15905e-08 0)
(-1.95615 7.20409e-08 0)
(-1.95615 5.8544e-08 0)
(-1.95615 8.64767e-08 0)
(-1.95615 6.91675e-08 0)
(-1.95615 9.14615e-08 0)
(-1.95615 7.35521e-08 0)
(-1.95615 8.72292e-08 0)
(-1.95615 7.12913e-08 0)
(-1.95615 7.5345e-08 0)
(-1.95615 6.34923e-08 0)
(-1.95615 5.72452e-08 0)
(-1.95615 5.05281e-08 0)
(-1.95615 3.68165e-08 0)
(-1.95615 3.47688e-08 0)
(-1.95615 1.31815e-08 0)
(-1.95615 1.66043e-08 0)
(-1.58281 1.95568e-08 0)
(-1.58281 2.62574e-08 0)
(-1.58281 5.08891e-08 0)
(-1.58281 4.4063e-08 0)
(-1.58281 7.35203e-08 0)
(-1.58281 6.20105e-08 0)
(-1.58281 8.77016e-08 0)
(-1.58281 7.33727e-08 0)
(-1.58281 9.22669e-08 0)
(-1.58281 7.80319e-08 0)
(-1.58281 8.76361e-08 0)
(-1.58281 7.55911e-08 0)
(-1.58281 7.53506e-08 0)
(-1.58281 6.72461e-08 0)
(-1.58281 5.7017e-08 0)
(-1.58281 5.32188e-08 0)
(-1.58281 3.63599e-08 0)
(-1.58281 3.65999e-08 0)
(-1.58281 1.29991e-08 0)
(-1.58281 1.62415e-08 0)
(-1.08281 2.07154e-08 0)
(-1.08281 2.6563e-08 0)
(-1.08281 5.09897e-08 0)
(-1.08281 4.5437e-08 0)
(-1.08281 7.2642e-08 0)
(-1.08281 6.38855e-08 0)
(-1.08281 8.61093e-08 0)
(-1.08281 7.56606e-08 0)
(-1.08281 9.01114e-08 0)
(-1.08281 8.0431e-08 0)
(-1.08281 8.52415e-08 0)
(-1.08281 7.78343e-08 0)
(-1.08281 7.29563e-08 0)
(-1.08281 6.91173e-08 0)
(-1.08281 5.5015e-08 0)
(-1.08281 5.43615e-08 0)
(-1.08281 3.47748e-08 0)
(-1.08281 3.72814e-08 0)
(-1.08281 1.25745e-08 0)
(-1.08281 1.5216e-08 0)
(-0.456155 2.12512e-08 0)
(-0.456155 2.61607e-08 0)
(-0.456155 4.94883e-08 0)
(-0.456155 4.55929e-08 0)
(-0.456155 6.95889e-08 0)
(-0.456155 6.39718e-08 0)
(-0.456155 8.19787e-08 0)
(-0.456155 7.57684e-08 0)
(-0.456155 8.53436e-08 0)
(-0.456155 8.04558e-08 0)
(-0.456155 8.04176e-08 0)
(-0.456155 7.77314e-08 0)
(-0.456155 6.85202e-08 0)
(-0.456155 6.88487e-08 0)
(-0.456155 5.15342e-08 0)
(-0.456155 5.37829e-08 0)
(-0.456155 3.22747e-08 0)
(-0.456155 3.66903e-08 0)
(-0.456155 1.19778e-08 0)
(-0.456155 1.36076e-08 0)
(0.297157 2.10898e-08 0)
(0.297157 2.50569e-08 0)
(0.297157 4.64591e-08 0)
(0.297157 4.44008e-08 0)
(0.297157 6.45716e-08 0)
(0.297157 6.20761e-08 0)
(0.297157 7.56152e-08 0)
(0.297158 7.34525e-08 0)
(0.297157 7.83316e-08 0)
(0.297158 7.7846e-08 0)
(0.297158 7.35463e-08 0)
(0.297158 7.50373e-08 0)
(0.297158 6.24015e-08 0)
(0.297158 6.62356e-08 0)
(0.297158 4.68572e-08 0)
(0.297158 5.13599e-08 0)
(0.297158 2.90645e-08 0)
(0.297158 3.47584e-08 0)
(0.297158 1.12364e-08 0)
(0.297158 1.15448e-08 0)
(1.17713 2.01719e-08 0)
(1.17713 2.3256e-08 0)
(1.17713 4.20217e-08 0)
(1.17713 4.17447e-08 0)
(1.17713 5.7826e-08 0)
(1.17713 5.80464e-08 0)
(1.17713 6.73379e-08 0)
(1.17713 6.85339e-08 0)
(1.17713 6.94412e-08 0)
(1.17713 7.2425e-08 0)
(1.17713 6.49932e-08 0)
(1.17713 6.95978e-08 0)
(1.17713 5.49324e-08 0)
(1.17713 6.11667e-08 0)
(1.17713 4.12294e-08 0)
(1.17713 4.70474e-08 0)
(1.17713 2.53197e-08 0)
(1.17713 3.14925e-08 0)
(1.17713 1.03292e-08 0)
(1.17713 9.1832e-09 0)
(2.18375 1.84829e-08 0)
(2.18375 2.07841e-08 0)
(2.18375 3.63789e-08 0)
(2.18375 3.75904e-08 0)
(2.18375 4.96574e-08 0)
(2.18375 5.18667e-08 0)
(2.18375 5.75282e-08 0)
(2.18375 6.10118e-08 0)
(2.18375 5.90844e-08 0)
(2.18375 6.42181e-08 0)
(2.18375 5.51522e-08 0)
(2.18375 6.14639e-08 0)
(2.18375 4.64552e-08 0)
(2.18375 5.37213e-08 0)
(2.18375 3.48897e-08 0)
(2.18375 4.09476e-08 0)
(2.18375 2.12032e-08 0)
(2.18375 2.70167e-08 0)
(2.18375 9.2105e-09 0)
(2.18375 6.69522e-09 0)
(3.31703 1.60662e-08 0)
(3.31703 1.76873e-08 0)
(3.31703 2.9808e-08 0)
(3.31703 3.20087e-08 0)
(3.31703 4.04295e-08 0)
(3.31703 4.3695e-08 0)
(3.31703 4.66152e-08 0)
(3.31703 5.11132e-08 0)
(3.31703 4.77028e-08 0)
(3.31703 5.35072e-08 0)
(3.31703 4.44297e-08 0)
(3.31703 5.09438e-08 0)
(3.31703 3.73093e-08 0)
(3.31703 4.4216e-08 0)
(3.31703 2.80653e-08 0)
(3.31703 3.33457e-08 0)
(3.31703 1.68629e-08 0)
(3.31703 2.15927e-08 0)
(3.31703 7.83418e-09 0)
(3.31703 4.26541e-09 0)
(4.57697 1.30598e-08 0)
(4.57697 1.41354e-08 0)
(4.57697 2.28195e-08 0)
(4.57697 2.54118e-08 0)
(4.57697 3.08362e-08 0)
(4.57697 3.41968e-08 0)
(4.57697 3.54225e-08 0)
(4.57697 3.9682e-08 0)
(4.57697 3.61546e-08 0)
(4.57697 4.1236e-08 0)
(4.57697 3.36339e-08 0)
(4.57697 3.89893e-08 0)
(4.57697 2.81864e-08 0)
(4.57697 3.35347e-08 0)
(4.57697 2.12677e-08 0)
(4.57697 2.49614e-08 0)
(4.57697 1.26397e-08 0)
(4.57697 1.57704e-08 0)
(4.57697 6.2818e-09 0)
(4.57697 2.15055e-09 0)
(5.96356 9.80774e-09 0)
(5.96356 1.0418e-08 0)
(5.96356 1.6104e-08 0)
(5.96356 1.85133e-08 0)
(5.96356 2.1776e-08 0)
(5.96356 2.44548e-08 0)
(5.96356 2.49786e-08 0)
(5.96356 2.80635e-08 0)
(5.96356 2.54793e-08 0)
(5.96356 2.88751e-08 0)
(5.96356 2.37203e-08 0)
(5.96356 2.70485e-08 0)
(5.96356 1.98749e-08 0)
(5.96356 2.29904e-08 0)
(5.96356 1.50769e-08 0)
(5.96356 1.68268e-08 0)
(5.96356 8.88577e-09 0)
(5.96356 1.02881e-08 0)
(5.96356 4.70441e-09 0)
(5.96356 5.69998e-10 0)
(7.47681 6.11682e-09 0)
(7.47681 6.54801e-09 0)
(7.47681 9.89852e-09 0)
(7.47681 1.16764e-08 0)
(7.47681 1.36193e-08 0)
(7.47681 1.52332e-08 0)
(7.47681 1.57535e-08 0)
(7.47681 1.73274e-08 0)
(7.47681 1.61894e-08 0)
(7.47681 1.76836e-08 0)
(7.47681 1.51894e-08 0)
(7.47681 1.64376e-08 0)
(7.47681 1.28275e-08 0)
(7.47681 1.3834e-08 0)
(7.47681 9.85682e-09 0)
(7.47681 1.00062e-08 0)
(7.47681 5.89349e-09 0)
(7.47681 5.94324e-09 0)
(7.47681 3.27562e-09 0)
(7.47681 -4.21197e-11 0)
(9.11672 1.76776e-09 0)
(9.11672 1.88067e-09 0)
(9.11672 2.77844e-09 0)
(9.11672 3.32415e-09 0)
(9.11672 3.87263e-09 0)
(9.11672 4.25186e-09 0)
(9.11672 4.51655e-09 0)
(9.11672 4.77505e-09 0)
(9.11672 4.67357e-09 0)
(9.11672 4.81885e-09 0)
(9.11672 4.41636e-09 0)
(9.11672 4.42967e-09 0)
(9.11672 3.75085e-09 0)
(9.11672 3.67994e-09 0)
(9.11672 2.9126e-09 0)
(9.11672 2.60688e-09 0)
(9.11672 1.75773e-09 0)
(9.11672 1.49609e-09 0)
(9.11672 1.01533e-09 0)
(9.11672 -1.65641e-10 0)
)
;

boundaryField
{
    top
    {
        type            fixedValue;
        value           uniform (10 0 0);
    }
    bottom
    {
        type            fixedValue;
        value           uniform (0 0 0);
    }
    inlet
    {
        type            zeroGradient;
    }
    outlet
    {
        type            zeroGradient;
    }
    frontAndBack
    {
        type            empty;
    }
}


// ************************************************************************* //
