/*--------------------------------*- C++ -*----------------------------------*\
| =========                 |                                                 |
| \\      /  F ield         | OpenFOAM: The Open Source CFD Toolbox           |
|  \\    /   O peration     | Version:  4.1                                   |
|   \\  /    A nd           | Web:      www.OpenFOAM.org                      |
|    \\/     M anipulation  |                                                 |
\*---------------------------------------------------------------------------*/
FoamFile
{
    version     2.0;
    format      ascii;
    class       volScalarField;
    location    "3.9";
    object      p;
}
// * * * * * * * * * * * * * * * * * * * * * * * * * * * * * * * * * * * * * //

dimensions      [0 2 -2 0 0 0 0];

internalField   nonuniform List<scalar> 
400
(
1.17725e-11
1.31403e-11
1.12093e-11
1.19882e-11
1.0563e-11
1.09739e-11
9.89604e-12
1.00154e-11
9.19694e-12
9.08092e-12
8.47521e-12
8.17102e-12
7.74972e-12
7.27773e-12
7.01564e-12
6.3727e-12
6.27638e-12
5.47904e-12
5.60887e-12
5.288e-12
1.173e-11
1.30968e-11
1.1206e-11
1.19874e-11
1.0563e-11
1.09737e-11
9.89616e-12
1.00153e-11
9.19698e-12
9.08088e-12
8.47526e-12
8.17104e-12
7.7497e-12
7.27773e-12
7.01557e-12
6.37271e-12
6.2759e-12
5.47935e-12
5.57982e-12
5.25727e-12
1.17058e-11
1.30656e-11
1.1202e-11
1.19873e-11
1.05625e-11
1.0974e-11
9.89588e-12
1.00155e-11
9.19678e-12
9.081e-12
8.4752e-12
8.17109e-12
7.74969e-12
7.27767e-12
7.01564e-12
6.37255e-12
6.27569e-12
5.47903e-12
5.55683e-12
5.23599e-12
1.16981e-11
1.3051e-11
1.11982e-11
1.19875e-11
1.05619e-11
1.09744e-11
9.89556e-12
1.00158e-11
9.19655e-12
9.08113e-12
8.47513e-12
8.17113e-12
7.74969e-12
7.27762e-12
7.01574e-12
6.37236e-12
6.27561e-12
5.47821e-12
5.54364e-12
5.22512e-12
1.17005e-11
1.3048e-11
1.11946e-11
1.19876e-11
1.05614e-11
1.09747e-11
9.89532e-12
1.0016e-11
9.19638e-12
9.08122e-12
8.47506e-12
8.17117e-12
7.7497e-12
7.27759e-12
7.01582e-12
6.37221e-12
6.27556e-12
5.47717e-12
5.53812e-12
5.22136e-12
1.17095e-11
1.30526e-11
1.1191e-11
1.19877e-11
1.05609e-11
1.09749e-11
9.89513e-12
1.00162e-11
9.19623e-12
9.08129e-12
8.475e-12
8.17122e-12
7.7497e-12
7.27758e-12
7.01589e-12
6.37208e-12
6.27555e-12
5.476e-12
5.53869e-12
5.22312e-12
1.17231e-11
1.30626e-11
1.11873e-11
1.19877e-11
1.05606e-11
1.09751e-11
9.89498e-12
1.00164e-11
9.19611e-12
9.08135e-12
8.47493e-12
8.17127e-12
7.7497e-12
7.2776e-12
7.01595e-12
6.37195e-12
6.27558e-12
5.47481e-12
5.54438e-12
5.22947e-12
1.17391e-11
1.30756e-11
1.11836e-11
1.19877e-11
1.05603e-11
1.09751e-11
9.8949e-12
1.00165e-11
9.196e-12
9.0814e-12
8.47488e-12
8.17129e-12
7.74968e-12
7.27765e-12
7.01603e-12
6.37183e-12
6.27562e-12
5.47368e-12
5.55398e-12
5.23916e-12
1.17552e-11
1.30893e-11
1.11798e-11
1.19876e-11
1.056e-11
1.09751e-11
9.89488e-12
1.00165e-11
9.19591e-12
9.08143e-12
8.47481e-12
8.17133e-12
7.74964e-12
7.27774e-12
7.01607e-12
6.37171e-12
6.27567e-12
5.47268e-12
5.56602e-12
5.25067e-12
1.17695e-11
1.31015e-11
1.11758e-11
1.19873e-11
1.05598e-11
1.09751e-11
9.89488e-12
1.00166e-11
9.19588e-12
9.08141e-12
8.47471e-12
8.17138e-12
7.74962e-12
7.27784e-12
7.01611e-12
6.37167e-12
6.27567e-12
5.47191e-12
5.57889e-12
5.26244e-12
1.17801e-11
1.31105e-11
1.11718e-11
1.1987e-11
1.05597e-11
1.0975e-11
9.89494e-12
1.00166e-11
9.19584e-12
9.08138e-12
8.47462e-12
8.17142e-12
7.74959e-12
7.27791e-12
7.01616e-12
6.37165e-12
6.27565e-12
5.47137e-12
5.59106e-12
5.27298e-12
1.17857e-11
1.31148e-11
1.11678e-11
1.19865e-11
1.05596e-11
1.09749e-11
9.89504e-12
1.00166e-11
9.19583e-12
9.08128e-12
8.47455e-12
8.17146e-12
7.74953e-12
7.278e-12
7.01619e-12
6.37165e-12
6.27555e-12
5.47113e-12
5.60109e-12
5.28093e-12
1.17854e-11
1.31136e-11
1.11639e-11
1.19859e-11
1.05596e-11
1.09746e-11
9.89516e-12
1.00165e-11
9.1959e-12
9.08111e-12
8.47452e-12
8.17152e-12
7.7495e-12
7.27808e-12
7.0162e-12
6.37171e-12
6.27536e-12
5.4711e-12
5.60779e-12
5.28514e-12
1.1779e-11
1.31067e-11
1.11603e-11
1.19851e-11
1.05597e-11
1.09744e-11
9.8953e-12
1.00164e-11
9.19601e-12
9.08096e-12
8.47454e-12
8.17153e-12
7.74944e-12
7.27816e-12
7.0162e-12
6.37177e-12
6.27511e-12
5.47127e-12
5.61028e-12
5.28486e-12
1.17668e-11
1.30945e-11
1.1157e-11
1.19843e-11
1.05599e-11
1.09741e-11
9.89551e-12
1.00163e-11
9.19609e-12
9.08082e-12
8.4746e-12
8.17155e-12
7.74938e-12
7.27823e-12
7.01618e-12
6.37183e-12
6.2748e-12
5.47158e-12
5.60806e-12
5.2797e-12
1.175e-11
1.30784e-11
1.11542e-11
1.19833e-11
1.05601e-11
1.09738e-11
9.89575e-12
1.00161e-11
9.19619e-12
9.08072e-12
8.47467e-12
8.17154e-12
7.74933e-12
7.2783e-12
7.01614e-12
6.37191e-12
6.27441e-12
5.47197e-12
5.60133e-12
5.26988e-12
1.17299e-11
1.30601e-11
1.11519e-11
1.19823e-11
1.05604e-11
1.09734e-11
9.89611e-12
1.00159e-11
9.1963e-12
9.08056e-12
8.47478e-12
8.17159e-12
7.74929e-12
7.27832e-12
7.0161e-12
6.37196e-12
6.27394e-12
5.47245e-12
5.59059e-12
5.2559e-12
1.17096e-11
1.30431e-11
1.11503e-11
1.19812e-11
1.05608e-11
1.09728e-11
9.89652e-12
1.00156e-11
9.19647e-12
9.08037e-12
8.47494e-12
8.1716e-12
7.74926e-12
7.27837e-12
7.016e-12
6.37209e-12
6.27342e-12
5.47298e-12
5.57706e-12
5.23881e-12
1.16939e-11
1.30304e-11
1.11492e-11
1.19802e-11
1.05611e-11
1.09724e-11
9.8969e-12
1.00154e-11
9.19662e-12
9.0802e-12
8.47503e-12
8.17161e-12
7.74928e-12
7.27835e-12
7.01594e-12
6.37225e-12
6.27288e-12
5.47346e-12
5.56166e-12
5.22036e-12
1.1691e-11
1.30247e-11
1.11477e-11
1.198e-11
1.05609e-11
1.09725e-11
9.89689e-12
1.00154e-11
9.1965e-12
9.08021e-12
8.47502e-12
8.17163e-12
7.74926e-12
7.27831e-12
7.01597e-12
6.3722e-12
6.27258e-12
5.47365e-12
5.54721e-12
5.20616e-12
)
;

boundaryField
{
    top
    {
        type            zeroGradient;
    }
    bottom
    {
        type            zeroGradient;
    }
    inlet
    {
        type            fixedValue;
        value           uniform 0;
    }
    outlet
    {
        type            fixedValue;
        value           uniform 0;
    }
    frontAndBack
    {
        type            empty;
    }
}


// ************************************************************************* //
