/*--------------------------------*- C++ -*----------------------------------*\
| =========                 |                                                 |
| \\      /  F ield         | OpenFOAM: The Open Source CFD Toolbox           |
|  \\    /   O peration     | Version:  4.1                                   |
|   \\  /    A nd           | Web:      www.OpenFOAM.org                      |
|    \\/     M anipulation  |                                                 |
\*---------------------------------------------------------------------------*/
FoamFile
{
    version     2.0;
    format      ascii;
    class       surfaceScalarField;
    location    "3.9";
    object      phi;
}
// * * * * * * * * * * * * * * * * * * * * * * * * * * * * * * * * * * * * * //

dimensions      [0 3 -1 0 0 0 0];

internalField   nonuniform List<scalar> 
760
(
1.25e-06
-1.83002e-17
1.25e-06
-1.25748e-17
1.25e-06
1.55008e-19
1.25e-06
-8.88791e-19
1.25e-06
5.9532e-19
1.25e-06
-5.06568e-19
1.25e-06
4.04283e-19
1.25e-06
-3.12618e-19
1.25e-06
2.30595e-19
1.25e-06
-1.64053e-19
1.25e-06
1.05416e-19
1.25e-06
-3.30855e-20
1.25e-06
-2.23116e-20
1.25e-06
6.55388e-20
1.25e-06
-1.36884e-19
1.25e-06
1.80123e-19
1.25e-06
-3.32169e-19
1.25e-06
4.67879e-19
1.25e-06
-7.53589e-18
-1.11056e-17
3.75e-06
-5.53154e-17
3.75e-06
-4.39988e-17
3.75e-06
-9.20397e-19
3.75e-06
-2.15842e-18
3.75e-06
1.24857e-18
3.75e-06
-1.10331e-18
3.75e-06
8.75077e-19
3.75e-06
-6.71208e-19
3.75e-06
4.8787e-19
3.75e-06
-3.53819e-19
3.75e-06
2.36193e-19
3.75e-06
-6.06956e-20
3.75e-06
-5.6513e-20
3.75e-06
1.32534e-19
3.75e-06
-3.08562e-19
3.75e-06
3.81285e-19
3.75e-06
-8.73014e-19
3.75e-06
1.23156e-18
3.75e-06
-2.77503e-17
-3.58573e-17
6.25e-06
-1.00077e-16
6.25e-06
-8.67506e-17
6.25e-06
-3.40434e-18
6.25e-06
-3.30338e-18
6.25e-06
1.60547e-18
6.25e-06
-1.49465e-18
6.25e-06
1.17739e-18
6.25e-06
-8.91836e-19
6.25e-06
6.34325e-19
6.25e-06
-4.70861e-19
6.25e-06
3.29795e-19
6.25e-06
-6.66688e-20
6.25e-06
-8.70101e-20
6.25e-06
1.62283e-19
6.25e-06
-4.37776e-19
6.25e-06
5.01315e-19
6.25e-06
-1.44286e-18
6.25e-06
2.06451e-18
6.25e-06
-5.6985e-17
-6.85585e-17
8.75e-06
-1.45829e-16
8.75e-06
-1.3345e-16
8.75e-06
-6.83268e-18
8.75e-06
-4.27419e-18
8.75e-06
1.70589e-18
8.75e-06
-1.69726e-18
8.75e-06
1.32327e-18
8.75e-06
-9.88137e-19
8.75e-06
6.80223e-19
8.75e-06
-5.2582e-19
8.75e-06
3.93301e-19
8.75e-06
-5.28419e-20
8.75e-06
-1.16345e-19
8.75e-06
1.61185e-19
8.75e-06
-5.21968e-19
8.75e-06
5.49017e-19
8.75e-06
-2.00416e-18
8.75e-06
2.90541e-18
8.75e-06
-9.09295e-17
-1.04905e-16
1.125e-05
-1.86755e-16
1.125e-05
-1.77604e-16
1.125e-05
-1.07046e-17
1.125e-05
-5.02095e-18
1.125e-05
1.59092e-18
1.125e-05
-1.73415e-18
1.125e-05
1.33819e-18
1.125e-05
-9.70563e-19
1.125e-05
6.41348e-19
1.125e-05
-5.29048e-19
1.125e-05
4.22327e-19
1.125e-05
-2.79669e-20
1.125e-05
-1.33904e-19
1.125e-05
1.31975e-19
1.125e-05
-5.63149e-19
1.125e-05
5.31442e-19
1.125e-05
-2.51166e-18
1.125e-05
3.70286e-18
1.125e-05
-1.25441e-16
-1.40777e-16
1.375e-05
-2.18395e-16
1.375e-05
-2.14054e-16
1.375e-05
-1.45197e-17
1.375e-05
-5.50021e-18
1.375e-05
1.29472e-18
1.375e-05
-1.61977e-18
1.375e-05
1.23558e-18
1.375e-05
-8.65406e-19
1.375e-05
5.3141e-19
1.375e-05
-4.83964e-19
1.375e-05
4.26033e-19
1.375e-05
6.30151e-21
1.375e-05
-1.40022e-19
1.375e-05
8.56008e-20
1.375e-05
-5.69557e-19
1.375e-05
4.67277e-19
1.375e-05
-2.9296e-18
1.375e-05
4.39492e-18
1.375e-05
-1.56783e-16
-1.72471e-16
1.625e-05
-2.37658e-16
1.625e-05
-2.3905e-16
1.625e-05
-1.78479e-17
1.625e-05
-5.67811e-18
1.625e-05
8.68928e-19
1.625e-05
-1.37911e-18
1.625e-05
1.03508e-18
1.625e-05
-6.83504e-19
1.625e-05
3.72214e-19
1.625e-05
-4.04886e-19
1.625e-05
3.98471e-19
1.625e-05
4.68459e-20
1.625e-05
-1.30014e-19
1.625e-05
2.05603e-20
1.625e-05
-5.39749e-19
1.625e-05
3.56698e-19
1.625e-05
-3.21649e-18
1.625e-05
4.93738e-18
1.625e-05
-1.81874e-16
-1.96962e-16
1.875e-05
-2.43025e-16
1.875e-05
-2.5044e-16
1.875e-05
-2.03307e-17
1.875e-05
-5.54015e-18
1.875e-05
3.61684e-19
1.875e-05
-1.04405e-18
1.875e-05
7.64589e-19
1.875e-05
-4.5385e-19
1.875e-05
1.68381e-19
1.875e-05
-2.89954e-19
1.875e-05
3.60358e-19
1.875e-05
7.8499e-20
1.875e-05
-1.14586e-19
1.875e-05
-5.07698e-20
1.875e-05
-4.72842e-19
1.875e-05
2.10379e-19
1.875e-05
-3.35577e-18
1.875e-05
5.27359e-18
1.875e-05
-1.98452e-16
-2.12057e-16
2.125e-05
-2.34427e-16
2.125e-05
-2.47642e-16
2.125e-05
-2.17251e-17
2.125e-05
-5.09995e-18
2.125e-05
-1.96858e-19
2.125e-05
-6.40955e-19
2.125e-05
4.49209e-19
2.125e-05
-1.90906e-19
2.125e-05
-6.10741e-20
2.125e-05
-1.49944e-19
2.125e-05
3.0694e-19
2.125e-05
1.0403e-19
2.125e-05
-9.87892e-20
2.125e-05
-1.16356e-19
2.125e-05
-3.83531e-19
2.125e-05
3.17555e-20
2.125e-05
-3.32488e-18
2.125e-05
5.35576e-18
2.125e-05
-2.05187e-16
-2.16555e-16
2.375e-05
-2.13192e-16
2.375e-05
-2.31556e-16
2.375e-05
-2.19375e-17
2.375e-05
-4.38579e-18
2.375e-05
-7.52358e-19
2.375e-05
-1.97833e-19
2.375e-05
1.01212e-19
2.375e-05
8.38707e-20
2.375e-05
-2.82026e-19
2.375e-05
-8.60608e-21
2.375e-05
2.29557e-19
2.375e-05
1.30446e-19
2.375e-05
-6.90518e-20
2.375e-05
-1.72734e-19
2.375e-05
-2.79931e-19
2.375e-05
-1.43465e-19
2.375e-05
-3.14525e-18
2.375e-05
5.16648e-18
2.375e-05
-2.01758e-16
-2.10268e-16
2.625e-05
-1.81856e-16
2.625e-05
-2.04403e-16
2.625e-05
-2.10106e-17
2.625e-05
-3.45056e-18
2.625e-05
-1.27956e-18
2.625e-05
2.68597e-19
2.625e-05
-2.45595e-19
2.625e-05
3.59362e-19
2.625e-05
-5.05751e-19
2.625e-05
1.40079e-19
2.625e-05
1.39867e-19
2.625e-05
1.49556e-19
2.625e-05
-3.54837e-20
2.625e-05
-2.34848e-19
2.625e-05
-1.56544e-19
2.625e-05
-3.11705e-19
2.625e-05
-2.81217e-18
2.625e-05
4.69203e-18
2.625e-05
-1.88784e-16
-1.94011e-16
2.875e-05
-1.43831e-16
2.875e-05
-1.69415e-16
2.875e-05
-1.91202e-17
2.875e-05
-2.37464e-18
2.875e-05
-1.73701e-18
2.875e-05
7.07406e-19
2.875e-05
-5.62923e-19
2.875e-05
6.14179e-19
2.875e-05
-7.09888e-19
2.875e-05
2.75782e-19
2.875e-05
4.29296e-20
2.875e-05
1.62254e-19
2.875e-05
-1.29509e-20
2.875e-05
-2.85779e-19
2.875e-05
-2.50377e-20
2.875e-05
-4.69123e-19
2.875e-05
-2.36253e-18
2.875e-05
3.99953e-18
2.875e-05
-1.67748e-16
-1.69495e-16
3.125e-05
-1.03162e-16
3.125e-05
-1.30498e-16
3.125e-05
-1.65061e-17
3.125e-05
-1.25892e-18
3.125e-05
-2.09334e-18
3.125e-05
1.08432e-18
3.125e-05
-8.4022e-19
3.125e-05
8.29529e-19
3.125e-05
-8.61117e-19
3.125e-05
3.70721e-19
3.125e-05
-5.26556e-20
3.125e-05
1.80511e-19
3.125e-05
1.61475e-20
3.125e-05
-3.31322e-19
3.125e-05
9.91298e-20
3.125e-05
-5.79656e-19
3.125e-05
-1.84046e-18
3.125e-05
3.13238e-18
3.125e-05
-1.40839e-16
-1.39197e-16
3.375e-05
-6.39936e-17
3.375e-05
-9.17482e-17
3.375e-05
-1.35173e-17
3.375e-05
-2.04573e-19
3.375e-05
-2.31414e-18
3.375e-05
1.3807e-18
3.375e-05
-1.06835e-18
3.375e-05
9.82786e-19
3.375e-05
-9.36847e-19
3.375e-05
4.43087e-19
3.375e-05
-1.37759e-19
3.375e-05
1.82069e-19
3.375e-05
3.43759e-20
3.375e-05
-3.58877e-19
3.375e-05
2.15441e-19
3.375e-05
-6.5189e-19
3.375e-05
-1.29128e-18
3.375e-05
2.18556e-18
3.375e-05
-1.10708e-16
-1.06078e-16
3.625e-05
-3.02913e-17
3.625e-05
-5.70791e-17
3.625e-05
-1.04307e-17
3.625e-05
6.73501e-19
3.625e-05
-2.37364e-18
3.625e-05
1.55672e-18
3.625e-05
-1.19963e-18
3.625e-05
1.05216e-18
3.625e-05
-9.52264e-19
3.625e-05
4.80938e-19
3.625e-05
-2.0514e-19
3.625e-05
1.80917e-19
3.625e-05
4.742e-20
3.625e-05
-3.63462e-19
3.625e-05
2.95816e-19
3.625e-05
-6.81123e-19
3.625e-05
-7.45953e-19
3.625e-05
1.27352e-18
3.625e-05
-8.02709e-17
-7.33661e-17
3.875e-05
-5.16623e-18
3.875e-05
-2.95344e-17
3.875e-05
-7.54587e-18
3.875e-05
1.27515e-18
3.875e-05
-2.25791e-18
3.875e-05
1.59241e-18
3.875e-05
-1.23839e-18
3.875e-05
1.03643e-18
3.875e-05
-8.94926e-19
3.875e-05
5.00436e-19
3.875e-05
-2.43981e-19
3.875e-05
1.46332e-19
3.875e-05
5.33821e-20
3.875e-05
-3.24209e-19
3.875e-05
3.37157e-19
3.875e-05
-6.44618e-19
3.875e-05
-2.79033e-19
3.875e-05
4.89437e-19
3.875e-05
-5.22682e-17
-4.41239e-17
4.125e-05
9.30313e-18
4.125e-05
-1.10499e-17
4.125e-05
-5.02634e-18
4.125e-05
1.51372e-18
4.125e-05
-1.9411e-18
4.125e-05
1.44953e-18
4.125e-05
-1.1272e-18
4.125e-05
9.05642e-19
4.125e-05
-7.68841e-19
4.125e-05
4.64881e-19
4.125e-05
-2.50225e-19
4.125e-05
1.26064e-19
4.125e-05
4.6363e-20
4.125e-05
-2.71762e-19
4.125e-05
3.33633e-19
4.125e-05
-5.71623e-19
4.125e-05
5.94816e-20
4.125e-05
-5.7332e-20
4.125e-05
-2.91451e-17
-2.10706e-17
4.375e-05
1.29633e-17
4.375e-05
-1.54658e-18
4.375e-05
-2.91356e-18
4.375e-05
1.32812e-18
4.375e-05
-1.40952e-18
4.375e-05
1.10162e-18
4.375e-05
-8.55443e-19
4.375e-05
6.77009e-19
4.375e-05
-5.63028e-19
4.375e-05
3.56606e-19
4.375e-05
-1.9135e-19
4.375e-05
8.76675e-20
4.375e-05
2.81811e-20
4.375e-05
-1.76287e-19
4.375e-05
2.55681e-19
4.375e-05
-4.31452e-19
4.375e-05
2.22227e-19
4.375e-05
-2.92398e-19
4.375e-05
-1.24485e-17
-5.99811e-18
4.625e-05
7.28216e-18
4.625e-05
7.62618e-19
4.625e-05
-1.12232e-18
4.625e-05
6.76367e-19
4.625e-05
-6.34199e-19
4.625e-05
5.08626e-19
4.625e-05
-4.07632e-19
4.625e-05
3.12503e-19
4.625e-05
-2.49775e-19
4.625e-05
1.68387e-19
4.625e-05
-9.16877e-20
4.625e-05
4.1308e-20
4.625e-05
1.93381e-20
4.625e-05
-8.17442e-20
4.625e-05
1.21131e-19
4.625e-05
-1.9422e-19
4.625e-05
1.64041e-19
4.625e-05
-2.14346e-19
4.625e-05
-2.91972e-18
1.98464e-19
4.875e-05
4.875e-05
4.875e-05
4.875e-05
4.875e-05
4.875e-05
4.875e-05
4.875e-05
4.875e-05
4.875e-05
4.875e-05
4.875e-05
4.875e-05
4.875e-05
4.875e-05
4.875e-05
4.875e-05
4.875e-05
4.875e-05
)
;

boundaryField
{
    top
    {
        type            calculated;
        value           uniform 0;
    }
    bottom
    {
        type            calculated;
        value           uniform 0;
    }
    inlet
    {
        type            calculated;
        value           nonuniform List<scalar> 
20
(
-1.25e-06
-3.75e-06
-6.25e-06
-8.75e-06
-1.125e-05
-1.375e-05
-1.625e-05
-1.875e-05
-2.125e-05
-2.375e-05
-2.625e-05
-2.875e-05
-3.125e-05
-3.375e-05
-3.625e-05
-3.875e-05
-4.125e-05
-4.375e-05
-4.625e-05
-4.875e-05
)
;
    }
    outlet
    {
        type            calculated;
        value           nonuniform List<scalar> 
20
(
1.25e-06
3.75e-06
6.25e-06
8.75e-06
1.125e-05
1.375e-05
1.625e-05
1.875e-05
2.125e-05
2.375e-05
2.625e-05
2.875e-05
3.125e-05
3.375e-05
3.625e-05
3.875e-05
4.125e-05
4.375e-05
4.625e-05
4.875e-05
)
;
    }
    frontAndBack
    {
        type            empty;
        value           nonuniform 0();
    }
}


// ************************************************************************* //
