/*--------------------------------*- C++ -*----------------------------------*\
| =========                 |                                                 |
| \\      /  F ield         | OpenFOAM: The Open Source CFD Toolbox           |
|  \\    /   O peration     | Version:  4.1                                   |
|   \\  /    A nd           | Web:      www.OpenFOAM.org                      |
|    \\/     M anipulation  |                                                 |
\*---------------------------------------------------------------------------*/
FoamFile
{
    version     2.0;
    format      ascii;
    class       volVectorField;
    location    "3.9";
    object      U;
}
// * * * * * * * * * * * * * * * * * * * * * * * * * * * * * * * * * * * * * //

dimensions      [0 1 -1 0 0 0 0];

internalField   nonuniform List<vector> 
400
(
(0.025 -8.15514e-15 0)
(0.025 -5.08504e-15 0)
(0.025 1.8665e-16 0)
(0.025 -4.44299e-16 0)
(0.025 3.13384e-16 0)
(0.025 -2.63423e-16 0)
(0.025 2.10607e-16 0)
(0.025 -1.63277e-16 0)
(0.025 1.21393e-16 0)
(0.025 -8.57425e-17 0)
(0.025 5.41616e-17 0)
(0.025 -1.81566e-17 0)
(0.025 -1.08103e-17 0)
(0.025 3.51441e-17 0)
(0.025 -7.00474e-17 0)
(0.025 9.39302e-17 0)
(0.025 -1.60619e-16 0)
(0.025 2.07467e-16 0)
(0.025 -2.86543e-15 0)
(0.025 -4.67093e-15 0)
(0.075 -3.43155e-14 0)
(0.075 -2.53231e-14 0)
(0.075 -7.1027e-17 0)
(0.075 -1.50207e-15 0)
(0.075 9.54347e-16 0)
(0.075 -8.22373e-16 0)
(0.075 6.5504e-16 0)
(0.075 -5.05308e-16 0)
(0.075 3.70573e-16 0)
(0.075 -2.65274e-16 0)
(0.075 1.731e-16 0)
(0.075 -5.02489e-17 0)
(0.075 -3.8929e-17 0)
(0.075 1.03282e-16 0)
(0.075 -2.25385e-16 0)
(0.075 2.89338e-16 0)
(0.075 -5.78762e-16 0)
(0.075 8.32036e-16 0)
(0.075 -1.54461e-14 0)
(0.075 -2.1339e-14 0)
(0.125 -7.61183e-14 0)
(0.125 -6.31952e-14 0)
(0.125 -1.88739e-15 0)
(0.125 -2.74115e-15 0)
(0.125 1.47473e-15 0)
(0.125 -1.33045e-15 0)
(0.125 1.05237e-15 0)
(0.125 -8.03398e-16 0)
(0.125 5.79352e-16 0)
(0.125 -4.23292e-16 0)
(0.125 2.87981e-16 0)
(0.125 -6.78422e-17 0)
(0.125 -7.1716e-17 0)
(0.125 1.5366e-16 0)
(0.125 -3.79393e-16 0)
(0.125 4.54031e-16 0)
(0.125 -1.14689e-15 0)
(0.125 1.61273e-15 0)
(0.125 -4.05248e-14 0)
(0.125 -5.04952e-14 0)
(0.175 -1.23206e-13 0)
(0.175 -1.09678e-13 0)
(0.175 -4.92578e-15 0)
(0.175 -3.83557e-15 0)
(0.175 1.71591e-15 0)
(0.175 -1.64056e-15 0)
(0.175 1.28645e-15 0)
(0.175 -9.69522e-16 0)
(0.175 6.80509e-16 0)
(0.175 -5.12957e-16 0)
(0.175 3.69812e-16 0)
(0.175 -6.40593e-17 0)
(0.175 -1.03335e-16 0)
(0.175 1.69007e-16 0)
(0.175 -4.90283e-16 0)
(0.175 5.42087e-16 0)
(0.175 -1.72983e-15 0)
(0.175 2.48321e-15 0)
(0.175 -7.31767e-14 0)
(0.175 -8.62073e-14 0)
(0.225 -1.6802e-13 0)
(0.225 -1.5674e-13 0)
(0.225 -8.71362e-15 0)
(0.225 -4.71133e-15 0)
(0.225 1.69998e-15 0)
(0.225 -1.75705e-15 0)
(0.225 1.36368e-15 0)
(0.225 -1.00591e-15 0)
(0.225 6.8122e-16 0)
(0.225 -5.40728e-16 0)
(0.225 4.15639e-16 0)
(0.225 -4.30018e-17 0)
(0.225 -1.27703e-16 0)
(0.225 1.52484e-16 0)
(0.225 -5.53029e-16 0)
(0.225 5.55528e-16 0)
(0.225 -2.27693e-15 0)
(0.225 3.31611e-15 0)
(0.225 -1.08486e-13 0)
(0.225 -1.23405e-13 0)
(0.275 -2.05245e-13 0)
(0.275 -1.98178e-13 0)
(0.275 -1.26816e-14 0)
(0.275 -5.33207e-15 0)
(0.275 1.48175e-15 0)
(0.275 -1.71107e-15 0)
(0.275 1.31313e-15 0)
(0.275 -9.38614e-16 0)
(0.275 6.02329e-16 0)
(0.275 -5.17306e-16 0)
(0.275 4.30922e-16 0)
(0.275 -1.23126e-17 0)
(0.275 -1.39468e-16 0)
(0.275 1.13021e-16 0)
(0.275 -5.75911e-16 0)
(0.275 5.11663e-16 0)
(0.275 -2.74827e-15 0)
(0.275 4.07463e-15 0)
(0.275 -1.42272e-13 0)
(0.275 -1.58028e-13 0)
(0.325 -2.31261e-13 0)
(0.325 -2.29634e-13 0)
(0.325 -1.63569e-14 0)
(0.325 -5.66556e-15 0)
(0.325 1.10897e-15 0)
(0.325 -1.52701e-15 0)
(0.325 1.15622e-15 0)
(0.325 -7.89755e-16 0)
(0.325 4.63282e-16 0)
(0.325 -4.5296e-16 0)
(0.325 4.17735e-16 0)
(0.325 2.68043e-17 0)
(0.325 -1.37776e-16 0)
(0.325 5.53883e-17 0)
(0.325 -5.62943e-16 0)
(0.325 4.21889e-16 0)
(0.325 -3.10738e-15 0)
(0.325 4.706e-15 0)
(0.325 -1.71144e-13 0)
(0.325 -1.8676e-13 0)
(0.375 -2.43777e-13 0)
(0.375 -2.48173e-13 0)
(0.375 -1.93387e-14 0)
(0.375 -5.68673e-15 0)
(0.375 6.31847e-16 0)
(0.375 -1.23286e-15 0)
(0.375 9.1514e-16 0)
(0.375 -5.79188e-16 0)
(0.375 2.7781e-16 0)
(0.375 -3.53751e-16 0)
(0.375 3.84133e-16 0)
(0.375 6.35856e-17 0)
(0.375 -1.24523e-16 0)
(0.375 -1.42061e-17 0)
(0.375 -5.13423e-16 0)
(0.375 2.90211e-16 0)
(0.375 -3.32448e-15 0)
(0.375 5.15907e-15 0)
(0.375 -1.9242e-13 0)
(0.375 -2.06974e-13 0)
(0.425 -2.4201e-13 0)
(0.425 -2.52439e-13 0)
(0.425 -2.13214e-14 0)
(0.425 -5.39311e-15 0)
(0.425 8.79681e-17 0)
(0.425 -8.57269e-16 0)
(0.425 6.1647e-16 0)
(0.425 -3.28231e-16 0)
(0.425 5.70613e-17 0)
(0.425 -2.23687e-16 0)
(0.425 3.38154e-16 0)
(0.425 9.23823e-17 0)
(0.425 -1.08216e-16 0)
(0.425 -8.36321e-17 0)
(0.425 -4.33881e-16 0)
(0.425 1.24408e-16 0)
(0.425 -3.38029e-15 0)
(0.425 5.37864e-15 0)
(0.425 -2.04282e-13 0)
(0.425 -2.16946e-13 0)
(0.475 -2.2662e-13 0)
(0.475 -2.42616e-13 0)
(0.475 -2.21335e-14 0)
(0.475 -4.80407e-15 0)
(0.475 -4.79253e-16 0)
(0.475 -4.26714e-16 0)
(0.475 2.78665e-16 0)
(0.475 -5.49417e-17 0)
(0.475 -1.71237e-16 0)
(0.475 -8.01682e-17 0)
(0.475 2.70734e-16 0)
(0.475 1.18917e-16 0)
(0.475 -8.51549e-17 0)
(0.475 -1.45256e-16 0)
(0.475 -3.35781e-16 0)
(0.475 -5.56451e-17 0)
(0.475 -3.27272e-15 0)
(0.475 5.32994e-15 0)
(0.475 -2.05899e-13 0)
(0.475 -2.15976e-13 0)
(0.525 -1.996e-13 0)
(0.525 -2.20327e-13 0)
(0.525 -2.17508e-14 0)
(0.525 -3.96344e-15 0)
(0.525 -1.02896e-15 0)
(0.525 3.66649e-17 0)
(0.525 -7.46828e-17 0)
(0.525 2.24408e-16 0)
(0.525 -3.99352e-16 0)
(0.525 6.85075e-17 0)
(0.525 1.86835e-16 0)
(0.525 1.4077e-16 0)
(0.525 -5.19943e-17 0)
(0.525 -2.05057e-16 0)
(0.525 -2.20899e-16 0)
(0.525 -2.31072e-16 0)
(0.525 -3.01093e-15 0)
(0.525 4.99509e-15 0)
(0.525 -1.97438e-13 0)
(0.525 -2.04391e-13 0)
(0.575 -1.63997e-13 0)
(0.575 -1.88374e-13 0)
(0.575 -2.02875e-14 0)
(0.575 -2.9368e-15 0)
(0.575 -1.53007e-15 0)
(0.575 4.97336e-16 0)
(0.575 -4.12104e-16 0)
(0.575 4.94989e-16 0)
(0.575 -6.16697e-16 0)
(0.575 2.12054e-16 0)
(0.575 9.14389e-17 0)
(0.575 1.57239e-16 0)
(0.575 -2.39061e-17 0)
(0.575 -2.6179e-16 0)
(0.575 -9.11695e-17 0)
(0.575 -3.96642e-16 0)
(0.575 -2.61235e-15 0)
(0.575 4.39983e-15 0)
(0.575 -1.79979e-13 0)
(0.575 -1.83487e-13 0)
(0.625 -1.23641e-13 0)
(0.625 -1.50433e-13 0)
(0.625 -1.79605e-14 0)
(0.625 -1.81583e-15 0)
(0.625 -1.94441e-15 0)
(0.625 9.14592e-16 0)
(0.625 -7.14824e-16 0)
(0.625 7.34442e-16 0)
(0.625 -7.98838e-16 0)
(0.625 3.29383e-16 0)
(0.625 -6.51557e-18 0)
(0.625 1.73038e-16 0)
(0.625 2.66548e-18 0)
(0.625 -3.11502e-16 0)
(0.625 3.8965e-17 0)
(0.625 -5.33684e-16 0)
(0.625 -2.11549e-15 0)
(0.625 3.60124e-15 0)
(0.625 -1.55408e-13 0)
(0.625 -1.55409e-13 0)
(0.675 -8.27208e-14 0)
(0.675 -1.10611e-13 0)
(0.675 -1.5076e-14 0)
(0.675 -7.03792e-16 0)
(0.675 -2.23958e-15 0)
(0.675 1.2577e-15 0)
(0.675 -9.724e-16 0)
(0.675 9.23792e-16 0)
(0.675 -9.16088e-16 0)
(0.675 4.13427e-16 0)
(0.675 -9.7626e-17 0)
(0.675 1.836e-16 0)
(0.675 2.6621e-17 0)
(0.675 -3.50365e-16 0)
(0.675 1.62527e-16 0)
(0.675 -6.27122e-16 0)
(0.675 -1.568e-15 0)
(0.675 2.66924e-15 0)
(0.675 -1.26206e-13 0)
(0.675 -1.22938e-13 0)
(0.725 -4.54109e-14 0)
(0.725 -7.30478e-14 0)
(0.725 -1.19615e-14 0)
(0.725 2.89633e-16 0)
(0.725 -2.38731e-15 0)
(0.725 1.50198e-15 0)
(0.725 -1.15831e-15 0)
(0.725 1.03906e-15 0)
(0.725 -9.61555e-16 0)
(0.725 4.69893e-16 0)
(0.725 -1.76839e-16 0)
(0.725 1.84183e-16 0)
(0.725 4.2468e-17 0)
(0.725 -3.68223e-16 0)
(0.725 2.64692e-16 0)
(0.725 -6.78609e-16 0)
(0.725 -1.00843e-15 0)
(0.725 1.71086e-15 0)
(0.725 -9.52312e-14 0)
(0.725 -8.9246e-14 0)
(0.775 -1.5352e-14 0)
(0.775 -4.13416e-14 0)
(0.775 -8.91998e-15 0)
(0.775 1.05688e-15 0)
(0.775 -2.36626e-15 0)
(0.775 1.61698e-15 0)
(0.775 -1.25189e-15 0)
(0.775 1.06956e-15 0)
(0.775 -9.42757e-16 0)
(0.775 5.02272e-16 0)
(0.775 -2.33257e-16 0)
(0.775 1.66194e-16 0)
(0.775 5.28471e-17 0)
(0.775 -3.52e-16 0)
(0.775 3.28808e-16 0)
(0.775 -6.78098e-16 0)
(0.775 -4.86632e-16 0)
(0.775 8.34927e-16 0)
(0.775 -6.53774e-14 0)
(0.775 -5.75455e-14 0)
(0.825 4.64659e-15 0)
(0.825 -1.81435e-14 0)
(0.825 -6.18259e-15 0)
(0.825 1.49411e-15 0)
(0.825 -2.15162e-15 0)
(0.825 1.56807e-15 0)
(0.825 -1.21913e-15 0)
(0.825 9.98407e-16 0)
(0.825 -8.51949e-16 0)
(0.825 4.97764e-16 0)
(0.825 -2.57723e-16 0)
(0.825 1.38694e-16 0)
(0.825 5.1552e-17 0)
(0.825 -3.05224e-16 0)
(0.825 3.50271e-16 0)
(0.825 -6.2408e-16 0)
(0.825 -7.08674e-17 0)
(0.825 1.49636e-16 0)
(0.825 -3.93114e-14 0)
(0.825 -3.08382e-14 0)
(0.875 1.33425e-14 0)
(0.875 -4.3541e-15 0)
(0.875 -3.84057e-15 0)
(0.875 1.50594e-15 0)
(0.875 -1.71005e-15 0)
(0.875 1.31352e-15 0)
(0.875 -1.02081e-15 0)
(0.875 8.09971e-16 0)
(0.875 -6.78556e-16 0)
(0.875 4.22871e-16 0)
(0.875 -2.29236e-16 0)
(0.875 1.08196e-16 0)
(0.875 3.88521e-17 0)
(0.875 -2.27267e-16 0)
(0.875 3.06079e-16 0)
(0.875 -5.12692e-16 0)
(0.875 1.82599e-16 0)
(0.875 -2.51504e-16 0)
(0.875 -1.90926e-14 0)
(0.875 -1.15185e-14 0)
(0.925 1.15552e-14 0)
(0.925 9.25612e-16 0)
(0.925 -1.89006e-15 0)
(0.925 1.06831e-15 0)
(0.925 -1.03782e-15 0)
(0.925 8.26456e-16 0)
(0.925 -6.49477e-16 0)
(0.925 5.06154e-16 0)
(0.925 -4.13185e-16 0)
(0.925 2.7123e-16 0)
(0.925 -1.48324e-16 0)
(0.925 6.53826e-17 0)
(0.925 2.49015e-17 0)
(0.925 -1.29765e-16 0)
(0.925 1.94935e-16 0)
(0.925 -3.19507e-16 0)
(0.925 2.32247e-16 0)
(0.925 -3.04205e-16 0)
(0.925 -6.1603e-15 0)
(0.925 -1.1766e-15 0)
(0.975 4.3143e-15 0)
(0.975 9.65652e-16 0)
(0.975 -5.23173e-16 0)
(0.975 3.65226e-16 0)
(0.975 -3.28004e-16 0)
(0.975 2.67975e-16 0)
(0.975 -2.12906e-16 0)
(0.975 1.61934e-16 0)
(0.975 -1.30206e-16 0)
(0.975 8.85019e-17 0)
(0.975 -4.74612e-17 0)
(0.975 2.15382e-17 0)
(0.975 9.08978e-18 0)
(0.975 -4.06045e-17 0)
(0.975 6.43481e-17 0)
(0.975 -1.00651e-16 0)
(0.975 9.66768e-17 0)
(0.975 -1.42344e-16 0)
(0.975 -8.11634e-16 0)
(0.975 8.61853e-16 0)
)
;

boundaryField
{
    top
    {
        type            fixedValue;
        value           uniform (1 0 0);
    }
    bottom
    {
        type            fixedValue;
        value           uniform (0 0 0);
    }
    inlet
    {
        type            zeroGradient;
    }
    outlet
    {
        type            zeroGradient;
    }
    frontAndBack
    {
        type            empty;
    }
}


// ************************************************************************* //
