/*--------------------------------*- C++ -*----------------------------------*\
| =========                 |                                                 |
| \\      /  F ield         | OpenFOAM: The Open Source CFD Toolbox           |
|  \\    /   O peration     | Version:  4.1                                   |
|   \\  /    A nd           | Web:      www.OpenFOAM.org                      |
|    \\/     M anipulation  |                                                 |
\*---------------------------------------------------------------------------*/
FoamFile
{
    version     2.0;
    format      ascii;
    class       volScalarField;
    location    "4.1";
    object      p;
}
// * * * * * * * * * * * * * * * * * * * * * * * * * * * * * * * * * * * * * //

dimensions      [0 2 -2 0 0 0 0];

internalField   nonuniform List<scalar> 
400
(
5.78813e-12
6.4601e-12
5.51398e-12
5.89784e-12
5.20236e-12
5.40543e-12
4.87272e-12
4.93556e-12
4.53619e-12
4.47973e-12
4.17861e-12
4.03204e-12
3.82698e-12
3.59426e-12
3.46457e-12
3.14703e-12
3.09789e-12
2.70124e-12
2.76252e-12
2.60197e-12
5.76726e-12
6.43868e-12
5.51235e-12
5.89743e-12
5.20238e-12
5.40535e-12
4.87278e-12
4.93552e-12
4.5362e-12
4.47971e-12
4.17865e-12
4.03205e-12
3.82697e-12
3.59426e-12
3.46452e-12
3.14704e-12
3.09767e-12
2.70139e-12
2.74823e-12
2.58686e-12
5.75532e-12
6.42336e-12
5.51036e-12
5.8974e-12
5.20211e-12
5.40551e-12
4.87265e-12
4.93564e-12
4.53611e-12
4.47977e-12
4.17862e-12
4.03207e-12
3.82697e-12
3.59423e-12
3.46453e-12
3.14697e-12
3.09758e-12
2.70122e-12
2.73691e-12
2.5764e-12
5.75155e-12
6.41618e-12
5.50847e-12
5.89747e-12
5.20183e-12
5.4057e-12
4.87248e-12
4.93577e-12
4.53601e-12
4.47984e-12
4.17858e-12
4.03209e-12
3.82698e-12
3.59422e-12
3.46455e-12
3.14688e-12
3.09756e-12
2.70082e-12
2.73041e-12
2.57107e-12
5.7527e-12
6.41468e-12
5.50668e-12
5.89751e-12
5.20161e-12
5.40584e-12
4.87236e-12
4.93588e-12
4.53595e-12
4.4799e-12
4.17853e-12
4.0321e-12
3.82699e-12
3.59423e-12
3.46456e-12
3.14681e-12
3.09757e-12
2.7003e-12
2.72768e-12
2.56926e-12
5.75706e-12
6.41695e-12
5.50491e-12
5.89753e-12
5.20145e-12
5.40595e-12
4.87224e-12
4.93596e-12
4.53592e-12
4.47996e-12
4.17849e-12
4.03209e-12
3.82702e-12
3.59425e-12
3.46457e-12
3.14675e-12
3.09761e-12
2.69972e-12
2.72793e-12
2.57018e-12
5.76371e-12
6.42185e-12
5.50309e-12
5.89752e-12
5.20133e-12
5.40602e-12
4.87214e-12
4.93603e-12
4.53592e-12
4.48002e-12
4.17842e-12
4.0321e-12
3.82704e-12
3.59428e-12
3.46456e-12
3.14669e-12
3.09767e-12
2.69914e-12
2.73069e-12
2.57336e-12
5.77154e-12
6.42823e-12
5.50122e-12
5.89749e-12
5.20125e-12
5.40606e-12
4.87207e-12
4.93608e-12
4.53594e-12
4.48006e-12
4.17837e-12
4.03211e-12
3.82705e-12
3.59434e-12
3.46454e-12
3.14663e-12
3.09775e-12
2.69861e-12
2.73534e-12
2.57819e-12
5.77945e-12
6.43497e-12
5.49931e-12
5.8974e-12
5.20121e-12
5.40605e-12
4.872e-12
4.93612e-12
4.53596e-12
4.48009e-12
4.17832e-12
4.03211e-12
3.82706e-12
3.59442e-12
3.4645e-12
3.1466e-12
3.09782e-12
2.69817e-12
2.74118e-12
2.58391e-12
5.78641e-12
6.441e-12
5.49734e-12
5.89725e-12
5.2012e-12
5.40602e-12
4.87193e-12
4.93614e-12
4.53605e-12
4.4801e-12
4.17824e-12
4.03213e-12
3.82708e-12
3.59448e-12
3.46446e-12
3.1466e-12
3.09788e-12
2.69784e-12
2.74743e-12
2.58977e-12
5.79156e-12
6.44541e-12
5.49532e-12
5.89707e-12
5.2012e-12
5.40596e-12
4.87192e-12
4.93613e-12
4.53614e-12
4.48011e-12
4.17816e-12
4.03216e-12
3.82709e-12
3.59457e-12
3.46438e-12
3.14663e-12
3.09793e-12
2.69761e-12
2.75332e-12
2.59501e-12
5.79428e-12
6.44749e-12
5.4933e-12
5.89681e-12
5.20123e-12
5.40585e-12
4.87192e-12
4.93615e-12
4.53622e-12
4.48012e-12
4.1781e-12
4.03218e-12
3.82711e-12
3.59467e-12
3.46428e-12
3.14667e-12
3.09797e-12
2.69753e-12
2.75813e-12
2.59898e-12
5.79411e-12
6.44687e-12
5.49134e-12
5.89652e-12
5.20129e-12
5.4057e-12
4.87194e-12
4.93614e-12
4.53637e-12
4.48006e-12
4.17803e-12
4.0322e-12
3.82711e-12
3.59479e-12
3.4642e-12
3.14669e-12
3.09796e-12
2.69757e-12
2.76131e-12
2.60108e-12
5.79095e-12
6.44344e-12
5.48953e-12
5.89612e-12
5.20137e-12
5.40551e-12
4.87201e-12
4.93611e-12
4.53651e-12
4.48003e-12
4.17796e-12
4.03224e-12
3.82709e-12
3.5949e-12
3.46412e-12
3.14671e-12
3.09795e-12
2.69772e-12
2.7624e-12
2.60103e-12
5.78491e-12
6.43742e-12
5.48794e-12
5.89571e-12
5.20147e-12
5.40528e-12
4.87211e-12
4.93611e-12
4.53661e-12
4.47999e-12
4.17792e-12
4.03229e-12
3.82709e-12
3.59503e-12
3.46399e-12
3.14674e-12
3.09792e-12
2.69793e-12
2.7612e-12
2.59854e-12
5.77659e-12
6.42945e-12
5.48653e-12
5.89527e-12
5.20156e-12
5.40506e-12
4.87224e-12
4.93607e-12
4.53671e-12
4.47997e-12
4.17791e-12
4.03228e-12
3.82707e-12
3.59514e-12
3.46386e-12
3.14679e-12
3.09784e-12
2.69821e-12
2.75778e-12
2.59376e-12
5.76665e-12
6.42043e-12
5.48545e-12
5.89479e-12
5.2017e-12
5.40479e-12
4.87246e-12
4.93603e-12
4.53677e-12
4.47993e-12
4.1779e-12
4.03228e-12
3.82709e-12
3.59523e-12
3.4637e-12
3.14683e-12
3.09775e-12
2.69848e-12
2.75245e-12
2.58692e-12
5.75662e-12
6.41194e-12
5.48468e-12
5.89429e-12
5.2019e-12
5.40451e-12
4.87272e-12
4.93595e-12
4.53682e-12
4.47983e-12
4.17796e-12
4.03225e-12
3.82711e-12
3.59534e-12
3.46348e-12
3.14692e-12
3.09759e-12
2.69875e-12
2.74574e-12
2.57851e-12
5.74892e-12
6.40567e-12
5.48409e-12
5.89388e-12
5.20208e-12
5.40422e-12
4.87292e-12
4.93594e-12
4.53689e-12
4.47973e-12
4.17803e-12
4.03223e-12
3.8271e-12
3.59539e-12
3.46334e-12
3.14702e-12
3.09738e-12
2.69896e-12
2.73815e-12
2.56949e-12
5.74747e-12
6.40286e-12
5.48334e-12
5.89384e-12
5.20196e-12
5.40428e-12
4.87293e-12
4.936e-12
4.53678e-12
4.47974e-12
4.17808e-12
4.03218e-12
3.82713e-12
3.59536e-12
3.46331e-12
3.14702e-12
3.09724e-12
2.69906e-12
2.73108e-12
2.56253e-12
)
;

boundaryField
{
    top
    {
        type            zeroGradient;
    }
    bottom
    {
        type            zeroGradient;
    }
    inlet
    {
        type            fixedValue;
        value           uniform 0;
    }
    outlet
    {
        type            fixedValue;
        value           uniform 0;
    }
    frontAndBack
    {
        type            empty;
    }
}


// ************************************************************************* //
