/*--------------------------------*- C++ -*----------------------------------*\
| =========                 |                                                 |
| \\      /  F ield         | OpenFOAM: The Open Source CFD Toolbox           |
|  \\    /   O peration     | Version:  4.1                                   |
|   \\  /    A nd           | Web:      www.OpenFOAM.org                      |
|    \\/     M anipulation  |                                                 |
\*---------------------------------------------------------------------------*/
FoamFile
{
    version     2.0;
    format      ascii;
    class       surfaceScalarField;
    location    "4.1";
    object      phi;
}
// * * * * * * * * * * * * * * * * * * * * * * * * * * * * * * * * * * * * * //

dimensions      [0 3 -1 0 0 0 0];

internalField   nonuniform List<scalar> 
760
(
1.25e-06
-8.99702e-18
1.25e-06
-6.18113e-18
1.25e-06
7.38805e-20
1.25e-06
-4.33421e-19
1.25e-06
2.89962e-19
1.25e-06
-2.5161e-19
1.25e-06
2.04139e-19
1.25e-06
-1.55103e-19
1.25e-06
1.10439e-19
1.25e-06
-8.19605e-20
1.25e-06
5.78699e-20
1.25e-06
-1.47199e-20
1.25e-06
-1.36742e-20
1.25e-06
2.95423e-20
1.25e-06
-7.01688e-20
1.25e-06
8.97914e-20
1.25e-06
-1.63323e-19
1.25e-06
2.30234e-19
1.25e-06
-3.70656e-18
-5.46134e-18
3.75e-06
-2.71944e-17
3.75e-06
-2.16309e-17
3.75e-06
-4.58581e-19
3.75e-06
-1.05043e-18
3.75e-06
6.06232e-19
3.75e-06
-5.50251e-19
3.75e-06
4.47193e-19
3.75e-06
-3.32668e-19
3.75e-06
2.28598e-19
3.75e-06
-1.76668e-19
3.75e-06
1.35899e-19
3.75e-06
-2.43453e-20
3.75e-06
-3.72985e-20
3.75e-06
5.45812e-20
3.75e-06
-1.60935e-19
3.75e-06
1.92637e-19
3.75e-06
-4.28778e-19
3.75e-06
6.06285e-19
3.75e-06
-1.36494e-17
-1.76332e-17
6.25e-06
-4.91982e-17
6.25e-06
-4.26489e-17
6.25e-06
-1.68563e-18
6.25e-06
-1.60337e-18
6.25e-06
7.7521e-19
6.25e-06
-7.48202e-19
6.25e-06
6.08279e-19
6.25e-06
-4.44288e-19
6.25e-06
2.91381e-19
6.25e-06
-2.37704e-19
6.25e-06
2.00648e-19
6.25e-06
-2.14178e-20
6.25e-06
-5.89756e-20
6.25e-06
5.79967e-20
6.25e-06
-2.33316e-19
6.25e-06
2.55982e-19
6.25e-06
-7.08013e-19
6.25e-06
1.01431e-18
6.25e-06
-2.80258e-17
-3.37122e-17
8.75e-06
-7.16892e-17
8.75e-06
-6.56089e-17
8.75e-06
-3.37609e-18
8.75e-06
-2.07062e-18
8.75e-06
8.17137e-19
8.75e-06
-8.56775e-19
8.75e-06
6.95691e-19
8.75e-06
-4.90512e-19
8.75e-06
2.99487e-19
8.75e-06
-2.70317e-19
8.75e-06
2.52194e-19
8.75e-06
-7.6689e-21
8.75e-06
-7.56605e-20
8.75e-06
4.38251e-20
8.75e-06
-2.85916e-19
8.75e-06
2.878e-19
8.75e-06
-9.82632e-19
8.75e-06
1.42481e-18
8.75e-06
-4.47221e-17
-5.15874e-17
1.125e-05
-9.18049e-17
1.125e-05
-8.73152e-17
1.125e-05
-5.2857e-18
1.125e-05
-2.42675e-18
1.125e-05
7.50647e-19
1.125e-05
-8.82006e-19
1.125e-05
7.2462e-19
1.125e-05
-4.81216e-19
1.125e-05
2.60652e-19
1.125e-05
-2.79934e-19
1.125e-05
2.88294e-19
1.125e-05
1.46789e-20
1.125e-05
-9.15385e-20
1.125e-05
1.87434e-20
1.125e-05
-3.20575e-19
1.125e-05
2.87632e-19
1.125e-05
-1.234e-18
1.125e-05
1.81248e-18
1.125e-05
-6.16925e-17
-6.92257e-17
1.375e-05
-1.07358e-16
1.375e-05
-1.05236e-16
1.375e-05
-7.16726e-18
1.375e-05
-2.6549e-18
1.375e-05
6.01547e-19
1.375e-05
-8.35424e-19
1.375e-05
6.91848e-19
1.375e-05
-4.27054e-19
1.375e-05
1.87611e-19
1.375e-05
-2.67005e-19
1.375e-05
3.1323e-19
1.375e-05
3.38673e-20
1.375e-05
-9.3696e-20
1.375e-05
-1.38985e-20
1.375e-05
-3.33536e-19
1.375e-05
2.61583e-19
1.375e-05
-1.44e-18
1.375e-05
2.14947e-18
1.375e-05
-7.71093e-17
-8.48139e-17
1.625e-05
-1.1683e-16
1.625e-05
-1.17531e-16
1.625e-05
-8.80684e-18
1.625e-05
-2.73575e-18
1.625e-05
3.85983e-19
1.625e-05
-7.25265e-19
1.625e-05
6.12865e-19
1.625e-05
-3.33783e-19
1.625e-05
8.43202e-20
1.625e-05
-2.29093e-19
1.625e-05
3.20182e-19
1.625e-05
5.38834e-20
1.625e-05
-8.86627e-20
1.625e-05
-5.55232e-20
1.625e-05
-3.29258e-19
1.625e-05
2.13154e-19
1.625e-05
-1.58315e-18
1.625e-05
2.40875e-18
1.625e-05
-8.94479e-17
-9.68562e-17
1.875e-05
-1.19467e-16
1.875e-05
-1.2314e-16
1.875e-05
-1.0035e-17
1.875e-05
-2.66212e-18
1.875e-05
1.29902e-19
1.875e-05
-5.65068e-19
1.875e-05
4.99053e-19
1.875e-05
-2.17655e-19
1.875e-05
-3.23641e-20
1.875e-05
-1.779e-19
1.875e-05
3.12828e-19
1.875e-05
7.60208e-20
1.875e-05
-7.4775e-20
1.875e-05
-9.57596e-20
1.875e-05
-3.06467e-19
1.875e-05
1.39653e-19
1.875e-05
-1.65016e-18
1.875e-05
2.56973e-18
1.875e-05
-9.76046e-17
-1.04284e-16
2.125e-05
-1.15236e-16
2.125e-05
-1.2178e-16
2.125e-05
-1.07211e-17
2.125e-05
-2.43904e-18
2.125e-05
-1.5143e-19
2.125e-05
-3.67378e-19
2.125e-05
3.61643e-19
2.125e-05
-8.40541e-20
2.125e-05
-1.68756e-19
2.125e-05
-1.14044e-19
2.125e-05
3.00348e-19
2.125e-05
8.59487e-20
2.125e-05
-5.91357e-20
2.125e-05
-1.2665e-19
2.125e-05
-2.75525e-19
2.125e-05
5.21278e-20
2.125e-05
-1.63889e-18
2.125e-05
2.61517e-18
2.125e-05
-1.00924e-16
-1.06504e-16
2.375e-05
-1.04793e-16
2.375e-05
-1.13879e-16
2.375e-05
-1.08217e-17
2.375e-05
-2.08908e-18
2.375e-05
-4.2694e-19
2.375e-05
-1.39613e-19
2.375e-05
1.87737e-19
2.375e-05
5.30264e-20
2.375e-05
-2.86599e-19
2.375e-05
-5.00367e-20
2.375e-05
2.69158e-19
2.375e-05
9.49695e-20
2.375e-05
-3.74395e-20
2.375e-05
-1.62052e-19
2.375e-05
-2.22416e-19
2.375e-05
-3.58812e-20
2.375e-05
-1.54941e-18
2.375e-05
2.5306e-18
2.375e-05
-9.92441e-17
-1.03418e-16
2.625e-05
-8.93907e-17
2.625e-05
-1.00529e-16
2.625e-05
-1.03629e-17
2.625e-05
-1.62311e-18
2.625e-05
-6.94847e-19
2.625e-05
9.83232e-20
2.625e-05
1.89874e-20
2.625e-05
1.75751e-19
2.625e-05
-3.91176e-19
2.625e-05
1.94471e-20
2.625e-05
2.2262e-19
2.625e-05
1.0117e-19
2.625e-05
-1.97292e-20
2.625e-05
-1.92898e-19
2.625e-05
-1.59641e-19
2.625e-05
-1.18307e-19
2.625e-05
-1.38596e-18
2.625e-05
2.30302e-18
2.625e-05
-9.28611e-17
-9.54289e-17
2.875e-05
-7.06968e-17
2.875e-05
-8.33298e-17
2.875e-05
-9.42639e-18
2.875e-05
-1.10265e-18
2.875e-05
-9.20333e-19
2.875e-05
3.24558e-19
2.875e-05
-1.45397e-19
2.875e-05
2.99784e-19
2.875e-05
-4.98087e-19
2.875e-05
9.59601e-20
2.875e-05
1.75296e-19
2.875e-05
1.02504e-19
2.875e-05
-3.16136e-21
2.875e-05
-2.23299e-19
2.875e-05
-9.60864e-20
2.875e-05
-1.82701e-19
2.875e-05
-1.16494e-18
2.875e-05
1.96645e-18
2.875e-05
-8.2523e-17
-8.33736e-17
3.125e-05
-5.07031e-17
3.125e-05
-6.41926e-17
3.125e-05
-8.146e-18
3.125e-05
-5.45485e-19
3.125e-05
-1.09335e-18
3.125e-05
5.27591e-19
3.125e-05
-3.01323e-19
3.125e-05
4.01033e-19
3.125e-05
-5.57613e-19
3.125e-05
1.40667e-19
3.125e-05
1.19587e-19
3.125e-05
1.00504e-19
3.125e-05
1.2579e-20
3.125e-05
-2.38406e-19
3.125e-05
-2.31966e-20
3.125e-05
-2.35435e-19
3.125e-05
-9.13477e-19
3.125e-05
1.5445e-18
3.125e-05
-6.92876e-17
-6.8487e-17
3.375e-05
-3.14361e-17
3.375e-05
-4.51391e-17
3.375e-05
-6.67752e-18
3.375e-05
-4.30385e-20
3.375e-05
-1.19451e-18
3.375e-05
6.86133e-19
3.375e-05
-4.26575e-19
3.375e-05
4.65104e-19
3.375e-05
-5.80632e-19
3.375e-05
1.81713e-19
3.375e-05
6.33251e-20
3.375e-05
9.7784e-20
3.375e-05
1.15638e-20
3.375e-05
-2.49454e-19
3.375e-05
5.85444e-20
3.375e-05
-2.75158e-19
3.375e-05
-6.47731e-19
3.375e-05
1.08354e-18
3.375e-05
-5.44727e-17
-5.21926e-17
3.625e-05
-1.48687e-17
3.625e-05
-2.80869e-17
3.625e-05
-5.14529e-18
3.625e-05
3.78494e-19
3.625e-05
-1.21156e-18
3.625e-05
7.76513e-19
3.625e-05
-5.14955e-19
3.625e-05
5.01314e-19
3.625e-05
-5.73458e-19
3.625e-05
2.03352e-19
3.625e-05
5.88548e-21
3.625e-05
1.03102e-19
3.625e-05
2.03145e-20
3.625e-05
-2.38633e-19
3.625e-05
1.15645e-19
3.625e-05
-2.92936e-19
3.625e-05
-3.85295e-19
3.625e-05
6.28561e-19
3.625e-05
-3.95003e-17
-3.61052e-17
3.875e-05
-2.50865e-18
3.875e-05
-1.45399e-17
3.875e-05
-3.72708e-18
3.875e-05
6.6248e-19
3.875e-05
-1.14262e-18
3.875e-05
8.01534e-19
3.875e-05
-5.5651e-19
3.875e-05
4.87444e-19
3.875e-05
-5.14591e-19
3.875e-05
2.20231e-19
3.875e-05
-3.50847e-20
3.875e-05
8.74784e-20
3.875e-05
1.14504e-20
3.875e-05
-2.08246e-19
3.875e-05
1.56897e-19
3.875e-05
-2.82175e-19
3.875e-05
-1.65726e-19
3.875e-05
2.49274e-19
3.875e-05
-2.57286e-17
-2.1724e-17
4.125e-05
4.59124e-18
4.125e-05
-5.4313e-18
4.125e-05
-2.47442e-18
4.125e-05
7.59298e-19
4.125e-05
-9.82262e-19
4.125e-05
7.29363e-19
4.125e-05
-5.24361e-19
4.125e-05
4.22459e-19
4.125e-05
-4.22927e-19
4.125e-05
2.18198e-19
4.125e-05
-7.04335e-20
4.125e-05
7.28929e-20
4.125e-05
9.55951e-21
4.125e-05
-1.7116e-19
4.125e-05
1.76779e-19
4.125e-05
-2.54693e-19
4.125e-05
-3.11944e-22
4.125e-05
-1.7723e-20
4.125e-05
-1.43452e-17
-1.03718e-17
4.375e-05
6.37399e-18
4.375e-05
-7.69062e-19
4.375e-05
-1.42774e-18
4.375e-05
6.53948e-19
4.375e-05
-7.12256e-19
4.375e-05
5.64248e-19
4.375e-05
-3.98479e-19
4.375e-05
2.98706e-19
4.375e-05
-3.00976e-19
4.375e-05
1.74579e-19
4.375e-05
-7.47436e-20
4.375e-05
4.9608e-20
4.375e-05
9.78373e-21
4.375e-05
-1.08011e-19
4.375e-05
1.40447e-19
4.375e-05
-1.95292e-19
4.375e-05
8.78703e-20
4.375e-05
-1.29318e-19
4.375e-05
-6.13455e-18
-2.97255e-18
4.625e-05
3.58643e-18
4.625e-05
3.74824e-19
4.625e-05
-5.46639e-19
4.625e-05
3.30837e-19
4.625e-05
-3.2177e-19
4.625e-05
2.53752e-19
4.625e-05
-1.90492e-19
4.625e-05
1.39102e-19
4.625e-05
-1.21327e-19
4.625e-05
8.07862e-20
4.625e-05
-4.49928e-20
4.625e-05
2.9548e-20
4.625e-05
7.5692e-22
4.625e-05
-4.17373e-20
4.625e-05
6.63533e-20
4.625e-05
-9.04229e-20
4.625e-05
7.1176e-20
4.625e-05
-1.01471e-19
4.625e-05
-1.44871e-18
8.6186e-20
4.875e-05
4.875e-05
4.875e-05
4.875e-05
4.875e-05
4.875e-05
4.875e-05
4.875e-05
4.875e-05
4.875e-05
4.875e-05
4.875e-05
4.875e-05
4.875e-05
4.875e-05
4.875e-05
4.875e-05
4.875e-05
4.875e-05
)
;

boundaryField
{
    top
    {
        type            calculated;
        value           uniform 0;
    }
    bottom
    {
        type            calculated;
        value           uniform 0;
    }
    inlet
    {
        type            calculated;
        value           nonuniform List<scalar> 
20
(
-1.25e-06
-3.75e-06
-6.25e-06
-8.75e-06
-1.125e-05
-1.375e-05
-1.625e-05
-1.875e-05
-2.125e-05
-2.375e-05
-2.625e-05
-2.875e-05
-3.125e-05
-3.375e-05
-3.625e-05
-3.875e-05
-4.125e-05
-4.375e-05
-4.625e-05
-4.875e-05
)
;
    }
    outlet
    {
        type            calculated;
        value           nonuniform List<scalar> 
20
(
1.25e-06
3.75e-06
6.25e-06
8.75e-06
1.125e-05
1.375e-05
1.625e-05
1.875e-05
2.125e-05
2.375e-05
2.625e-05
2.875e-05
3.125e-05
3.375e-05
3.625e-05
3.875e-05
4.125e-05
4.375e-05
4.625e-05
4.875e-05
)
;
    }
    frontAndBack
    {
        type            empty;
        value           nonuniform 0();
    }
}


// ************************************************************************* //
