/*--------------------------------*- C++ -*----------------------------------*\
| =========                 |                                                 |
| \\      /  F ield         | OpenFOAM: The Open Source CFD Toolbox           |
|  \\    /   O peration     | Version:  4.1                                   |
|   \\  /    A nd           | Web:      www.OpenFOAM.org                      |
|    \\/     M anipulation  |                                                 |
\*---------------------------------------------------------------------------*/
FoamFile
{
    version     2.0;
    format      ascii;
    class       volVectorField;
    location    "4.1";
    object      U;
}
// * * * * * * * * * * * * * * * * * * * * * * * * * * * * * * * * * * * * * //

dimensions      [0 1 -1 0 0 0 0];

internalField   nonuniform List<vector> 
400
(
(0.025 -4.00986e-15 0)
(0.025 -2.49956e-15 0)
(0.025 9.06039e-17 0)
(0.025 -2.17024e-16 0)
(0.025 1.53023e-16 0)
(0.025 -1.30622e-16 0)
(0.025 1.05888e-16 0)
(0.025 -8.09532e-17 0)
(0.025 5.8514e-17 0)
(0.025 -4.27376e-17 0)
(0.025 2.91083e-17 0)
(0.025 -8.18947e-18 0)
(0.025 -6.57237e-18 0)
(0.025 1.62853e-17 0)
(0.025 -3.57571e-17 0)
(0.025 4.65424e-17 0)
(0.025 -7.88716e-17 0)
(0.025 1.02425e-16 0)
(0.025 -1.40937e-15 0)
(0.025 -2.29709e-15 0)
(0.075 -1.68706e-14 0)
(0.075 -1.24492e-14 0)
(0.075 -3.86936e-17 0)
(0.075 -7.31608e-16 0)
(0.075 4.64054e-16 0)
(0.075 -4.09109e-16 0)
(0.075 3.32393e-16 0)
(0.075 -2.50377e-16 0)
(0.075 1.7586e-16 0)
(0.075 -1.32269e-16 0)
(0.075 9.68912e-17 0)
(0.075 -2.18462e-17 0)
(0.075 -2.47561e-17 0)
(0.075 4.50541e-17 0)
(0.075 -1.15961e-16 0)
(0.075 1.4489e-16 0)
(0.075 -2.84488e-16 0)
(0.075 4.09474e-16 0)
(0.075 -7.59783e-15 0)
(0.075 -1.04943e-14 0)
(0.125 -3.7421e-14 0)
(0.125 -3.10683e-14 0)
(0.125 -9.36629e-16 0)
(0.125 -1.33253e-15 0)
(0.125 7.14416e-16 0)
(0.125 -6.64186e-16 0)
(0.125 5.399e-16 0)
(0.125 -3.99618e-16 0)
(0.125 2.69801e-16 0)
(0.125 -2.12151e-16 0)
(0.125 1.69712e-16 0)
(0.125 -2.51466e-17 0)
(0.125 -4.82072e-17 0)
(0.125 5.99707e-17 0)
(0.125 -1.99522e-16 0)
(0.125 2.30031e-16 0)
(0.125 -5.63099e-16 0)
(0.125 7.93487e-16 0)
(0.125 -1.9931e-14 0)
(0.125 -2.48306e-14 0)
(0.175 -6.05684e-14 0)
(0.175 -5.3921e-14 0)
(0.175 -2.43601e-15 0)
(0.175 -1.86009e-15 0)
(0.175 8.25916e-16 0)
(0.175 -8.24366e-16 0)
(0.175 6.69255e-16 0)
(0.175 -4.82091e-16 0)
(0.175 3.07674e-16 0)
(0.175 -2.60699e-16 0)
(0.175 2.29702e-16 0)
(0.175 -1.68154e-17 0)
(0.175 -6.83712e-17 0)
(0.175 5.47784e-17 0)
(0.175 -2.64482e-16 0)
(0.175 2.80102e-16 0)
(0.175 -8.48318e-16 0)
(0.175 1.219e-15 0)
(0.175 -3.59901e-14 0)
(0.175 -4.23921e-14 0)
(0.225 -8.25967e-14 0)
(0.225 -7.70578e-14 0)
(0.225 -4.30395e-15 0)
(0.225 -2.27979e-15 0)
(0.225 8.08975e-16 0)
(0.225 -8.89371e-16 0)
(0.225 7.2592e-16 0)
(0.225 -4.99371e-16 0)
(0.225 2.90757e-16 0)
(0.225 -2.81261e-16 0)
(0.225 2.74055e-16 0)
(0.225 2.3064e-18 0)
(0.225 -8.55421e-17 0)
(0.225 3.41759e-17 0)
(0.225 -3.08285e-16 0)
(0.225 2.95077e-16 0)
(0.225 -1.11733e-15 0)
(0.225 1.62455e-15 0)
(0.225 -5.3355e-14 0)
(0.225 -6.06839e-14 0)
(0.275 -1.00895e-13 0)
(0.275 -9.74304e-14 0)
(0.275 -6.26055e-15 0)
(0.275 -2.57564e-15 0)
(0.275 6.95028e-16 0)
(0.275 -8.75425e-16 0)
(0.275 7.20969e-16 0)
(0.275 -4.64869e-16 0)
(0.275 2.32589e-16 0)
(0.275 -2.78893e-16 0)
(0.275 3.04362e-16 0)
(0.275 2.39786e-17 0)
(0.275 -9.46193e-17 0)
(0.275 3.91217e-18 0)
(0.275 -3.31761e-16 0)
(0.275 2.81121e-16 0)
(0.275 -1.3503e-15 0)
(0.275 1.99358e-15 0)
(0.275 -6.99709e-14 0)
(0.275 -7.771e-14 0)
(0.325 -1.13684e-13 0)
(0.325 -1.12898e-13 0)
(0.325 -8.07243e-15 0)
(0.325 -2.73234e-15 0)
(0.325 5.0716e-16 0)
(0.325 -7.94464e-16 0)
(0.325 6.62816e-16 0)
(0.325 -3.88084e-16 0)
(0.325 1.41967e-16 0)
(0.325 -2.52603e-16 0)
(0.325 3.20056e-16 0)
(0.325 4.42132e-17 0)
(0.325 -9.32107e-17 0)
(0.325 -3.42523e-17 0)
(0.325 -3.3568e-16 0)
(0.325 2.42848e-16 0)
(0.325 -1.52821e-15 0)
(0.325 2.29777e-15 0)
(0.325 -8.41709e-14 0)
(0.325 -9.18389e-14 0)
(0.375 -1.19838e-13 0)
(0.375 -1.2202e-13 0)
(0.375 -9.54399e-15 0)
(0.375 -2.73683e-15 0)
(0.375 2.66003e-16 0)
(0.375 -6.56531e-16 0)
(0.375 5.64693e-16 0)
(0.375 -2.80695e-16 0)
(0.375 2.86659e-17 0)
(0.375 -2.06649e-16 0)
(0.375 3.19994e-16 0)
(0.375 6.59357e-17 0)
(0.375 -8.35736e-17 0)
(0.375 -7.59356e-17 0)
(0.375 -3.21511e-16 0)
(0.375 1.80017e-16 0)
(0.375 -1.6358e-15 0)
(0.375 2.51502e-15 0)
(0.375 -9.46361e-14 0)
(0.375 -1.01781e-13 0)
(0.425 -1.18966e-13 0)
(0.425 -1.2413e-13 0)
(0.425 -1.0523e-14 0)
(0.425 -2.58637e-15 0)
(0.425 -7.25905e-18 0)
(0.425 -4.74831e-16 0)
(0.425 4.36036e-16 0)
(0.425 -1.53317e-16 0)
(0.425 -9.99705e-17 0)
(0.425 -1.48172e-16 0)
(0.425 3.09678e-16 0)
(0.425 8.22725e-17 0)
(0.425 -6.78236e-17 0)
(0.425 -1.11692e-16 0)
(0.425 -2.94503e-16 0)
(0.425 9.79517e-17 0)
(0.425 -1.66453e-15 0)
(0.425 2.62342e-15 0)
(0.425 -1.00475e-13 0)
(0.425 -1.06692e-13 0)
(0.475 -1.11396e-13 0)
(0.475 -1.19313e-13 0)
(0.475 -1.09209e-14 0)
(0.475 -2.2943e-15 0)
(0.475 -2.91023e-16 0)
(0.475 -2.57965e-16 0)
(0.475 2.78152e-16 0)
(0.475 -1.51221e-17 0)
(0.475 -2.29488e-16 0)
(0.475 -8.34256e-17 0)
(0.475 2.88024e-16 0)
(0.475 9.1544e-17 0)
(0.475 -4.85276e-17 0)
(0.475 -1.45352e-16 0)
(0.475 -2.52043e-16 0)
(0.475 8.23727e-18 0)
(0.475 -1.61299e-15 0)
(0.475 2.60607e-15 0)
(0.475 -1.01278e-13 0)
(0.475 -1.06222e-13 0)
(0.525 -9.81128e-14 0)
(0.525 -1.08359e-13 0)
(0.525 -1.0729e-14 0)
(0.525 -1.87795e-15 0)
(0.525 -5.67783e-16 0)
(0.525 -2.06539e-17 0)
(0.525 1.034e-16 0)
(0.525 1.16104e-16 0)
(0.525 -3.42858e-16 0)
(0.525 -1.3968e-17 0)
(0.525 2.47908e-16 0)
(0.525 9.87322e-17 0)
(0.525 -2.77122e-17 0)
(0.525 -1.7798e-16 0)
(0.525 -1.94245e-16 0)
(0.525 -7.90925e-17 0)
(0.525 -1.48357e-15 0)
(0.525 2.44935e-15 0)
(0.525 -9.71191e-14 0)
(0.525 -1.00531e-13 0)
(0.575 -8.06105e-14 0)
(0.575 -9.26508e-14 0)
(0.575 -1.00037e-14 0)
(0.575 -1.37465e-15 0)
(0.575 -8.18956e-16 0)
(0.575 2.15841e-16 0)
(0.575 -6.62436e-17 0)
(0.575 2.4171e-16 0)
(0.575 -4.49957e-16 0)
(0.575 5.9407e-17 0)
(0.575 2.00349e-16 0)
(0.575 1.02558e-16 0)
(0.575 -1.05079e-17 0)
(0.575 -2.09219e-16 0)
(0.575 -1.29482e-16 0)
(0.575 -1.53759e-16 0)
(0.575 -1.28726e-15 0)
(0.575 2.16167e-15 0)
(0.575 -8.85347e-14 0)
(0.575 -9.02546e-14 0)
(0.625 -6.07705e-14 0)
(0.625 -7.39972e-14 0)
(0.625 -8.85878e-15 0)
(0.625 -8.22297e-16 0)
(0.625 -1.0229e-15 0)
(0.625 4.35018e-16 0)
(0.625 -2.28343e-16 0)
(0.625 3.56702e-16 0)
(0.625 -5.35156e-16 0)
(0.625 1.20904e-16 0)
(0.625 1.47809e-16 0)
(0.625 1.02132e-16 0)
(0.625 6.07367e-18 0)
(0.625 -2.33371e-16 0)
(0.625 -5.98249e-17 0)
(0.625 -2.13148e-16 0)
(0.625 -1.04532e-15 0)
(0.625 1.77282e-15 0)
(0.625 -7.64545e-14 0)
(0.625 -7.64535e-14 0)
(0.675 -4.06486e-14 0)
(0.675 -5.44147e-14 0)
(0.675 -7.44401e-15 0)
(0.675 -2.7928e-16 0)
(0.675 -1.1622e-15 0)
(0.675 6.19411e-16 0)
(0.675 -3.72144e-16 0)
(0.675 4.41317e-16 0)
(0.675 -5.78363e-16 0)
(0.675 1.64576e-16 0)
(0.675 9.09932e-17 0)
(0.675 1.00201e-16 0)
(0.675 1.30568e-17 0)
(0.675 -2.4687e-16 0)
(0.675 1.92215e-17 0)
(0.675 -2.60419e-16 0)
(0.675 -7.80906e-16 0)
(0.675 1.32029e-15 0)
(0.675 -6.20943e-14 0)
(0.675 -6.04871e-14 0)
(0.725 -2.23004e-14 0)
(0.725 -3.5942e-14 0)
(0.725 -5.90533e-15 0)
(0.725 1.95472e-16 0)
(0.725 -1.22467e-15 0)
(0.725 7.47396e-16 0)
(0.725 -4.82006e-16 0)
(0.725 4.93967e-16 0)
(0.725 -5.86884e-16 0)
(0.725 1.95681e-16 0)
(0.725 3.35099e-17 0)
(0.725 1.01871e-16 0)
(0.725 1.66058e-17 0)
(0.725 -2.4848e-16 0)
(0.725 9.12859e-17 0)
(0.725 -2.89387e-16 0)
(0.725 -5.10945e-16 0)
(0.725 8.47552e-16 0)
(0.725 -4.68604e-14 0)
(0.725 -4.39155e-14 0)
(0.775 -7.51903e-15 0)
(0.775 -2.03475e-14 0)
(0.775 -4.40274e-15 0)
(0.775 5.61989e-16 0)
(0.775 -1.2021e-15 0)
(0.775 8.10959e-16 0)
(0.775 -5.51716e-16 0)
(0.775 5.07164e-16 0)
(0.775 -5.54413e-16 0)
(0.775 2.16855e-16 0)
(0.775 -1.83903e-17 0)
(0.775 9.69441e-17 0)
(0.775 1.65403e-17 0)
(0.775 -2.28048e-16 0)
(0.775 1.42541e-16 0)
(0.775 -2.93654e-16 0)
(0.775 -2.62979e-16 0)
(0.775 4.15936e-16 0)
(0.775 -3.21762e-14 0)
(0.775 -2.83253e-14 0)
(0.825 2.30813e-15 0)
(0.825 -8.92817e-15 0)
(0.825 -3.04958e-15 0)
(0.825 7.59345e-16 0)
(0.825 -1.08762e-15 0)
(0.825 7.90532e-16 0)
(0.825 -5.58787e-16 0)
(0.825 4.67546e-16 0)
(0.825 -4.79539e-16 0)
(0.825 2.27139e-16 0)
(0.825 -5.76679e-17 0)
(0.825 8.08759e-17 0)
(0.825 1.09312e-17 0)
(0.825 -1.92491e-16 0)
(0.825 1.75041e-16 0)
(0.825 -2.76389e-16 0)
(0.825 -6.46964e-17 0)
(0.825 8.34373e-17 0)
(0.825 -1.93508e-14 0)
(0.825 -1.51825e-14 0)
(0.875 6.56976e-15 0)
(0.875 -2.14573e-15 0)
(0.875 -1.88591e-15 0)
(0.875 7.4745e-16 0)
(0.875 -8.65114e-16 0)
(0.875 6.65025e-16 0)
(0.875 -4.76705e-16 0)
(0.875 3.69599e-16 0)
(0.875 -3.6732e-16 0)
(0.875 2.02333e-16 0)
(0.875 -7.83384e-17 0)
(0.875 6.26117e-17 0)
(0.875 9.71805e-18 0)
(0.875 -1.41062e-16 0)
(0.875 1.65321e-16 0)
(0.875 -2.30222e-16 0)
(0.875 6.31032e-17 0)
(0.875 -1.10919e-16 0)
(0.875 -9.40064e-15 0)
(0.875 -5.68144e-15 0)
(0.925 5.68377e-15 0)
(0.925 4.52346e-16 0)
(0.925 -9.23699e-16 0)
(0.925 5.23905e-16 0)
(0.925 -5.24567e-16 0)
(0.925 4.21033e-16 0)
(0.925 -3.03866e-16 0)
(0.925 2.22446e-16 0)
(0.925 -2.11494e-16 0)
(0.925 1.33012e-16 0)
(0.925 -6.573e-17 0)
(0.925 3.94223e-17 0)
(0.925 5.22301e-18 0)
(0.925 -7.3688e-17 0)
(0.925 1.09095e-16 0)
(0.925 -1.46333e-16 0)
(0.925 9.76014e-17 0)
(0.925 -1.40774e-16 0)
(0.925 -3.04325e-15 0)
(0.925 -5.96759e-16 0)
(0.975 2.12379e-15 0)
(0.975 4.72267e-16 0)
(0.975 -2.54453e-16 0)
(0.975 1.78692e-16 0)
(0.975 -1.66598e-16 0)
(0.975 1.32578e-16 0)
(0.975 -1.00031e-16 0)
(0.975 7.25242e-17 0)
(0.975 -6.34046e-17 0)
(0.975 4.22658e-17 0)
(0.975 -2.36694e-17 0)
(0.975 1.49198e-17 0)
(0.975 5.70968e-19 0)
(0.975 -2.07181e-17 0)
(0.975 3.46829e-17 0)
(0.975 -4.71786e-17 0)
(0.975 4.25063e-17 0)
(0.975 -6.68907e-17 0)
(0.975 -4.0412e-16 0)
(0.975 4.18878e-16 0)
)
;

boundaryField
{
    top
    {
        type            fixedValue;
        value           uniform (1 0 0);
    }
    bottom
    {
        type            fixedValue;
        value           uniform (0 0 0);
    }
    inlet
    {
        type            zeroGradient;
    }
    outlet
    {
        type            zeroGradient;
    }
    frontAndBack
    {
        type            empty;
    }
}


// ************************************************************************* //
