/*--------------------------------*- C++ -*----------------------------------*\
| =========                 |                                                 |
| \\      /  F ield         | OpenFOAM: The Open Source CFD Toolbox           |
|  \\    /   O peration     | Version:  4.1                                   |
|   \\  /    A nd           | Web:      www.OpenFOAM.org                      |
|    \\/     M anipulation  |                                                 |
\*---------------------------------------------------------------------------*/
FoamFile
{
    version     2.0;
    format      ascii;
    class       surfaceScalarField;
    location    "0.5";
    object      phi;
}
// * * * * * * * * * * * * * * * * * * * * * * * * * * * * * * * * * * * * * //

dimensions      [0 3 -1 0 0 0 0];

internalField   nonuniform List<scalar> 
760
(
3.14526e-05
2.08459e-10
3.14526e-05
6.44478e-11
3.14527e-05
-1.04318e-10
3.14526e-05
3.69791e-11
3.14527e-05
-3.18261e-11
3.14526e-05
1.14004e-11
3.14527e-05
-1.66718e-11
3.14526e-05
2.39729e-11
3.14527e-05
1.70544e-12
3.14526e-05
8.95737e-12
3.14526e-05
-1.30325e-11
3.14526e-05
7.57934e-12
3.14527e-05
-7.4112e-12
3.14526e-05
6.89729e-12
3.14527e-05
-1.25822e-11
3.14526e-05
1.31193e-11
3.14527e-05
-2.28857e-11
3.14526e-05
5.68662e-11
3.14525e-05
1.05646e-10
-1.15288e-10
8.80304e-05
5.73133e-10
8.80302e-05
2.55225e-10
8.80303e-05
-2.58534e-10
8.80303e-05
5.65845e-11
8.80304e-05
-6.28426e-11
8.80303e-05
3.29745e-11
8.80304e-05
-2.85846e-11
8.80303e-05
4.75513e-11
8.80303e-05
3.83805e-12
8.80303e-05
2.13065e-11
8.80303e-05
-2.46229e-11
8.80303e-05
1.18227e-11
8.80304e-05
-1.8922e-11
8.80303e-05
1.6318e-11
8.80304e-05
-2.72822e-11
8.80303e-05
3.37085e-11
8.80304e-05
-7.4957e-11
8.80302e-05
2.13198e-10
8.803e-05
3.18187e-10
-2.92276e-10
0.000138291
9.38392e-10
0.000138291
5.22568e-10
0.000138291
-3.60252e-10
0.000138291
6.02487e-11
0.000138291
-7.55375e-11
0.000138291
5.09865e-11
0.000138291
-3.1929e-11
0.000138291
5.94172e-11
0.000138291
4.72063e-12
0.000138291
2.99685e-11
0.000138291
-2.94466e-11
0.000138291
1.28625e-11
0.000138291
-2.74478e-11
0.000138291
2.45543e-11
0.000138291
-3.89791e-11
0.000138291
5.94827e-11
0.000138291
-1.4501e-10
0.000138291
4.29138e-10
0.00013829
5.75728e-10
-4.56924e-10
0.000182244
1.21598e-09
0.000182244
8.022e-10
0.000182244
-3.57714e-10
0.000182244
7.3384e-11
0.000182244
-7.07345e-11
0.000182244
6.33163e-11
0.000182244
-3.0746e-11
0.000182244
6.33928e-11
0.000182244
4.59471e-12
0.000182244
3.41034e-11
0.000182244
-3.00589e-11
0.000182244
1.28954e-11
0.000182244
-3.18225e-11
0.000182244
3.13147e-11
0.000182244
-4.86983e-11
0.000182244
8.87533e-11
0.000182244
-2.22459e-10
0.000182244
6.60918e-10
0.000182243
8.50276e-10
-5.81842e-10
0.000219899
1.34179e-09
0.000219899
1.0369e-09
0.000219899
-2.28887e-10
0.000219899
1.10151e-10
0.000219899
-4.80363e-11
0.000219899
7.20753e-11
0.000219899
-2.55422e-11
0.000219899
6.2216e-11
0.000219899
4.53504e-12
0.000219899
3.40464e-11
0.000219899
-2.78831e-11
0.000219899
1.17957e-11
0.000219899
-3.27111e-11
0.000219899
3.61123e-11
0.000219899
-5.64383e-11
0.000219898
1.17087e-10
0.000219899
-2.962e-10
0.000219898
8.73998e-10
0.000219898
1.11588e-09
-6.46497e-10
0.000251264
1.2786e-09
0.000251264
1.17974e-09
0.000251264
2.49627e-11
0.000251264
1.78191e-10
0.000251264
-8.19199e-12
0.000251264
7.88033e-11
0.000251264
-1.72421e-11
0.000251264
5.72404e-11
0.000251264
4.84954e-12
0.000251264
3.04388e-11
0.000251264
-2.37124e-11
0.000251264
9.60935e-12
0.000251264
-3.06888e-11
0.000251264
3.87171e-11
0.000251264
-6.16492e-11
0.000251264
1.40511e-10
0.000251264
-3.55118e-10
0.000251264
1.04023e-09
0.000251263
1.34415e-09
-6.40452e-10
0.000276347
1.02034e-09
0.000276347
1.20152e-09
0.000276347
3.81096e-10
0.000276346
2.76765e-10
0.000276346
4.60615e-11
0.000276346
8.42435e-11
0.000276346
-6.81975e-12
0.000276346
4.9262e-11
0.000276346
5.5008e-12
0.000276346
2.40031e-11
0.000276346
-1.80937e-11
0.000276346
6.50076e-12
0.000276346
-2.62783e-11
0.000276346
3.90399e-11
0.000276346
-6.36736e-11
0.000276346
1.55726e-10
0.000276346
-3.90194e-10
0.000276346
1.1406e-09
0.000276346
1.50909e-09
-5.63786e-10
0.000295153
5.91973e-10
0.000295154
1.09544e-09
0.000295153
8.00556e-10
0.000295153
3.96754e-10
0.000295153
1.09701e-10
0.000295153
8.82025e-11
0.000295153
4.74223e-12
0.000295153
3.88928e-11
0.000295153
6.32508e-12
0.000295153
1.54584e-11
0.000295153
-1.14757e-11
0.000295153
2.70358e-12
0.000295153
-1.99645e-11
0.000295153
3.71323e-11
0.000295153
-6.20576e-11
0.000295153
1.60545e-10
0.000295153
-3.96078e-10
0.000295153
1.16616e-09
0.000295153
1.59137e-09
-4.25909e-10
0.000307688
4.52091e-11
0.000307689
8.77704e-10
0.000307688
1.23483e-09
0.000307688
5.22384e-10
0.000307688
1.75763e-10
0.000307688
8.96779e-11
0.000307688
1.64446e-11
0.000307688
2.67152e-11
0.000307688
7.14981e-12
0.000307688
5.517e-12
0.000307688
-4.26939e-12
0.000307688
-1.50895e-12
0.000307688
-1.22315e-11
0.000307688
3.32016e-11
0.000307688
-5.67476e-11
0.000307688
1.54289e-10
0.000307688
-3.7198e-10
0.000307688
1.11781e-09
0.000307688
1.58147e-09
-2.435e-10
0.000313955
-5.49593e-10
0.000313955
5.83848e-10
0.000313955
1.6328e-09
0.000313955
6.3427e-10
0.000313955
2.3627e-10
0.000313955
8.72369e-11
0.000313955
2.73194e-11
0.000313955
1.33496e-11
0.000313955
7.83977e-12
0.000313955
-5.10688e-12
0.000313955
3.13207e-12
0.000313955
-5.83837e-12
0.000313955
-3.5935e-12
0.000313955
2.76219e-11
0.000313955
-4.81761e-11
0.000313955
1.37921e-10
0.000313955
-3.21712e-10
0.000313955
1.00506e-09
0.000313955
1.48118e-09
-3.79211e-11
0.000313955
-1.1141e-09
0.000313955
2.61363e-10
0.000313955
1.94719e-09
0.000313955
7.13181e-10
0.000313955
2.83524e-10
0.000313955
7.95508e-11
0.000313955
3.65273e-11
0.000313955
-5.09941e-13
0.000313955
8.3063e-12
0.000313955
-1.56951e-11
0.000313955
1.03426e-11
0.000313955
-9.97123e-12
0.000313955
5.3929e-12
0.000313955
2.09229e-11
0.000313955
-3.72302e-11
0.000313955
1.13848e-10
0.000313955
-2.52889e-10
0.000313955
8.44164e-10
0.000313955
1.3032e-09
1.67518e-10
0.000307688
-1.57375e-09
0.000307688
-3.96798e-11
0.000307688
2.13992e-09
0.000307688
7.43827e-10
0.000307688
3.11468e-10
0.000307688
6.59535e-11
0.000307688
4.3465e-11
0.000307688
-1.40802e-11
0.000307688
8.49328e-12
0.000307688
-2.55304e-11
0.000307688
1.69753e-11
0.000307688
-1.35892e-11
0.000307688
1.41326e-11
0.000307688
1.3752e-11
0.000307688
-2.51168e-11
0.000307688
8.54352e-11
0.000307688
-1.75466e-10
0.000307688
6.55822e-10
0.000307689
1.06902e-09
3.50158e-10
0.000295153
-1.8689e-09
0.000295153
-2.76156e-10
0.000295153
2.18627e-09
0.000295153
7.18035e-10
0.000295153
3.16767e-10
0.000295153
4.68763e-11
0.000295153
4.78253e-11
0.000295153
-2.64912e-11
0.000295153
8.35577e-12
0.000295153
-3.39026e-11
0.000295153
2.26344e-11
0.000295153
-1.63839e-11
0.000295153
2.20064e-11
0.000295153
6.81565e-12
0.000295153
-1.31673e-11
0.000295153
5.63586e-11
0.000295153
-9.99032e-11
0.000295153
4.62521e-10
0.000295154
8.0569e-10
4.90299e-10
0.000276346
-1.9637e-09
0.000276346
-4.19673e-10
0.000276347
2.07787e-09
0.000276347
6.36763e-10
0.000276347
2.99346e-10
0.000276347
2.40456e-11
0.000276347
4.95641e-11
0.000276347
-3.68033e-11
0.000276347
7.84787e-12
0.000276347
-4.01069e-11
0.000276347
2.69046e-11
0.000276347
-1.80788e-11
0.000276347
2.83836e-11
0.000276347
8.10791e-13
0.000276347
-2.63399e-12
0.000276347
2.99523e-11
0.000276347
-3.53285e-11
0.000276347
2.85717e-10
0.000276347
5.41857e-10
5.73141e-10
0.000251263
-1.85176e-09
0.000251263
-4.61191e-10
0.000251264
1.82451e-09
0.000251264
5.10629e-10
0.000251264
2.6225e-10
0.000251264
3.93971e-13
0.000251264
4.8765e-11
0.000251264
-4.40099e-11
0.000251264
6.94542e-12
0.000251264
-4.3436e-11
0.000251264
2.93262e-11
0.000251264
-1.84605e-11
0.000251264
3.26302e-11
0.000251264
-3.64333e-12
0.000251264
5.45808e-12
0.000251264
8.71001e-12
0.000251264
1.19504e-11
0.000251264
1.42966e-10
0.000251264
3.04081e-10
5.90347e-10
0.000219898
-1.55772e-09
0.000219898
-4.11822e-10
0.000219899
1.45463e-09
0.000219899
3.58835e-10
0.000219899
2.10827e-10
0.000219899
-2.0283e-11
0.000219899
4.54627e-11
0.000219899
-4.69658e-11
0.000219899
5.72272e-12
0.000219899
-4.31791e-11
0.000219899
2.93451e-11
0.000219899
-1.74182e-11
0.000219899
3.40974e-11
0.000219899
-6.07509e-12
0.000219899
1.03697e-11
0.000219899
-5.9972e-12
0.000219899
3.92647e-11
0.000219899
4.5277e-11
0.000219899
1.13932e-10
5.41201e-10
0.000182243
-1.13525e-09
0.000182243
-3.0007e-10
0.000182244
1.01468e-09
0.000182244
2.0664e-10
0.000182244
1.51457e-10
0.000182244
-3.38234e-11
0.000182244
3.95505e-11
0.000182244
-4.41135e-11
0.000182244
4.54094e-12
0.000182244
-3.86794e-11
0.000182244
2.61716e-11
0.000182244
-1.49875e-11
0.000182244
3.21047e-11
0.000182244
-6.27307e-12
0.000182244
1.15802e-11
0.000182244
-1.40077e-11
0.000182244
4.75426e-11
0.000182244
-4.87921e-12
0.000182244
-1.34292e-11
4.33367e-10
0.00013829
-6.61243e-10
0.00013829
-1.66741e-10
0.000138291
5.66099e-10
0.000138291
8.17792e-11
0.000138291
9.00704e-11
0.000138291
-3.613e-11
0.000138291
3.09417e-11
0.000138291
-3.26567e-11
0.000138291
4.5644e-12
0.000138291
-2.95269e-11
0.000138291
1.83925e-11
0.000138291
-1.1501e-11
0.000138291
2.58765e-11
0.000138291
-4.41913e-12
0.000138291
8.55563e-12
0.000138291
-1.64207e-11
0.000138291
4.02194e-11
0.000138291
-1.4171e-11
0.000138291
-6.87869e-11
2.83114e-10
8.80301e-05
-2.30399e-10
8.803e-05
-5.76542e-11
8.80303e-05
1.87106e-10
8.80304e-05
1.41828e-11
8.80305e-05
3.15972e-11
8.80305e-05
-2.44612e-11
8.80305e-05
1.75241e-11
8.80305e-05
-1.15842e-11
8.80305e-05
5.11704e-12
8.80305e-05
-1.55413e-11
8.80305e-05
5.91003e-12
8.80305e-05
-5.88713e-12
8.80305e-05
1.48671e-11
8.80305e-05
-1.01493e-12
8.80305e-05
1.8855e-12
8.80305e-05
-1.31053e-11
8.80305e-05
2.25472e-11
8.80305e-05
-2.66838e-12
8.80305e-05
-5.26458e-11
1.12934e-10
3.14525e-05
3.14525e-05
3.14527e-05
3.14527e-05
3.14527e-05
3.14527e-05
3.14527e-05
3.14527e-05
3.14527e-05
3.14527e-05
3.14527e-05
3.14527e-05
3.14527e-05
3.14527e-05
3.14527e-05
3.14527e-05
3.14527e-05
3.14527e-05
3.14527e-05
)
;

boundaryField
{
    top
    {
        type            calculated;
        value           uniform 0;
    }
    bottom
    {
        type            calculated;
        value           uniform 0;
    }
    inlet
    {
        type            calculated;
        value           nonuniform List<scalar> 
20
(
-3.14528e-05
-8.80307e-05
-0.000138291
-0.000182244
-0.000219899
-0.000251264
-0.000276347
-0.000295153
-0.000307688
-0.000313954
-0.000313954
-0.000307688
-0.000295153
-0.000276346
-0.000251264
-0.000219899
-0.000182244
-0.000138291
-8.80305e-05
-3.14528e-05
)
;
    }
    outlet
    {
        type            calculated;
        value           nonuniform List<scalar> 
20
(
3.14526e-05
8.80302e-05
0.00013829
0.000182243
0.000219898
0.000251263
0.000276346
0.000295153
0.000307688
0.000313955
0.000313955
0.000307688
0.000295153
0.000276347
0.000251264
0.000219899
0.000182244
0.000138291
8.80306e-05
3.14528e-05
)
;
    }
    frontAndBack
    {
        type            empty;
        value           nonuniform 0();
    }
}


// ************************************************************************* //
