/*--------------------------------*- C++ -*----------------------------------*\
| =========                 |                                                 |
| \\      /  F ield         | OpenFOAM: The Open Source CFD Toolbox           |
|  \\    /   O peration     | Version:  4.1                                   |
|   \\  /    A nd           | Web:      www.OpenFOAM.org                      |
|    \\/     M anipulation  |                                                 |
\*---------------------------------------------------------------------------*/
FoamFile
{
    version     2.0;
    format      ascii;
    class       volVectorField;
    location    "0.5";
    object      U;
}
// * * * * * * * * * * * * * * * * * * * * * * * * * * * * * * * * * * * * * //

dimensions      [0 1 -1 0 0 0 0];

internalField   nonuniform List<vector> 
400
(
(0.629055 1.0526e-07 0)
(0.629051 2.2493e-08 0)
(0.629052 -6.24283e-08 0)
(0.629053 1.91461e-08 0)
(0.629053 -1.77951e-08 0)
(0.629053 6.50084e-09 0)
(0.629053 -6.27784e-09 0)
(0.629053 1.39664e-08 0)
(0.629053 3.3884e-10 0)
(0.629053 3.69693e-09 0)
(0.629053 -6.79951e-09 0)
(0.629052 4.31555e-09 0)
(0.629053 -3.90029e-09 0)
(0.629053 3.6772e-09 0)
(0.629054 -8.37069e-09 0)
(0.629052 3.64773e-09 0)
(0.629053 -9.49167e-09 0)
(0.629053 2.93191e-08 0)
(0.62905 4.91375e-08 0)
(0.629051 -5.96601e-08 0)
(1.76061 3.72059e-07 0)
(1.7606 1.36243e-07 0)
(1.7606 -1.79137e-07 0)
(1.76061 5.04829e-08 0)
(1.76061 -4.90873e-08 0)
(1.76061 2.10732e-08 0)
(1.76061 -2.52586e-08 0)
(1.76061 3.6646e-08 0)
(1.76061 3.01089e-09 0)
(1.76061 1.56021e-08 0)
(1.76061 -1.9408e-08 0)
(1.76061 9.57781e-09 0)
(1.76061 -1.28626e-08 0)
(1.76061 1.18259e-08 0)
(1.76061 -1.9281e-08 0)
(1.76061 2.22744e-08 0)
(1.76061 -4.24995e-08 0)
(1.76061 1.13913e-07 0)
(1.7606 1.9392e-07 0)
(1.7606 -1.97635e-07 0)
(2.76582 7.65324e-07 0)
(2.76581 3.76505e-07 0)
(2.76581 -3.32458e-07 0)
(2.76582 5.76682e-08 0)
(2.76581 -7.32696e-08 0)
(2.76581 4.30592e-08 0)
(2.76582 -2.9872e-08 0)
(2.76581 5.56046e-08 0)
(2.76582 3.85764e-09 0)
(2.76581 2.59254e-08 0)
(2.76582 -2.8047e-08 0)
(2.76581 1.32462e-08 0)
(2.76582 -2.38588e-08 0)
(2.76581 2.05165e-08 0)
(2.76582 -3.42969e-08 0)
(2.76581 4.42143e-08 0)
(2.76582 -1.06674e-07 0)
(2.76581 3.16271e-07 0)
(2.76581 4.3667e-07 0)
(2.76581 -3.81672e-07 0)
(3.64488 1.10472e-06 0)
(3.64488 6.64386e-07 0)
(3.64487 -3.86151e-07 0)
(3.64488 6.30758e-08 0)
(3.64487 -7.76988e-08 0)
(3.64487 5.79165e-08 0)
(3.64487 -3.27006e-08 0)
(3.64487 6.30977e-08 0)
(3.64488 4.55805e-09 0)
(3.64487 3.29442e-08 0)
(3.64488 -3.04711e-08 0)
(3.64487 1.30743e-08 0)
(3.64488 -3.03719e-08 0)
(3.64487 2.86231e-08 0)
(3.64488 -4.44244e-08 0)
(3.64487 7.33603e-08 0)
(3.64488 -1.81967e-07 0)
(3.64487 5.44203e-07 0)
(3.64487 7.10023e-07 0)
(3.64487 -5.31154e-07 0)
(4.39798 1.32308e-06 0)
(4.39798 9.37894e-07 0)
(4.39797 -3.25371e-07 0)
(4.39797 8.42097e-08 0)
(4.39797 -6.40975e-08 0)
(4.39797 6.84889e-08 0)
(4.39797 -2.90635e-08 0)
(4.39797 6.39692e-08 0)
(4.39797 4.42707e-09 0)
(4.39797 3.5048e-08 0)
(4.39797 -2.95309e-08 0)
(4.39797 1.26335e-08 0)
(4.39797 -3.31269e-08 0)
(4.39797 3.42823e-08 0)
(4.39797 -5.3086e-08 0)
(4.39797 1.03505e-07 0)
(4.39797 -2.61379e-07 0)
(4.39797 7.76232e-07 0)
(4.39796 9.88996e-07 0)
(4.39796 -6.31132e-07 0)
(5.02528 1.35976e-06 0)
(5.02529 1.13709e-06 0)
(5.02527 -1.30344e-07 0)
(5.02528 1.35466e-07 0)
(5.02527 -3.23636e-08 0)
(5.02527 7.58308e-08 0)
(5.02528 -2.20375e-08 0)
(5.02527 6.06143e-08 0)
(5.02528 4.59244e-09 0)
(5.02527 3.30015e-08 0)
(5.02528 -2.61807e-08 0)
(5.02527 1.09368e-08 0)
(5.02528 -3.23943e-08 0)
(5.02527 3.80245e-08 0)
(5.02528 -5.97527e-08 0)
(5.02527 1.30345e-07 0)
(5.02528 -3.30509e-07 0)
(5.02527 9.71487e-07 0)
(5.02527 1.24321e-06 0)
(5.02526 -6.60932e-07 0)
(5.52693 1.19632e-06 0)
(5.52695 1.22402e-06 0)
(5.52693 1.82937e-07 0)
(5.52693 2.20157e-07 0)
(5.52693 1.5718e-08 0)
(5.52693 8.18116e-08 0)
(5.52693 -1.24686e-08 0)
(5.52693 5.39424e-08 0)
(5.52693 5.14969e-09 0)
(5.52692 2.78081e-08 0)
(5.52693 -2.1165e-08 0)
(5.52692 8.22297e-09 0)
(5.52693 -2.90567e-08 0)
(5.52692 3.95004e-08 0)
(5.52693 -6.35401e-08 0)
(5.52692 1.50454e-07 0)
(5.52693 -3.79508e-07 0)
(5.52692 1.10777e-06 0)
(5.52693 1.44576e-06 0)
(5.52692 -6.17827e-07 0)
(5.90306 8.43068e-07 0)
(5.90308 1.18026e-06 0)
(5.90306 5.8188e-07 0)
(5.90306 3.32915e-07 0)
(5.90306 7.62471e-08 0)
(5.90306 8.6708e-08 0)
(5.90306 -1.21686e-09 0)
(5.90306 4.46172e-08 0)
(5.90306 5.92771e-09 0)
(5.90306 2.0143e-08 0)
(5.90306 -1.49315e-08 0)
(5.90305 4.71753e-09 0)
(5.90307 -2.35933e-08 0)
(5.90305 3.86856e-08 0)
(5.90307 -6.38233e-08 0)
(5.90305 1.60896e-07 0)
(5.90307 -4.00924e-07 0)
(5.90305 1.17139e-06 0)
(5.90306 1.57317e-06 0)
(5.90305 -5.07039e-07 0)
(6.15376 3.39765e-07 0)
(6.15378 1.01095e-06 0)
(6.15376 1.02111e-06 0)
(6.15376 4.60625e-07 0)
(6.15376 1.4313e-07 0)
(6.15376 8.9795e-08 0)
(6.15376 1.06704e-08 0)
(6.15376 3.31968e-08 0)
(6.15376 6.79656e-09 0)
(6.15376 1.07217e-08 0)
(6.15377 -7.92377e-09 0)
(6.15376 6.47385e-10 0)
(6.15377 -1.64535e-08 0)
(6.15375 3.56998e-08 0)
(6.15377 -6.03245e-08 0)
(6.15375 1.60183e-07 0)
(6.15377 -3.91495e-07 0)
(6.15375 1.15851e-06 0)
(6.15377 1.61029e-06 0)
(6.15376 -3.42083e-07 0)
(6.27909 -2.50159e-07 0)
(6.27912 7.43545e-07 0)
(6.2791 1.44923e-06 0)
(6.2791 5.8474e-07 0)
(6.2791 2.08566e-07 0)
(6.27909 8.97319e-08 0)
(6.2791 2.21985e-08 0)
(6.27909 2.02605e-08 0)
(6.2791 7.58468e-09 0)
(6.27909 2.59494e-10 0)
(6.2791 -5.28588e-10 0)
(6.27909 -3.69551e-09 0)
(6.2791 -8.13613e-09 0)
(6.27909 3.08339e-08 0)
(6.2791 -5.32197e-08 0)
(6.27909 1.48449e-07 0)
(6.2791 -3.52834e-07 0)
(6.27909 1.0747e-06 0)
(6.27911 1.55313e-06 0)
(6.27909 -1.42629e-07 0)
(6.27908 -8.49447e-07 0)
(6.27911 4.21943e-07 0)
(6.2791 1.81567e-06 0)
(6.2791 6.84906e-07 0)
(6.2791 2.64334e-07 0)
(6.27909 8.49823e-08 0)
(6.2791 3.24289e-08 0)
(6.27909 6.45798e-09 0)
(6.2791 8.1807e-09 0)
(6.27909 -1.05248e-08 0)
(6.2791 6.86773e-09 0)
(6.27909 -8.00184e-09 0)
(6.2791 8.22924e-10 0)
(6.27909 2.45462e-08 0)
(6.2791 -4.31913e-08 0)
(6.27909 1.27472e-07 0)
(6.2791 -2.90961e-07 0)
(6.27909 9.33379e-07 0)
(6.27911 1.40931e-06 0)
(6.2791 6.83599e-08 0)
(6.15375 -1.37868e-06 0)
(6.15377 9.76163e-08 0)
(6.15376 2.07672e-06 0)
(6.15376 7.42905e-07 0)
(6.15376 3.03205e-07 0)
(6.15376 7.44064e-08 0)
(6.15377 4.0612e-08 0)
(6.15376 -7.4732e-09 0)
(6.15377 8.51713e-09 0)
(6.15376 -2.09113e-08 0)
(6.15377 1.38815e-08 0)
(6.15376 -1.19532e-08 0)
(6.15377 9.84418e-09 0)
(6.15376 1.74344e-08 0)
(6.15377 -3.13323e-08 0)
(6.15376 1.00301e-07 0)
(6.15377 -2.1511e-07 0)
(6.15375 7.53583e-07 0)
(6.15378 1.19672e-06 0)
(6.15377 2.67352e-07 0)
(5.90305 -1.76818e-06 0)
(5.90307 -1.80491e-07 0)
(5.90306 2.20021e-06 0)
(5.90306 7.46304e-07 0)
(5.90306 3.20247e-07 0)
(5.90306 5.77962e-08 0)
(5.90307 4.62833e-08 0)
(5.90306 -2.07025e-08 0)
(5.90307 8.54897e-09 0)
(5.90306 -3.01835e-08 0)
(5.90307 2.01233e-08 0)
(5.90306 -1.52333e-08 0)
(5.90307 1.83137e-08 0)
(5.90306 1.0194e-08 0)
(5.90307 -1.8963e-08 0)
(5.90306 7.0637e-08 0)
(5.90307 -1.35992e-07 0)
(5.90305 5.57515e-07 0)
(5.90308 9.4062e-07 0)
(5.90307 4.32715e-07 0)
(5.52692 -1.96839e-06 0)
(5.52693 -3.74967e-07 0)
(5.52693 2.16912e-06 0)
(5.52693 6.91166e-07 0)
(5.52693 3.13711e-07 0)
(5.52693 3.62069e-08 0)
(5.52694 4.92831e-08 0)
(5.52693 -3.23135e-08 0)
(5.52694 8.24703e-09 0)
(5.52693 -3.76396e-08 0)
(5.52694 2.51767e-08 0)
(5.52693 -1.75428e-08 0)
(5.52694 2.56186e-08 0)
(5.52693 3.54999e-09 0)
(5.52694 -7.43846e-09 0)
(5.52693 4.21515e-08 0)
(5.52694 -6.38505e-08 0)
(5.52692 3.6778e-07 0)
(5.52695 6.69897e-07 0)
(5.52694 5.46863e-07 0)
(5.02527 -1.95753e-06 0)
(5.02527 -4.66386e-07 0)
(5.02527 1.98398e-06 0)
(5.02528 5.83309e-07 0)
(5.02528 2.85241e-07 0)
(5.02528 1.20392e-08 0)
(5.02528 4.97339e-08 0)
(5.02528 -4.13748e-08 0)
(5.02528 7.51367e-09 0)
(5.02528 -4.25858e-08 0)
(5.02528 2.86716e-08 0)
(5.02527 -1.86213e-08 0)
(5.02528 3.11005e-08 0)
(5.02527 -1.83303e-09 0)
(5.02528 2.11056e-09 0)
(5.02527 1.78171e-08 0)
(5.02529 -6.74647e-09 0)
(5.02527 2.04574e-07 0)
(5.02529 4.13021e-07 0)
(5.02528 5.98023e-07 0)
(4.39797 -1.74445e-06 0)
(4.39796 -4.56014e-07 0)
(4.39797 1.6635e-06 0)
(4.39797 4.37968e-07 0)
(4.39798 2.3939e-07 0)
(4.39797 -1.12732e-08 0)
(4.39798 4.77469e-08 0)
(4.39797 -4.68503e-08 0)
(4.39798 6.40344e-09 0)
(4.39797 -4.43391e-08 0)
(4.39798 3.00769e-08 0)
(4.39797 -1.82935e-08 0)
(4.39798 3.41757e-08 0)
(4.39797 -5.44156e-09 0)
(4.39798 8.78463e-09 0)
(4.39797 -3.47833e-10 0)
(4.39798 3.07483e-08 0)
(4.39797 8.27618e-08 0)
(4.39798 1.94557e-07 0)
(4.39798 5.81489e-07 0)
(3.64487 -1.36539e-06 0)
(3.64486 -3.64641e-07 0)
(3.64487 1.24187e-06 0)
(3.64488 2.78242e-07 0)
(3.64488 1.81916e-07 0)
(3.64488 -2.94566e-08 0)
(3.64488 4.29785e-08 0)
(3.64488 -4.70999e-08 0)
(3.64488 5.36597e-09 0)
(3.64488 -4.19632e-08 0)
(3.64488 2.86782e-08 0)
(3.64488 -1.67656e-08 0)
(3.64488 3.39402e-08 0)
(3.64488 -6.50859e-09 0)
(3.64488 1.1925e-08 0)
(3.64487 -1.16179e-08 0)
(3.64488 4.75328e-08 0)
(3.64487 1.01245e-08 0)
(3.64488 3.28985e-08 0)
(3.64488 4.99101e-07 0)
(2.76582 -8.96747e-07 0)
(2.7658 -2.31199e-07 0)
(2.76581 7.8355e-07 0)
(2.76582 1.34741e-07 0)
(2.76582 1.19451e-07 0)
(2.76582 -3.90747e-08 0)
(2.76582 3.62538e-08 0)
(2.76582 -4.0548e-08 0)
(2.76582 2.8145e-09 0)
(2.76582 -3.53631e-08 0)
(2.76582 2.40949e-08 0)
(2.76582 -1.21259e-08 0)
(2.76582 2.97874e-08 0)
(2.76582 -6.41488e-09 0)
(2.76582 1.09101e-08 0)
(2.76582 -1.68387e-08 0)
(2.76582 4.83896e-08 0)
(2.76582 -1.79959e-08 0)
(2.76582 -5.78807e-08 0)
(2.76582 3.63194e-07 0)
(1.76061 -4.17151e-07 0)
(1.7606 -1.02986e-07 0)
(1.7606 3.44905e-07 0)
(1.76061 3.40619e-08 0)
(1.76061 5.74629e-08 0)
(1.76061 -3.29641e-08 0)
(1.76061 2.45762e-08 0)
(1.76061 -2.14643e-08 0)
(1.76061 6.5773e-09 0)
(1.76061 -2.27976e-08 0)
(1.76061 1.16752e-08 0)
(1.76061 -9.87461e-09 0)
(1.76061 2.07753e-08 0)
(1.76061 -2.18408e-09 0)
(1.76061 5.28063e-09 0)
(1.76061 -1.63064e-08 0)
(1.76061 3.16993e-08 0)
(1.76061 -8.72813e-09 0)
(1.76061 -7.34474e-08 0)
(1.76061 1.94011e-07 0)
(0.629054 -1.11003e-07 0)
(0.629049 -2.49355e-08 0)
(0.629051 9.09662e-08 0)
(0.629054 4.08257e-09 0)
(0.629054 1.5253e-08 0)
(0.629054 -1.4883e-08 0)
(0.629054 9.0394e-09 0)
(0.629054 -7.88685e-09 0)
(0.629054 -4.58957e-10 0)
(0.629053 -8.52622e-09 0)
(0.629054 5.63818e-09 0)
(0.629053 -9.37183e-10 0)
(0.629054 7.10279e-09 0)
(0.629053 -1.07289e-09 0)
(0.629054 1.16312e-09 0)
(0.629053 -7.09458e-09 0)
(0.629055 1.4195e-08 0)
(0.629053 -4.93696e-09 0)
(0.629054 -3.31097e-08 0)
(0.629054 5.7038e-08 0)
)
;

boundaryField
{
    top
    {
        type            fixedValue;
        value           uniform (0 0 0);
    }
    bottom
    {
        type            fixedValue;
        value           uniform (0 0 0);
    }
    inlet
    {
        type            zeroGradient;
    }
    outlet
    {
        type            zeroGradient;
    }
    frontAndBack
    {
        type            empty;
    }
}


// ************************************************************************* //
