/*--------------------------------*- C++ -*----------------------------------*\
| =========                 |                                                 |
| \\      /  F ield         | OpenFOAM: The Open Source CFD Toolbox           |
|  \\    /   O peration     | Version:  4.1                                   |
|   \\  /    A nd           | Web:      www.OpenFOAM.org                      |
|    \\/     M anipulation  |                                                 |
\*---------------------------------------------------------------------------*/
FoamFile
{
    version     2.0;
    format      ascii;
    class       surfaceScalarField;
    location    "4.1";
    object      phi;
}
// * * * * * * * * * * * * * * * * * * * * * * * * * * * * * * * * * * * * * //

dimensions      [0 3 -1 0 0 0 0];

internalField   nonuniform List<scalar> 
760
(
-1.91641e-05
5.55747e-13
-1.91641e-05
2.50913e-14
-1.91641e-05
8.88507e-13
-1.91641e-05
-4.71443e-13
-1.91641e-05
1.02268e-12
-1.91641e-05
-8.28131e-13
-1.91641e-05
1.10364e-12
-1.91641e-05
-1.08438e-12
-1.91641e-05
1.07595e-12
-1.91641e-05
-1.19995e-12
-1.91641e-05
9.30006e-13
-1.91641e-05
-1.17516e-12
-1.91641e-05
6.92454e-13
-1.91641e-05
-1.01811e-12
-1.91641e-05
3.7817e-13
-1.91641e-05
-7.60209e-13
-1.91641e-05
4.29876e-14
-1.91641e-05
-4.19716e-13
-1.91641e-05
-3.04669e-13
-6.62843e-14
-5.11594e-05
4.55153e-13
-5.11594e-05
-7.46142e-13
-5.11594e-05
1.69717e-14
-5.11594e-05
-2.43532e-12
-5.11594e-05
-6.72958e-13
-5.11594e-05
-3.58647e-12
-5.11594e-05
-1.07049e-12
-5.11594e-05
-4.34255e-12
-5.11594e-05
-1.3221e-12
-5.11594e-05
-4.61042e-12
-5.11594e-05
-1.47443e-12
-5.11594e-05
-4.40859e-12
-5.11594e-05
-1.51356e-12
-5.11594e-05
-3.78165e-12
-5.11594e-05
-1.48805e-12
-5.11594e-05
-2.83524e-12
-5.11594e-05
-1.34311e-12
-5.11594e-05
-1.6801e-12
-5.11594e-05
-1.15401e-12
-2.8825e-13
-7.68219e-05
1.46709e-13
-7.68219e-05
-1.49592e-12
-7.68219e-05
-1.31459e-12
-7.68219e-05
-4.37445e-12
-7.68219e-05
-3.09405e-12
-7.68219e-05
-6.25991e-12
-7.68219e-05
-4.10877e-12
-7.68219e-05
-7.47731e-12
-7.68219e-05
-4.61563e-12
-7.68219e-05
-7.88357e-12
-7.68219e-05
-4.71489e-12
-7.68219e-05
-7.51532e-12
-7.68219e-05
-4.41249e-12
-7.68219e-05
-6.45196e-12
-7.68219e-05
-3.85013e-12
-7.68219e-05
-4.86109e-12
-7.68219e-05
-2.98007e-12
-7.68219e-05
-2.97147e-12
-7.68219e-05
-2.00424e-12
-4.57046e-13
-9.61516e-05
-6.22134e-14
-9.61516e-05
-1.97558e-12
-9.61516e-05
-2.43247e-12
-9.61516e-05
-5.93983e-12
-9.61516e-05
-5.25082e-12
-9.61516e-05
-8.45569e-12
-9.61516e-05
-6.8415e-12
-9.61516e-05
-1.00882e-11
-9.61516e-05
-7.5822e-12
-9.61516e-05
-1.06428e-11
-9.61516e-05
-7.63623e-12
-9.61516e-05
-1.01657e-11
-9.61516e-05
-7.02108e-12
-9.61516e-05
-8.76508e-12
-9.61516e-05
-5.97393e-12
-9.61516e-05
-6.64788e-12
-9.61516e-05
-4.43643e-12
-9.61516e-05
-4.17394e-12
-9.61516e-05
-2.73842e-12
-6.03611e-13
-0.000109148
-1.97621e-13
-0.000109148
-2.24896e-12
-0.000109148
-3.34344e-12
-0.000109148
-7.15352e-12
-0.000109148
-7.08867e-12
-0.000109148
-1.01743e-11
-0.000109148
-9.17998e-12
-0.000109148
-1.21539e-11
-0.000109148
-1.01148e-11
-0.000109148
-1.2847e-11
-0.000109148
-1.01246e-11
-0.000109148
-1.23037e-11
-0.000109148
-9.2314e-12
-0.000109148
-1.06554e-11
-0.000109148
-7.76464e-12
-0.000109148
-8.12847e-12
-0.000109148
-5.64279e-12
-0.000109148
-5.2182e-12
-0.000109148
-3.3107e-12
-7.15042e-13
-0.000115813
-3.12202e-13
-0.000115813
-2.42206e-12
-0.000115813
-4.13114e-12
-0.000115813
-8.1109e-12
-0.000115813
-8.67857e-12
-0.000115813
-1.152e-11
-0.000115813
-1.11912e-11
-0.000115813
-1.37732e-11
-0.000115813
-1.22769e-11
-0.000115813
-1.45795e-11
-0.000115813
-1.22345e-11
-0.000115813
-1.39905e-11
-0.000115813
-1.10867e-11
-0.000115813
-1.21582e-11
-0.000115813
-9.2494e-12
-0.000115813
-9.3138e-12
-0.000115813
-6.61317e-12
-0.000115813
-6.08507e-12
-0.000115813
-3.72201e-12
-8.01049e-13
-0.000116144
-4.40964e-13
-0.000116144
-2.57412e-12
-0.000116144
-4.83907e-12
-0.000116144
-8.86723e-12
-0.000116144
-1.00403e-11
-0.000116144
-1.2548e-11
-0.000116144
-1.2883e-11
-0.000116144
-1.49919e-11
-0.000116144
-1.40715e-11
-0.000116144
-1.58709e-11
-0.000116144
-1.39642e-11
-0.000116144
-1.52404e-11
-0.000116144
-1.25828e-11
-0.000116144
-1.32701e-11
-0.000116144
-1.04206e-11
-0.000116144
-1.01876e-11
-0.000116144
-7.34043e-12
-0.000116144
-6.74055e-12
-0.000116144
-3.96963e-12
-8.62949e-13
-0.000110142
-6.0069e-13
-0.000110142
-2.75197e-12
-0.000110142
-5.48185e-12
-0.000110142
-9.44318e-12
-0.000110142
-1.11634e-11
-0.000110142
-1.3276e-11
-0.000110142
-1.42327e-11
-0.000110142
-1.58185e-11
-0.000110142
-1.54727e-11
-0.000110142
-1.67191e-11
-0.000110142
-1.52871e-11
-0.000110142
-1.60418e-11
-0.000110142
-1.36967e-11
-0.000110142
-1.39702e-11
-0.000110142
-1.12586e-11
-0.000110142
-1.07251e-11
-0.000110142
-7.81251e-12
-0.000110142
-7.1517e-12
-0.000110142
-4.05222e-12
-8.97507e-13
-9.78078e-05
-7.95169e-13
-9.78078e-05
-2.97755e-12
-9.78078e-05
-6.05665e-12
-9.78078e-05
-9.84468e-12
-9.78078e-05
-1.20256e-11
-9.78078e-05
-1.37101e-11
-9.78078e-05
-1.52111e-11
-9.78078e-05
-1.6255e-11
-9.78078e-05
-1.64512e-11
-9.78078e-05
-1.71213e-11
-9.78078e-05
-1.61764e-11
-9.78078e-05
-1.63874e-11
-9.78078e-05
-1.44076e-11
-9.78078e-05
-1.4247e-11
-9.78078e-05
-1.17491e-11
-9.78078e-05
-1.09133e-11
-9.78078e-05
-8.0245e-12
-9.78078e-05
-7.29939e-12
-9.78078e-05
-3.97615e-12
-9.01473e-13
-7.91406e-05
-1.01762e-12
-7.91406e-05
-3.24995e-12
-7.91406e-05
-6.547e-12
-7.91406e-05
-1.0067e-11
-7.91406e-05
-1.25992e-11
-7.91406e-05
-1.38487e-11
-7.91406e-05
-1.57889e-11
-7.91406e-05
-1.6301e-11
-7.91406e-05
-1.69812e-11
-7.91406e-05
-1.70785e-11
-7.91406e-05
-1.66114e-11
-7.91406e-05
-1.62789e-11
-7.91406e-05
-1.47028e-11
-7.91406e-05
-1.41011e-11
-7.91406e-05
-1.18867e-11
-7.91406e-05
-1.07531e-11
-7.91406e-05
-7.98076e-12
-7.91406e-05
-7.17966e-12
-7.91406e-05
-3.75571e-12
-8.71913e-13
-5.41406e-05
-1.25232e-12
-5.41406e-05
-3.54822e-12
-5.41406e-05
-6.92491e-12
-5.41406e-05
-1.00987e-11
-5.41406e-05
-1.28552e-11
-5.41406e-05
-1.36878e-11
-5.41406e-05
-1.59429e-11
-5.41406e-05
-1.59592e-11
-5.41406e-05
-1.70462e-11
-5.41406e-05
-1.66007e-11
-5.41406e-05
-1.65827e-11
-5.41406e-05
-1.57308e-11
-5.41406e-05
-1.45818e-11
-5.41406e-05
-1.35495e-11
-5.41406e-05
-1.16787e-11
-5.41406e-05
-1.02617e-11
-5.41406e-05
-7.69743e-12
-5.41406e-05
-6.80488e-12
-5.41406e-05
-3.41427e-12
-8.07211e-13
-2.28078e-05
-1.47571e-12
-2.28078e-05
-3.83424e-12
-2.28078e-05
-7.15151e-12
-2.28078e-05
-9.92374e-12
-2.28078e-05
-1.2765e-11
-2.28078e-05
-1.3222e-11
-2.28078e-05
-1.56571e-11
-2.28078e-05
-1.52372e-11
-2.28078e-05
-1.66403e-11
-2.28078e-05
-1.57076e-11
-2.28078e-05
-1.60946e-11
-2.28078e-05
-1.47714e-11
-2.28078e-05
-1.40581e-11
-2.28078e-05
-1.26252e-11
-2.28078e-05
-1.11464e-11
-2.28078e-05
-9.47203e-12
-2.28078e-05
-7.20328e-12
-2.28078e-05
-6.20281e-12
-2.28078e-05
-2.98462e-12
-7.07922e-13
1.48578e-05
-1.6578e-12
1.48578e-05
-4.05613e-12
1.48578e-05
-7.17742e-12
1.48578e-05
-9.52142e-12
1.48578e-05
-1.23014e-11
1.48578e-05
-1.24451e-11
1.48578e-05
-1.49225e-11
1.48578e-05
-1.41466e-11
1.48578e-05
-1.57678e-11
1.48578e-05
-1.44275e-11
1.48578e-05
-1.51636e-11
1.48578e-05
-1.34404e-11
1.48578e-05
-1.31583e-11
1.48578e-05
-1.13745e-11
1.48578e-05
-1.03245e-11
1.48578e-05
-8.42997e-12
1.48578e-05
-6.53852e-12
1.48578e-05
-5.41456e-12
1.48578e-05
-2.50788e-12
-5.7784e-13
5.88562e-05
-1.76392e-12
5.88562e-05
-4.15226e-12
5.88562e-05
-6.94473e-12
5.88562e-05
-8.86554e-12
5.88562e-05
-1.14386e-11
5.88562e-05
-1.13478e-11
5.88562e-05
-1.37347e-11
5.88562e-05
-1.26997e-11
5.88562e-05
-1.44392e-11
5.88563e-05
-1.27922e-11
5.88562e-05
-1.38139e-11
5.88563e-05
-1.17833e-11
5.88562e-05
-1.19168e-11
5.88563e-05
-9.85144e-12
5.88562e-05
-9.25537e-12
5.88562e-05
-7.18933e-12
5.88562e-05
-5.74998e-12
5.88562e-05
-4.49071e-12
5.88562e-05
-2.02929e-12
-4.24421e-13
0.000109187
-1.7596e-12
0.000109187
-4.05868e-12
0.000109187
-6.39657e-12
0.000109187
-7.92676e-12
0.000109187
-1.0159e-11
0.000109187
-9.91916e-12
0.000109187
-1.20972e-11
0.000109187
-1.09088e-11
0.000109187
-1.26723e-11
0.000109187
-1.08336e-11
0.000109187
-1.20756e-11
0.000109188
-9.84723e-12
0.000109187
-1.03711e-11
0.000109187
-8.11214e-12
0.000109187
-7.9836e-12
0.000109187
-5.80611e-12
0.000109187
-4.88319e-12
0.000109187
-3.48683e-12
0.000109187
-1.58994e-12
-2.58619e-13
0.000165852
-1.61244e-12
0.000165852
-3.71061e-12
0.000165852
-5.48198e-12
0.000165852
-6.6643e-12
0.000165852
-8.44426e-12
0.000165852
-8.131e-12
0.000165852
-1.00025e-11
0.000165852
-8.76423e-12
0.000165852
-1.04647e-11
0.000165852
-8.55972e-12
0.000165852
-9.95266e-12
0.000165852
-7.65486e-12
0.000165852
-8.52959e-12
0.000165852
-6.19044e-12
0.000165852
-6.52447e-12
0.000165852
-4.31802e-12
0.000165852
-3.95499e-12
0.000165852
-2.44884e-12
0.000165852
-1.20589e-12
-8.89289e-14
0.000228848
-1.30097e-12
0.000228848
-3.05167e-12
0.000228848
-4.1649e-12
0.000228848
-5.01716e-12
0.000228848
-6.27206e-12
0.000228848
-5.91802e-12
0.000228848
-7.41918e-12
0.000228848
-6.20605e-12
0.000228848
-7.7745e-12
0.000228848
-5.91931e-12
0.000228848
-7.39851e-12
0.000228848
-5.16815e-12
0.000228848
-6.34392e-12
0.000228848
-4.063e-12
0.000228848
-4.83669e-12
0.000228848
-2.71507e-12
0.000228848
-2.92754e-12
0.000228848
-1.39099e-12
0.000228848
-8.47452e-13
8.71854e-14
0.000298178
-8.86804e-13
0.000298178
-2.13345e-12
0.000298178
-2.56675e-12
0.000298178
-3.07375e-12
0.000298178
-3.79245e-12
0.000298178
-3.39298e-12
0.000298178
-4.48735e-12
0.000298178
-3.36177e-12
0.000298178
-4.7154e-12
0.000298178
-3.04043e-12
0.000298178
-4.49385e-12
0.000298178
-2.50474e-12
0.000298178
-3.85605e-12
0.000298178
-1.82661e-12
0.000298178
-2.92826e-12
0.000298178
-1.06594e-12
0.000298178
-1.76745e-12
0.000298178
-3.61374e-13
0.000298178
-4.57507e-13
2.68912e-13
0.000373841
-3.84727e-13
0.000373841
-9.43093e-13
0.000373841
-7.44159e-13
0.000373841
-8.06337e-13
0.000373841
-1.03113e-12
0.000373841
-5.01026e-13
0.000373841
-1.18459e-12
0.000373841
-1.58619e-13
0.000373841
-1.22176e-12
0.000373841
1.59966e-13
0.000373841
-1.1392e-12
0.000373841
4.19597e-13
0.000373841
-9.4334e-13
0.000373841
5.97745e-13
0.000373841
-6.6935e-13
0.000373841
6.95183e-13
0.000373841
-3.40021e-13
0.000373841
6.83339e-13
0.000373841
7.56701e-14
4.80431e-13
0.000455836
0.000455836
0.000455836
0.000455836
0.000455836
0.000455836
0.000455836
0.000455836
0.000455836
0.000455836
0.000455836
0.000455836
0.000455836
0.000455836
0.000455836
0.000455836
0.000455836
0.000455836
0.000455836
)
;

boundaryField
{
    top
    {
        type            calculated;
        value           uniform 0;
    }
    bottom
    {
        type            calculated;
        value           uniform 0;
    }
    inlet
    {
        type            calculated;
        value           nonuniform List<scalar> 
20
(
1.91641e-05
5.11594e-05
7.68219e-05
9.61516e-05
0.000109148
0.000115812
0.000116144
0.000110142
9.78078e-05
7.91406e-05
5.41406e-05
2.28078e-05
-1.48578e-05
-5.88562e-05
-0.000109187
-0.000165852
-0.000228848
-0.000298178
-0.000373841
-0.000455836
)
;
    }
    outlet
    {
        type            calculated;
        value           nonuniform List<scalar> 
20
(
-1.91641e-05
-5.11594e-05
-7.68219e-05
-9.61516e-05
-0.000109148
-0.000115813
-0.000116144
-0.000110142
-9.78078e-05
-7.91406e-05
-5.41406e-05
-2.28078e-05
1.48578e-05
5.88562e-05
0.000109187
0.000165852
0.000228848
0.000298178
0.000373841
0.000455836
)
;
    }
    frontAndBack
    {
        type            empty;
        value           nonuniform 0();
    }
}


// ************************************************************************* //
