/*--------------------------------*- C++ -*----------------------------------*\
| =========                 |                                                 |
| \\      /  F ield         | OpenFOAM: The Open Source CFD Toolbox           |
|  \\    /   O peration     | Version:  4.1                                   |
|   \\  /    A nd           | Web:      www.OpenFOAM.org                      |
|    \\/     M anipulation  |                                                 |
\*---------------------------------------------------------------------------*/
FoamFile
{
    version     2.0;
    format      ascii;
    class       volVectorField;
    location    "4.1";
    object      U;
}
// * * * * * * * * * * * * * * * * * * * * * * * * * * * * * * * * * * * * * //

dimensions      [0 1 -1 0 0 0 0];

internalField   nonuniform List<vector> 
400
(
(-0.383281 4.07538e-11 0)
(-0.383281 -2.55175e-10 0)
(-0.383281 -2.79165e-10 0)
(-0.383281 -6.5408e-10 0)
(-0.383281 -5.52195e-10 0)
(-0.383281 -9.53667e-10 0)
(-0.383281 -7.28882e-10 0)
(-0.383281 -1.14565e-09 0)
(-0.383281 -8.24029e-10 0)
(-0.383281 -1.21556e-09 0)
(-0.383281 -8.42557e-10 0)
(-0.383281 -1.1649e-09 0)
(-0.383281 -7.90634e-10 0)
(-0.383281 -1.00814e-09 0)
(-0.383281 -6.83701e-10 0)
(-0.383281 -7.7146e-10 0)
(-0.383281 -5.3019e-10 0)
(-0.383281 -4.77962e-10 0)
(-0.383281 -3.5337e-10 0)
(-0.383281 -1.3807e-10 0)
(-1.02319 6.07302e-10 0)
(-1.02319 -2.87604e-10 0)
(-1.02319 9.39009e-10 0)
(-1.02319 -1.26123e-09 0)
(-1.02319 9.61138e-10 0)
(-1.02319 -1.91714e-09 0)
(-1.02319 9.92465e-10 0)
(-1.02319 -2.35681e-09 0)
(-1.02319 9.30243e-10 0)
(-1.02319 -2.5123e-09 0)
(-1.02319 7.51026e-10 0)
(-1.02319 -2.39651e-09 0)
(-1.02319 4.88361e-10 0)
(-1.02319 -2.03074e-09 0)
(-1.02319 1.461e-10 0)
(-1.02319 -1.48212e-09 0)
(-1.02319 -1.98596e-10 0)
(-1.02319 -7.97135e-10 0)
(-1.02319 -5.51916e-10 0)
(-1.02319 -5.73998e-11 0)
(-1.53644 1.28191e-10 0)
(-1.53644 -1.37218e-09 0)
(-1.53644 -1.18273e-09 0)
(-1.53644 -3.83831e-09 0)
(-1.53644 -2.69493e-09 0)
(-1.53644 -5.50372e-09 0)
(-1.53644 -3.58753e-09 0)
(-1.53644 -6.57273e-09 0)
(-1.53644 -4.04905e-09 0)
(-1.53644 -6.92896e-09 0)
(-1.53644 -4.1492e-09 0)
(-1.53644 -6.60317e-09 0)
(-1.53644 -3.89897e-09 0)
(-1.53644 -5.66764e-09 0)
(-1.53644 -3.40875e-09 0)
(-1.53644 -4.27343e-09 0)
(-1.53644 -2.65774e-09 0)
(-1.53644 -2.601e-09 0)
(-1.53644 -1.80181e-09 0)
(-1.53644 -5.08834e-10 0)
(-1.92303 7.77443e-11 0)
(-1.92303 -1.68525e-09 0)
(-1.92303 -1.74486e-09 0)
(-1.92303 -5.01954e-09 0)
(-1.92303 -3.96246e-09 0)
(-1.92303 -7.16266e-09 0)
(-1.92303 -5.21172e-09 0)
(-1.92303 -8.55118e-09 0)
(-1.92303 -5.81275e-09 0)
(-1.92303 -9.01763e-09 0)
(-1.92303 -5.89452e-09 0)
(-1.92303 -8.60356e-09 0)
(-1.92303 -5.46683e-09 0)
(-1.92303 -7.39866e-09 0)
(-1.92303 -4.71243e-09 0)
(-1.92303 -5.58869e-09 0)
(-1.92303 -3.57419e-09 0)
(-1.92303 -3.45649e-09 0)
(-1.92303 -2.31115e-09 0)
(-1.92303 -4.81083e-10 0)
(-2.18297 -1.08883e-10 0)
(-2.18297 -2.0886e-09 0)
(-2.18297 -2.85281e-09 0)
(-2.18297 -6.49983e-09 0)
(-2.18297 -6.12325e-09 0)
(-2.18297 -9.2584e-09 0)
(-2.18297 -7.9561e-09 0)
(-2.18297 -1.106e-08 0)
(-2.18297 -8.79193e-09 0)
(-2.18297 -1.16851e-08 0)
(-2.18297 -8.82702e-09 0)
(-2.18297 -1.1181e-08 0)
(-2.18297 -8.08134e-09 0)
(-2.18297 -9.66599e-09 0)
(-2.18297 -6.83628e-09 0)
(-2.18297 -7.35661e-09 0)
(-2.18297 -5.02123e-09 0)
(-2.18297 -4.67637e-09 0)
(-2.18297 -3.02319e-09 0)
(-2.18297 -6.49683e-10 0)
(-2.31625 -2.30028e-10 0)
(-2.31625 -2.30458e-09 0)
(-2.31625 -3.70126e-09 0)
(-2.31625 -7.59257e-09 0)
(-2.31625 -7.84351e-09 0)
(-2.31625 -1.08026e-08 0)
(-2.31625 -1.01408e-08 0)
(-2.31625 -1.29193e-08 0)
(-2.31625 -1.11498e-08 0)
(-2.31625 -1.36735e-08 0)
(-2.31625 -1.11365e-08 0)
(-2.31625 -1.31146e-08 0)
(-2.31625 -1.0123e-08 0)
(-2.31625 -1.13831e-08 0)
(-2.31625 -8.48143e-09 0)
(-2.31625 -8.70675e-09 0)
(-2.31625 -6.11427e-09 0)
(-2.31625 -5.64653e-09 0)
(-2.31625 -3.51655e-09 0)
(-2.31625 -7.4625e-10 0)
(-2.32288 -3.46798e-10 0)
(-2.32288 -2.45223e-09 0)
(-2.32288 -4.44342e-09 0)
(-2.32288 -8.43727e-09 0)
(-2.32288 -9.31545e-09 0)
(-2.32288 -1.19744e-08 0)
(-2.32288 -1.19884e-08 0)
(-2.32288 -1.43233e-08 0)
(-2.32288 -1.31226e-08 0)
(-2.32288 -1.51723e-08 0)
(-2.32288 -1.30499e-08 0)
(-2.32288 -1.45728e-08 0)
(-2.32288 -1.17917e-08 0)
(-2.32288 -1.26841e-08 0)
(-2.32288 -9.80285e-09 0)
(-2.32288 -9.73338e-09 0)
(-2.32288 -6.95685e-09 0)
(-2.32288 -6.41006e-09 0)
(-2.32288 -3.83983e-09 0)
(-2.32288 -8.15836e-10 0)
(-2.20284 -4.88993e-10 0)
(-2.20284 -2.61335e-09 0)
(-2.20284 -5.11901e-09 0)
(-2.20284 -9.10904e-09 0)
(-2.20284 -1.0563e-08 0)
(-2.20284 -1.28607e-08 0)
(-2.20284 -1.35164e-08 0)
(-2.20284 -1.53571e-08 0)
(-2.20284 -1.47276e-08 0)
(-2.20284 -1.62551e-08 0)
(-2.20284 -1.45829e-08 0)
(-2.20284 -1.56118e-08 0)
(-2.20284 -1.3102e-08 0)
(-2.20284 -1.3603e-08 0)
(-2.20284 -1.08116e-08 0)
(-2.20284 -1.04496e-08 0)
(-2.20284 -7.5586e-09 0)
(-2.20284 -6.95251e-09 0)
(-2.20284 -4.00443e-09 0)
(-2.20284 -8.64575e-10 0)
(-1.95616 -6.64672e-10 0)
(-1.95616 -2.8116e-09 0)
(-1.95616 -5.72655e-09 0)
(-1.95616 -9.59718e-09 0)
(-1.95616 -1.15563e-08 0)
(-1.95616 -1.34404e-08 0)
(-1.95616 -1.4681e-08 0)
(-1.95616 -1.59877e-08 0)
(-1.95616 -1.59172e-08 0)
(-1.95616 -1.68796e-08 0)
(-1.95616 -1.56881e-08 0)
(-1.95616 -1.61851e-08 0)
(-1.95616 -1.40126e-08 0)
(-1.95616 -1.40919e-08 0)
(-1.95616 -1.14738e-08 0)
(-1.95616 -1.0813e-08 0)
(-1.95616 -7.8979e-09 0)
(-1.95616 -7.23394e-09 0)
(-1.95616 -4.00426e-09 0)
(-1.95616 -8.83553e-10 0)
(-1.58281 -8.73524e-10 0)
(-1.58281 -3.06125e-09 0)
(-1.58281 -6.25989e-09 0)
(-1.58281 -9.91004e-09 0)
(-1.58281 -1.22759e-08 0)
(-1.58281 -1.37269e-08 0)
(-1.58281 -1.54599e-08 0)
(-1.58281 -1.62285e-08 0)
(-1.58281 -1.66713e-08 0)
(-1.58281 -1.70583e-08 0)
(-1.58281 -1.63494e-08 0)
(-1.58281 -1.63022e-08 0)
(-1.58281 -1.45139e-08 0)
(-1.58281 -1.41557e-08 0)
(-1.58281 -1.17857e-08 0)
(-1.58281 -1.08255e-08 0)
(-1.58281 -7.97896e-09 0)
(-1.58281 -7.24745e-09 0)
(-1.58281 -3.85245e-09 0)
(-1.58281 -8.71389e-10 0)
(-1.08281 -1.10462e-09 0)
(-1.08281 -3.35155e-09 0)
(-1.08281 -6.69795e-09 0)
(-1.08281 -1.00402e-08 0)
(-1.08281 -1.26944e-08 0)
(-1.08281 -1.37182e-08 0)
(-1.08281 -1.5828e-08 0)
(-1.08281 -1.60819e-08 0)
(-1.08281 -1.69701e-08 0)
(-1.08281 -1.67977e-08 0)
(-1.08281 -1.65527e-08 0)
(-1.08281 -1.59724e-08 0)
(-1.08281 -1.46e-08 0)
(-1.08281 -1.38046e-08 0)
(-1.08281 -1.17486e-08 0)
(-1.08281 -1.04969e-08 0)
(-1.08281 -7.81227e-09 0)
(-1.08281 -6.99796e-09 0)
(-1.08281 -3.56779e-09 0)
(-1.08281 -8.2576e-10 0)
(-0.456156 -1.33846e-09 0)
(-0.456156 -3.65267e-09 0)
(-0.456156 -7.00789e-09 0)
(-0.456156 -9.97413e-09 0)
(-0.456156 -1.27833e-08 0)
(-0.456156 -1.34102e-08 0)
(-0.456156 -1.5766e-08 0)
(-0.456156 -1.55536e-08 0)
(-0.456156 -1.68023e-08 0)
(-0.456156 -1.61136e-08 0)
(-0.456156 -1.62957e-08 0)
(-0.456156 -1.5218e-08 0)
(-0.456156 -1.42775e-08 0)
(-0.456156 -1.30642e-08 0)
(-0.456156 -1.13768e-08 0)
(-0.456156 -9.85316e-09 0)
(-0.456156 -7.42009e-09 0)
(-0.456156 -6.50602e-09 0)
(-0.456156 -3.17816e-09 0)
(-0.456156 -7.45641e-10 0)
(0.297156 -1.54811e-09 0)
(0.297156 -3.91872e-09 0)
(0.297156 -7.14541e-09 0)
(0.297156 -9.69313e-09 0)
(0.297156 -1.2514e-08 0)
(0.297156 -1.27962e-08 0)
(0.297156 -1.52609e-08 0)
(0.297156 -1.46525e-08 0)
(0.297156 -1.61666e-08 0)
(0.297156 -1.50292e-08 0)
(0.297156 -1.55878e-08 0)
(0.297156 -1.40724e-08 0)
(0.297156 -1.35657e-08 0)
(0.297156 -1.19739e-08 0)
(0.297156 -1.06976e-08 0)
(0.297156 -8.93338e-09 0)
(0.297156 -6.83653e-09 0)
(0.297156 -5.80597e-09 0)
(0.297156 -2.72031e-09 0)
(0.297156 -6.32537e-10 0)
(1.17712 -1.69846e-09 0)
(1.17712 -4.08779e-09 0)
(1.17712 -7.04987e-09 0)
(1.17712 -9.16692e-09 0)
(1.17712 -1.18496e-08 0)
(1.17712 -1.18599e-08 0)
(1.17712 -1.42933e-08 0)
(1.17712 -1.33809e-08 0)
(1.17712 -1.5057e-08 0)
(1.17712 -1.35653e-08 0)
(1.17712 -1.44364e-08 0)
(1.17712 -1.25699e-08 0)
(1.17712 -1.24834e-08 0)
(1.17712 -1.05771e-08 0)
(1.17712 -9.74034e-09 0)
(1.17712 -7.78269e-09 0)
(1.17712 -6.09902e-09 0)
(1.17712 -4.94094e-09 0)
(1.17712 -2.23497e-09 0)
(1.17712 -4.90531e-10 0)
(2.18375 -1.76301e-09 0)
(2.18375 -4.10967e-09 0)
(2.18375 -6.68119e-09 0)
(2.18375 -8.38941e-09 0)
(2.18375 -1.07979e-08 0)
(2.18375 -1.06182e-08 0)
(2.18375 -1.29011e-08 0)
(2.18375 -1.1781e-08 0)
(2.18375 -1.353e-08 0)
(2.18375 -1.17837e-08 0)
(2.18375 -1.29113e-08 0)
(2.18375 -1.07841e-08 0)
(2.18375 -1.11055e-08 0)
(2.18375 -8.95163e-09 0)
(2.18375 -8.58043e-09 0)
(2.18375 -6.47235e-09 0)
(2.18375 -5.27666e-09 0)
(2.18375 -3.97309e-09 0)
(2.18375 -1.77722e-09 0)
(2.18375 -3.31074e-10 0)
(3.31703 -1.69574e-09 0)
(3.31703 -3.8977e-09 0)
(3.31703 -5.95235e-09 0)
(3.31703 -7.29239e-09 0)
(3.31703 -9.29009e-09 0)
(3.31703 -9.01028e-09 0)
(3.31703 -1.10192e-08 0)
(3.31703 -9.8097e-09 0)
(3.31703 -1.15248e-08 0)
(3.31703 -9.66065e-09 0)
(3.31703 -1.09622e-08 0)
(3.31703 -8.71062e-09 0)
(3.31703 -9.39509e-09 0)
(3.31703 -7.11057e-09 0)
(3.31703 -7.20012e-09 0)
(3.31703 -5.02659e-09 0)
(3.31703 -4.36845e-09 0)
(3.31703 -2.94062e-09 0)
(3.31703 -1.36115e-09 0)
(3.31703 -1.59945e-10 0)
(4.57697 -1.39622e-09 0)
(4.57697 -3.31493e-09 0)
(4.57697 -4.69811e-09 0)
(4.57697 -5.66589e-09 0)
(4.57697 -7.14374e-09 0)
(4.57697 -6.7679e-09 0)
(4.57697 -8.44311e-09 0)
(4.57697 -7.1729e-09 0)
(4.57697 -8.83087e-09 0)
(4.57697 -6.90448e-09 0)
(4.57697 -8.39228e-09 0)
(4.57697 -6.08652e-09 0)
(4.57697 -7.1832e-09 0)
(4.57697 -4.84048e-09 0)
(4.57697 -5.47391e-09 0)
(4.57697 -3.29342e-09 0)
(4.57697 -3.29536e-09 0)
(4.57697 -1.77113e-09 0)
(4.57697 -9.49804e-10 0)
(4.57697 4.41487e-11 0)
(5.96356 -1.31769e-09 0)
(5.96356 -2.89099e-09 0)
(5.96356 -3.81072e-09 0)
(5.96356 -4.6669e-09 0)
(5.96356 -5.65765e-09 0)
(5.96356 -5.5267e-09 0)
(5.96356 -6.70056e-09 0)
(5.96356 -5.80394e-09 0)
(5.96356 -7.03904e-09 0)
(5.96356 -5.54335e-09 0)
(5.96356 -6.71402e-09 0)
(5.96356 -4.84309e-09 0)
(5.96356 -5.7777e-09 0)
(5.96356 -3.80843e-09 0)
(5.96356 -4.41913e-09 0)
(5.96356 -2.54841e-09 0)
(5.96356 -2.7107e-09 0)
(5.96356 -1.28127e-09 0)
(5.96356 -8.41587e-10 0)
(5.96356 6.18995e-11 0)
(7.47681 -4.29336e-10 0)
(7.47681 -1.3414e-09 0)
(7.47681 -1.24402e-09 0)
(7.47681 -1.4144e-09 0)
(7.47681 -1.87139e-09 0)
(7.47681 -1.16372e-09 0)
(7.47681 -2.23369e-09 0)
(7.47681 -8.06032e-10 0)
(7.47681 -2.36564e-09 0)
(7.47681 -4.18046e-10 0)
(7.47681 -2.26259e-09 0)
(7.47681 -5.20762e-11 0)
(7.47681 -1.93843e-09 0)
(7.47681 2.55251e-10 0)
(7.47681 -1.45476e-09 0)
(7.47681 4.94025e-10 0)
(7.47681 -8.53123e-10 0)
(7.47681 6.10109e-10 0)
(7.47681 -1.08039e-10 0)
(7.47681 4.62468e-10 0)
(9.11672 -3.54517e-10 0)
(9.11672 -6.63528e-10 0)
(9.11672 -7.51344e-10 0)
(9.11672 -9.75871e-10 0)
(9.11672 -1.0773e-09 0)
(9.11672 -1.13123e-09 0)
(9.11672 -1.27172e-09 0)
(9.11672 -1.16481e-09 0)
(9.11672 -1.33411e-09 0)
(9.11672 -1.09344e-09 0)
(9.11672 -1.27187e-09 0)
(9.11672 -9.3562e-10 0)
(9.11672 -1.09556e-09 0)
(9.11672 -7.15407e-10 0)
(9.11672 -8.36629e-10 0)
(9.11672 -4.55674e-10 0)
(9.11672 -5.18749e-10 0)
(9.11672 -1.92491e-10 0)
(9.11672 -1.65926e-10 0)
(9.11672 7.31151e-11 0)
)
;

boundaryField
{
    top
    {
        type            fixedValue;
        value           uniform (10 0 0);
    }
    bottom
    {
        type            fixedValue;
        value           uniform (0 0 0);
    }
    inlet
    {
        type            zeroGradient;
    }
    outlet
    {
        type            zeroGradient;
    }
    frontAndBack
    {
        type            empty;
    }
}


// ************************************************************************* //
