/*--------------------------------*- C++ -*----------------------------------*\
| =========                 |                                                 |
| \\      /  F ield         | OpenFOAM: The Open Source CFD Toolbox           |
|  \\    /   O peration     | Version:  4.1                                   |
|   \\  /    A nd           | Web:      www.OpenFOAM.org                      |
|    \\/     M anipulation  |                                                 |
\*---------------------------------------------------------------------------*/
FoamFile
{
    version     2.0;
    format      ascii;
    class       surfaceScalarField;
    location    "0.2";
    object      phi;
}
// * * * * * * * * * * * * * * * * * * * * * * * * * * * * * * * * * * * * * //

dimensions      [0 3 -1 0 0 0 0];

internalField   nonuniform List<scalar> 
760
(
-1.90339e-05
4.17402e-09
-1.90319e-05
-2.05617e-09
-1.90357e-05
3.82766e-09
-1.90329e-05
-2.83129e-09
-1.90353e-05
2.39235e-09
-1.90329e-05
-2.34912e-09
-1.90343e-05
1.3653e-09
-1.90332e-05
-1.0617e-09
-1.90335e-05
2.7794e-10
-1.90338e-05
2.32558e-10
-1.90329e-05
-7.98779e-10
-1.90342e-05
1.23727e-09
-1.90326e-05
-1.62214e-09
-1.90345e-05
1.9368e-09
-1.90323e-05
-2.14367e-09
-1.90346e-05
2.29562e-09
-1.90322e-05
-2.40408e-09
-1.90347e-05
2.42391e-09
-1.90321e-05
-2.6017e-09
2.68363e-09
-5.07713e-05
1.11041e-08
-5.07706e-05
-2.79887e-09
-5.0776e-05
9.25482e-09
-5.07727e-05
-6.11463e-09
-5.07751e-05
4.80352e-09
-5.07721e-05
-5.42894e-09
-5.07733e-05
2.55469e-09
-5.0772e-05
-2.30384e-09
-5.07721e-05
3.47198e-10
-5.07725e-05
6.63973e-10
-5.07714e-05
-1.93665e-09
-5.0773e-05
2.86449e-09
-5.07709e-05
-3.68687e-09
-5.07733e-05
4.32532e-09
-5.07707e-05
-4.75183e-09
-5.07735e-05
5.05934e-09
-5.07706e-05
-5.27745e-09
-5.07734e-05
5.17956e-09
-5.07705e-05
-5.48589e-09
5.62704e-09
-7.6189e-05
1.87129e-08
-7.61912e-05
-6.18077e-10
-7.6196e-05
1.39739e-08
-7.6194e-05
-8.12229e-09
-7.61948e-05
5.64354e-09
-7.61924e-05
-7.83019e-09
-7.61925e-05
2.65825e-09
-7.61918e-05
-3.08638e-09
-7.61914e-05
7.36116e-12
-7.61919e-05
1.15095e-09
-7.61909e-05
-2.92876e-09
-7.61921e-05
4.11413e-09
-7.61906e-05
-5.19282e-09
-7.61923e-05
5.98757e-09
-7.61905e-05
-6.52629e-09
-7.61924e-05
6.90243e-09
-7.61905e-05
-7.16023e-09
-7.61922e-05
6.84239e-09
-7.61907e-05
-6.95599e-09
7.17239e-09
-9.52964e-05
2.664e-08
-9.53011e-05
3.97916e-09
-9.53048e-05
1.76878e-08
-9.5304e-05
-8.94547e-09
-9.53034e-05
5.04005e-09
-9.53017e-05
-9.48985e-09
-9.53009e-05
1.82442e-09
-9.53006e-05
-3.42938e-09
-9.52999e-05
-6.51492e-10
-9.53004e-05
1.64131e-09
-9.52996e-05
-3.71692e-09
-9.53004e-05
4.94632e-09
-9.52995e-05
-6.11363e-09
-9.53004e-05
6.92725e-09
-9.52994e-05
-7.48689e-09
-9.53004e-05
7.86409e-09
-9.52995e-05
-8.10759e-09
-9.53002e-05
7.54446e-09
-9.53001e-05
-7.0542e-09
7.46444e-09
-0.000108101
3.43768e-08
-0.000108107
1.03498e-08
-0.000108109
2.01952e-08
-0.00010811
-8.68662e-09
-0.000108108
3.21403e-09
-0.000108107
-1.03744e-08
-0.000108105
2.46639e-10
-0.000108106
-3.37067e-09
-0.000108105
-1.5217e-09
-0.000108105
2.08412e-09
-0.000108105
-4.25283e-09
-0.000108105
5.34298e-09
-0.000108105
-6.45025e-09
-0.000108105
7.17252e-09
-0.000108105
-7.67779e-09
-0.000108105
8.00832e-09
-0.000108105
-8.20393e-09
-0.000108105
7.40811e-09
-0.000108106
-5.91597e-09
6.69514e-09
-0.000114607
4.13382e-08
-0.000114614
1.77716e-08
-0.000114616
2.14018e-08
-0.000114617
-7.46716e-09
-0.000114614
4.57056e-10
-0.000114614
-1.04876e-08
-0.000114612
-1.85275e-09
-0.000114612
-2.96781e-09
-0.000114611
-2.49296e-09
-0.000114612
2.43347e-09
-0.000114611
-4.50515e-09
-0.000114611
5.30795e-09
-0.000114612
-6.23189e-09
-0.000114611
6.77898e-09
-0.000114612
-7.17297e-09
-0.000114611
7.42551e-09
-0.000114612
-7.55482e-09
-0.000114611
6.5621e-09
-0.000114613
-3.74976e-09
5.08721e-09
-0.00011482
4.6934e-08
-0.000114827
2.54954e-08
-0.000114827
2.13131e-08
-0.000114829
-5.4371e-09
-0.000114826
-2.89514e-09
-0.000114827
-9.87252e-09
-0.000114824
-4.23709e-09
-0.000114825
-2.29258e-09
-0.000114824
-3.45958e-09
-0.000114824
2.65351e-09
-0.000114824
-4.46264e-09
-0.000114824
4.86904e-09
-0.000114824
-5.51543e-09
-0.000114823
5.82928e-09
-0.000114825
-6.07332e-09
-0.000114823
6.22962e-09
-0.000114825
-6.28517e-09
-0.000114823
5.1401e-09
-0.000114826
-8.28062e-10
2.87324e-09
-0.000108741
5.06396e-08
-0.000108748
3.27955e-08
-0.000108747
2.00181e-08
-0.000108749
-2.78098e-09
-0.000108746
-6.49077e-09
-0.000108747
-8.61019e-09
-0.000108744
-6.67019e-09
-0.000108745
-1.42467e-09
-0.000108744
-4.32729e-09
-0.000108745
2.72218e-09
-0.000108745
-4.1354e-09
-0.000108744
4.07755e-09
-0.000108745
-4.38295e-09
-0.000108744
4.42996e-09
-0.000108745
-4.50217e-09
-0.000108744
4.55397e-09
-0.000108745
-4.53568e-09
-0.000108744
3.28102e-09
-0.000108747
2.53414e-09
2.83037e-10
-9.637e-05
5.20614e-08
-9.63762e-05
3.90162e-08
-9.63738e-05
1.76711e-08
-9.63769e-05
2.80431e-10
-9.63734e-05
-9.98922e-09
-9.63752e-05
-6.81665e-09
-9.6373e-05
-8.93071e-09
-9.6374e-05
-4.45839e-10
-9.63733e-05
-5.01886e-09
-9.63732e-05
2.63346e-09
-9.63737e-05
-3.55494e-09
-9.63726e-05
3.00641e-09
-9.63741e-05
-2.93809e-09
-9.63724e-05
2.70725e-09
-9.63743e-05
-2.60034e-09
-9.63723e-05
2.54652e-09
-9.63743e-05
-2.45871e-09
-9.63722e-05
1.13085e-09
-9.63756e-05
6.00639e-09
-2.46359e-09
-7.77065e-05
5.09904e-08
-7.77111e-05
4.36124e-08
-7.77079e-05
1.44761e-08
-7.77111e-05
3.49482e-09
-7.7708e-05
-1.30852e-08
-7.77102e-05
-4.638e-09
-7.77083e-05
-1.08254e-08
-7.77093e-05
5.64988e-10
-7.77089e-05
-5.47841e-09
-7.77086e-05
2.39808e-09
-7.77094e-05
-2.77265e-09
-7.77081e-05
1.74681e-09
-7.77098e-05
-1.30139e-09
-7.77079e-05
8.01784e-10
-7.77099e-05
-5.20628e-10
-7.77078e-05
3.6494e-10
-7.771e-05
-2.13969e-10
-7.77077e-05
-1.15602e-09
-7.7711e-05
9.27092e-09
-5.16061e-09
-5.27473e-05
4.74388e-08
-5.27498e-05
4.61851e-08
-5.2746e-05
1.06762e-08
-5.27491e-05
6.59012e-09
-5.27467e-05
-1.55283e-08
-5.27491e-05
-2.24476e-09
-5.27477e-05
-1.22007e-08
-5.27487e-05
1.53491e-09
-5.27485e-05
-5.67416e-09
-5.27481e-05
2.04235e-09
-5.2749e-05
-1.85688e-09
-5.27477e-05
4.03476e-10
-5.27494e-05
3.95378e-10
-5.27474e-05
-1.13733e-09
-5.27495e-05
1.57791e-09
-5.27474e-05
-1.82845e-09
-5.27496e-05
2.0357e-09
-5.27473e-05
-3.41727e-09
-5.27501e-05
1.20477e-08
-7.61788e-09
-2.14883e-05
4.1657e-08
-2.14887e-05
4.65088e-08
-2.14845e-05
6.54853e-09
-2.14872e-05
9.29282e-09
-2.14856e-05
-1.71354e-08
-2.14881e-05
1.74634e-10
-2.14873e-05
-1.29512e-08
-2.14882e-05
2.39834e-09
-2.14883e-05
-5.59912e-09
-2.14878e-05
1.60523e-09
-2.14888e-05
-8.88604e-10
-2.14875e-05
-9.11088e-10
-2.14891e-05
2.01546e-09
-2.14873e-05
-2.95879e-09
-2.14892e-05
3.53574e-09
-2.14872e-05
-3.87163e-09
-2.14893e-05
4.12817e-09
-2.14872e-05
-5.48584e-09
-2.14892e-05
1.41129e-08
-9.66297e-09
1.60749e-05
3.41288e-08
1.60769e-05
4.45487e-08
1.6081e-05
2.4041e-09
1.6079e-05
1.13503e-08
1.60796e-05
-1.7796e-08
1.60774e-05
2.42095e-09
1.60774e-05
-1.30247e-08
1.60767e-05
3.09652e-09
1.60764e-05
-5.26974e-09
1.60769e-05
1.13382e-09
1.6076e-05
4.40576e-11
1.60771e-05
-2.08304e-09
1.60757e-05
3.4236e-09
1.60773e-05
-4.51525e-09
1.60756e-05
5.19819e-09
1.60774e-05
-5.6072e-09
1.60756e-05
5.90534e-09
1.60773e-05
-7.1956e-09
1.60761e-05
1.53095e-08
-1.11433e-08
5.99476e-05
2.55445e-08
5.99516e-05
4.04653e-08
5.99555e-05
-1.41301e-09
5.99542e-05
1.25539e-08
5.99539e-05
-1.74686e-08
5.9952e-05
4.29247e-09
5.99514e-05
-1.24219e-08
5.99509e-05
3.57579e-09
5.99504e-05
-4.72237e-09
5.99509e-05
6.77835e-10
5.99501e-05
8.52067e-10
5.9951e-05
-3.00389e-09
5.99499e-05
4.49247e-09
5.99511e-05
-5.66913e-09
5.99499e-05
6.4204e-09
5.99511e-05
-6.88645e-09
5.99498e-05
7.21627e-09
5.9951e-05
-8.38885e-09
5.99508e-05
1.55483e-08
-1.19293e-08
0.000110135
1.67535e-08
0.00011014
3.4603e-08
0.000110144
-4.53221e-09
0.000110143
1.27589e-08
0.000110142
-1.61721e-08
0.000110141
5.595e-09
0.000110139
-1.11911e-08
0.000110139
3.78582e-09
0.000110139
-4.00765e-09
0.000110139
2.83676e-10
0.000110138
1.45218e-09
0.000110139
-3.5771e-09
0.000110138
5.10898e-09
0.000110139
-6.29812e-09
0.000110138
7.07206e-09
0.000110139
-7.5732e-09
0.000110138
7.92061e-09
0.000110139
-8.92479e-09
0.00011014
1.48028e-08
-1.1918e-08
0.00016664
8.70216e-09
0.000166648
2.74589e-08
0.00016665
-6.57211e-09
0.000166651
1.18936e-08
0.000166648
-1.39716e-08
0.000166648
6.15255e-09
0.000166646
-9.41753e-09
0.000166646
3.6788e-09
0.000166645
-3.18325e-09
0.000166646
-1.09099e-11
0.000166645
1.77353e-09
0.000166645
-3.72371e-09
0.000166645
5.17958e-09
0.000166645
-6.29938e-09
0.000166645
7.0412e-09
0.000166645
-7.54687e-09
0.000166645
7.89121e-09
0.000166645
-8.68564e-09
0.000166647
1.30986e-08
-1.10361e-08
0.000229469
2.36002e-09
0.000229477
1.96327e-08
0.000229478
-7.1717e-09
0.00022948
9.95556e-09
0.000229477
-1.0965e-08
0.000229477
5.81936e-09
0.000229475
-7.20822e-09
0.000229475
3.21099e-09
0.000229475
-2.30526e-09
0.000229475
-1.80806e-10
0.000229475
1.76366e-09
0.000229474
-3.38706e-09
0.000229475
4.63524e-09
0.000229474
-5.59336e-09
0.000229475
6.23831e-09
0.000229474
-6.70581e-09
0.000229475
7.01721e-09
0.000229474
-7.58035e-09
0.000229477
1.05016e-08
-9.24032e-09
0.000298625
-1.3596e-09
0.000298633
1.1753e-08
0.000298632
-6.03661e-09
0.000298634
6.99128e-09
0.000298631
-7.27121e-09
0.000298632
4.49111e-09
0.00029863
-4.67336e-09
0.00029863
2.34751e-09
0.00029863
-1.41962e-09
0.00029863
-2.14929e-10
0.00029863
1.39379e-09
0.000298629
-2.53513e-09
0.00029863
3.43456e-09
0.000298629
-4.1256e-09
0.000298631
4.60009e-09
0.000298629
-4.96969e-09
0.000298631
5.20538e-09
0.000298629
-5.54474e-09
0.000298632
7.10463e-09
-6.51798e-09
0.000374109
-1.66317e-09
0.000374116
4.40084e-09
0.000374113
-2.99176e-09
0.000374117
3.06005e-09
0.000374113
-3.02808e-09
0.000374115
2.10841e-09
0.000374113
-1.91366e-09
0.000374114
1.06405e-09
0.000374113
-5.57741e-10
0.000374113
-1.17012e-10
0.000374114
6.59693e-10
0.000374112
-1.16124e-09
0.000374114
1.56613e-09
0.000374112
-1.87025e-09
0.000374114
2.09035e-09
0.000374112
-2.28055e-09
0.000374115
2.38849e-09
0.000374112
-2.51895e-09
0.000374116
3.0258e-09
-2.88427e-09
0.000455925
0.000455929
0.000455926
0.000455929
0.000455926
0.000455928
0.000455926
0.000455927
0.000455927
0.000455927
0.000455927
0.000455926
0.000455928
0.000455926
0.000455928
0.000455926
0.000455928
0.000455926
0.000455929
)
;

boundaryField
{
    top
    {
        type            calculated;
        value           uniform 0;
    }
    bottom
    {
        type            calculated;
        value           uniform 0;
    }
    inlet
    {
        type            calculated;
        value           nonuniform List<scalar> 
20
(
1.90297e-05
5.07643e-05
7.61814e-05
9.52885e-05
0.000108093
0.0001146
0.000114814
0.000108737
9.63686e-05
7.77076e-05
5.27508e-05
2.14941e-05
-1.60674e-05
-5.9939e-05
-0.000110126
-0.000166632
-0.000229463
-0.000298621
-0.000374109
-0.000455926
)
;
    }
    outlet
    {
        type            calculated;
        value           nonuniform List<scalar> 
20
(
-1.90348e-05
-5.07735e-05
-7.61923e-05
-9.53004e-05
-0.000108105
-0.000114611
-0.000114824
-0.000108744
-9.63729e-05
-7.77082e-05
-5.27476e-05
-2.14872e-05
1.60776e-05
5.99516e-05
0.00011014
0.000166646
0.000229475
0.000298629
0.000374112
0.000455926
)
;
    }
    frontAndBack
    {
        type            empty;
        value           nonuniform 0();
    }
}


// ************************************************************************* //
