/*--------------------------------*- C++ -*----------------------------------*\
| =========                 |                                                 |
| \\      /  F ield         | OpenFOAM: The Open Source CFD Toolbox           |
|  \\    /   O peration     | Version:  4.1                                   |
|   \\  /    A nd           | Web:      www.OpenFOAM.org                      |
|    \\/     M anipulation  |                                                 |
\*---------------------------------------------------------------------------*/
FoamFile
{
    version     2.0;
    format      ascii;
    class       volVectorField;
    location    "0.2";
    object      U;
}
// * * * * * * * * * * * * * * * * * * * * * * * * * * * * * * * * * * * * * //

dimensions      [0 1 -1 0 0 0 0];

internalField   nonuniform List<vector> 
400
(
(-0.380632 1.9457e-06 0)
(-0.38065 -1.24409e-06 0)
(-0.380701 1.89999e-06 0)
(-0.380652 -1.47047e-06 0)
(-0.38073 1.28787e-06 0)
(-0.380623 -1.18095e-06 0)
(-0.38074 7.51095e-07 0)
(-0.380599 -5.49985e-07 0)
(-0.380749 1.73818e-07 0)
(-0.380589 1.0731e-07 0)
(-0.380751 -3.97265e-07 0)
(-0.380589 6.26666e-07 0)
(-0.380746 -8.26903e-07 0)
(-0.380598 9.94153e-07 0)
(-0.380733 -1.1028e-06 0)
(-0.380613 1.18379e-06 0)
(-0.380715 -1.24411e-06 0)
(-0.380634 1.25753e-06 0)
(-0.380689 -1.38955e-06 0)
(-0.380661 1.3961e-06 0)
(-1.01534 7.30253e-06 0)
(-1.0154 -2.92704e-06 0)
(-1.01554 6.50093e-06 0)
(-1.01538 -4.57802e-06 0)
(-1.01563 3.80952e-06 0)
(-1.01529 -3.90798e-06 0)
(-1.01566 2.11374e-06 0)
(-1.01522 -1.72471e-06 0)
(-1.01569 3.79242e-07 0)
(-1.01519 4.24822e-07 0)
(-1.01569 -1.35753e-06 0)
(-1.01519 2.06689e-06 0)
(-1.01568 -2.68965e-06 0)
(-1.01522 3.18434e-06 0)
(-1.01563 -3.51369e-06 0)
(-1.01527 3.75471e-06 0)
(-1.01558 -3.92619e-06 0)
(-1.01533 3.90797e-06 0)
(-1.0155 -4.19731e-06 0)
(-1.01542 4.30932e-06 0)
(-1.52368 1.46492e-05 0)
(-1.52377 -2.28462e-06 0)
(-1.524 1.17088e-05 0)
(-1.52373 -7.32035e-06 0)
(-1.52414 5.51419e-06 0)
(-1.52357 -6.72189e-06 0)
(-1.5242 2.80627e-06 0)
(-1.52346 -2.77048e-06 0)
(-1.52424 2.58743e-07 0)
(-1.52341 8.93191e-07 0)
(-1.52425 -2.45121e-06 0)
(-1.52342 3.54557e-06 0)
(-1.52422 -4.52557e-06 0)
(-1.52347 5.26962e-06 0)
(-1.52415 -5.7696e-06 0)
(-1.52355 6.12376e-06 0)
(-1.52406 -6.37332e-06 0)
(-1.52365 6.17571e-06 0)
(-1.52394 -6.48342e-06 0)
(-1.52379 6.62775e-06 0)
(-1.90583 2.26445e-05 0)
(-1.90592 1.13851e-06 0)
(-1.90624 1.61087e-05 0)
(-1.90584 -8.81831e-06 0)
(-1.90642 5.68561e-06 0)
(-1.90563 -8.85064e-06 0)
(-1.90651 2.45797e-06 0)
(-1.90547 -3.3656e-06 0)
(-1.90658 -2.53232e-07 0)
(-1.90541 1.40047e-06 0)
(-1.90659 -3.37938e-06 0)
(-1.90543 4.63705e-06 0)
(-1.90653 -5.80077e-06 0)
(-1.90551 6.63607e-06 0)
(-1.90644 -7.20698e-06 0)
(-1.90562 7.5986e-06 0)
(-1.90631 -7.85989e-06 0)
(-1.90576 7.42196e-06 0)
(-1.90615 -7.3332e-06 0)
(-1.90596 7.61952e-06 0)
(-2.16191 3.06363e-05 0)
(-2.162 6.7953e-06 0)
(-2.1624 1.92732e-05 0)
(-2.16187 -9.08832e-06 0)
(-2.16262 4.41053e-06 0)
(-2.16161 -1.01385e-05 0)
(-2.16274 1.2034e-06 0)
(-2.16142 -3.4992e-06 0)
(-2.16282 -1.04481e-06 0)
(-2.16136 1.88104e-06 0)
(-2.16283 -4.05543e-06 0)
(-2.16138 5.25912e-06 0)
(-2.16276 -6.43247e-06 0)
(-2.16148 7.22598e-06 0)
(-2.16264 -7.77604e-06 0)
(-2.16163 8.14037e-06 0)
(-2.16248 -8.36677e-06 0)
(-2.1618 7.68099e-06 0)
(-2.16228 -6.77993e-06 0)
(-2.16205 7.33835e-06 0)
(-2.29206 3.81232e-05 0)
(-2.29211 1.38856e-05 0)
(-2.29258 2.11251e-05 0)
(-2.29193 -8.30903e-06 0)
(-2.29285 2.02901e-06 0)
(-2.29163 -1.06244e-05 0)
(-2.293 -6.98115e-07 0)
(-2.29143 -3.24824e-06 0)
(-2.29309 -1.99374e-06 0)
(-2.29136 2.28686e-06 0)
(-2.2931 -4.45223e-06 0)
(-2.29139 5.43177e-06 0)
(-2.29301 -6.47512e-06 0)
(-2.29152 7.1279e-06 0)
(-2.29286 -7.58969e-06 0)
(-2.29169 7.88755e-06 0)
(-2.29267 -8.05334e-06 0)
(-2.29189 7.14929e-06 0)
(-2.29245 -5.05823e-06 0)
(-2.29218 6.08165e-06 0)
(-2.29634 4.45393e-05 0)
(-2.29634 2.16423e-05 0)
(-2.29687 2.16621e-05 0)
(-2.2961 -6.64292e-06 0)
(-2.29717 -1.11657e-06 0)
(-2.29578 -1.03548e-05 0)
(-2.29735 -3.00069e-06 0)
(-2.29557 -2.68818e-06 0)
(-2.29746 -2.98797e-06 0)
(-2.29549 2.57897e-06 0)
(-2.29746 -4.55646e-06 0)
(-2.29554 5.18358e-06 0)
(-2.29735 -5.9884e-06 0)
(-2.29569 6.43039e-06 0)
(-2.29718 -6.75692e-06 0)
(-2.29588 6.96466e-06 0)
(-2.29697 -7.05811e-06 0)
(-2.29611 5.98005e-06 0)
(-2.29672 -2.43831e-06 0)
(-2.29643 4.10623e-06 0)
(-2.17479 4.93087e-05 0)
(-2.17472 2.93236e-05 0)
(-2.17531 2.09352e-05 0)
(-2.17444 -4.25173e-06 0)
(-2.17563 -4.67899e-06 0)
(-2.1741 -9.39085e-06 0)
(-2.17584 -5.467e-06 0)
(-2.17389 -1.89534e-06 0)
(-2.17596 -3.92701e-06 0)
(-2.17382 2.72752e-06 0)
(-2.17595 -4.36677e-06 0)
(-2.17388 4.5532e-06 0)
(-2.17583 -5.04091e-06 0)
(-2.17404 5.22693e-06 0)
(-2.17564 -5.38862e-06 0)
(-2.17425 5.49385e-06 0)
(-2.17541 -5.51207e-06 0)
(-2.1745 4.30561e-06 0)
(-2.17515 7.83943e-07 0)
(-2.17483 1.64363e-06 0)
(-1.92743 5.19528e-05 0)
(-1.92726 3.62328e-05 0)
(-1.9279 1.90671e-05 0)
(-1.92694 -1.33445e-06 0)
(-1.92824 -8.3085e-06 0)
(-1.92661 -7.82938e-06 0)
(-1.92847 -7.86667e-06 0)
(-1.9264 -9.5086e-07 0)
(-1.92859 -4.72406e-06 0)
(-1.92634 2.71761e-06 0)
(-1.92857 -3.90304e-06 0)
(-1.92641 3.60171e-06 0)
(-1.92845 -3.72442e-06 0)
(-1.92658 3.63265e-06 0)
(-1.92824 -3.61549e-06 0)
(-1.92681 3.61413e-06 0)
(-1.928 -3.55986e-06 0)
(-1.92707 2.26472e-06 0)
(-1.92772 4.28193e-06 0)
(-1.9274 -1.08268e-06 0)
(-1.55421 5.21574e-05 0)
(-1.55394 4.17607e-05 0)
(-1.55462 1.62401e-05 0)
(-1.55358 1.87088e-06 0)
(-1.55496 -1.16766e-05 0)
(-1.55327 -5.80266e-06 0)
(-1.55521 -9.98919e-06 0)
(-1.55307 6.37566e-08 0)
(-1.55533 -5.31147e-06 0)
(-1.55302 2.5514e-06 0)
(-1.55531 -3.20697e-06 0)
(-1.5531 2.41186e-06 0)
(-1.55517 -2.15197e-06 0)
(-1.55328 1.78209e-06 0)
(-1.55496 -1.58546e-06 0)
(-1.55352 1.47932e-06 0)
(-1.55471 -1.35832e-06 0)
(-1.55378 6.92454e-09 0)
(-1.55443 7.72531e-06 0)
(-1.55411 -3.85825e-06 0)
(-1.05507 4.98168e-05 0)
(-1.05471 4.54271e-05 0)
(-1.0554 1.26801e-05 0)
(-1.05432 5.09784e-06 0)
(-1.05574 -1.45009e-05 0)
(-1.05404 -3.47092e-06 0)
(-1.056 -1.16582e-05 0)
(-1.05386 1.07172e-06 0)
(-1.05611 -5.64475e-06 0)
(-1.05382 2.24777e-06 0)
(-1.05609 -2.33931e-06 0)
(-1.05391 1.08299e-06 0)
(-1.05595 -4.51346e-07 0)
(-1.05409 -1.78156e-07 0)
(-1.05574 5.43872e-07 0)
(-1.05432 -7.4911e-07 0)
(-1.05548 9.30012e-07 0)
(-1.05459 -2.30888e-06 0)
(-1.05521 1.08094e-05 0)
(-1.0549 -6.48331e-06 0)
(-0.429938 4.50601e-05 0)
(-0.429483 4.69135e-05 0)
(-0.430181 8.64789e-06 0)
(-0.429087 8.06792e-06 0)
(-0.430504 -1.6562e-05 0)
(-0.428833 -1.01562e-06 0)
(-0.43076 -1.27421e-05 0)
(-0.428684 2.00352e-06 0)
(-0.430872 -5.70438e-06 0)
(-0.428654 1.84021e-06 0)
(-0.430844 -1.37592e-06 0)
(-0.428742 -2.74714e-07 0)
(-0.430707 1.24151e-06 0)
(-0.428919 -2.09619e-06 0)
(-0.430498 2.61166e-06 0)
(-0.429151 -2.90765e-06 0)
(-0.43025 3.14159e-06 0)
(-0.429411 -4.51676e-06 0)
(-0.42998 1.32786e-05 0)
(-0.429691 -8.77526e-06 0)
(0.321292 3.82579e-05 0)
(0.321818 4.60858e-05 0)
(0.32114 4.43708e-06 0)
(0.322214 1.05113e-05 0)
(0.320843 -1.77127e-05 0)
(0.322431 1.36717e-06 0)
(0.320594 -1.31612e-05 0)
(0.322552 2.79712e-06 0)
(0.320489 -5.49553e-06 0)
(0.322572 1.373e-06 0)
(0.320518 -4.02853e-07 0)
(0.322486 -1.5463e-06 0)
(0.32065 2.78877e-06 0)
(0.322317 -3.82095e-06 0)
(0.320848 4.45926e-06 0)
(0.322097 -4.83528e-06 0)
(0.321084 5.11524e-06 0)
(0.321849 -6.44799e-06 0)
(0.321339 1.49407e-05 0)
(0.321604 -1.05703e-05 0)
(1.19872 3.00061e-05 0)
(1.19929 4.30077e-05 0)
(1.19866 3.74574e-07 0)
(1.19968 1.21914e-05 0)
(1.19839 -1.78791e-05 0)
(1.19985 3.47496e-06 0)
(1.19816 -1.28902e-05 0)
(1.19995 3.39697e-06 0)
(1.19806 -5.04571e-06 0)
(1.19996 8.95984e-07 0)
(1.19809 4.89832e-07 0)
(1.19988 -2.61911e-06 0)
(1.19821 4.05781e-06 0)
(1.19972 -5.20883e-06 0)
(1.1984 5.93603e-06 0)
(1.19952 -6.37826e-06 0)
(1.19861 6.69592e-06 0)
(1.19929 -7.9387e-06 0)
(1.19885 1.56734e-05 0)
(1.19908 -1.1727e-05 0)
(2.20246 2.10834e-05 0)
(2.20304 3.79401e-05 0)
(2.20246 -3.18484e-06 0)
(2.20339 1.29307e-05 0)
(2.20224 -1.70568e-05 0)
(2.20353 5.1098e-06 0)
(2.20203 -1.19577e-05 0)
(2.2036 3.75281e-06 0)
(2.20194 -4.40034e-06 0)
(2.2036 4.583e-07 0)
(2.20197 1.21543e-06 0)
(2.20353 -3.3907e-06 0)
(2.20208 4.92903e-06 0)
(2.20339 -6.13117e-06 0)
(2.20224 6.90605e-06 0)
(2.20321 -7.39621e-06 0)
(2.20243 7.74011e-06 0)
(2.20301 -8.84062e-06 0)
(2.20264 1.54241e-05 0)
(2.20284 -1.21313e-05 0)
(3.33259 1.2394e-05 0)
(3.33314 3.13137e-05 0)
(3.33265 -5.86408e-06 0)
(3.33345 1.26221e-05 0)
(3.33247 -1.5293e-05 0)
(3.33356 6.0859e-06 0)
(3.33229 -1.04342e-05 0)
(3.3336 3.81619e-06 0)
(3.33221 -3.61523e-06 0)
(3.3336 1.02504e-07 0)
(3.33224 1.69649e-06 0)
(3.33354 -3.77365e-06 0)
(3.33233 5.29993e-06 0)
(3.33343 -6.4767e-06 0)
(3.33246 7.24981e-06 0)
(3.33327 -7.76267e-06 0)
(3.33263 8.11622e-06 0)
(3.3331 -9.02575e-06 0)
(3.3328 1.41977e-05 0)
(3.33297 -1.16959e-05 0)
(4.58921 4.92896e-06 0)
(4.58969 2.36426e-05 0)
(4.58929 -7.25544e-06 0)
(4.58994 1.12011e-05 0)
(4.58915 -1.26424e-05 0)
(4.59001 6.21992e-06 0)
(4.589 -8.40083e-06 0)
(4.59004 3.53184e-06 0)
(4.58895 -2.74499e-06 0)
(4.59004 -1.36994e-07 0)
(4.58896 1.86345e-06 0)
(4.58999 -3.68737e-06 0)
(4.58903 5.07171e-06 0)
(4.5899 -6.13496e-06 0)
(4.58914 6.8455e-06 0)
(4.58978 -7.34376e-06 0)
(4.58928 7.682e-06 0)
(4.58964 -8.36837e-06 0)
(4.58942 1.20114e-05 0)
(4.58955 -1.03395e-05 0)
(5.97236 -2.08894e-07 0)
(5.97274 1.55084e-05 0)
(5.97245 -6.9346e-06 0)
(5.97293 8.61676e-06 0)
(5.97235 -9.16101e-06 0)
(5.97297 5.3285e-06 0)
(5.97225 -5.93927e-06 0)
(5.97299 2.83007e-06 0)
(5.9722 -1.83254e-06 0)
(5.97298 -2.35241e-07 0)
(5.97222 1.65028e-06 0)
(5.97295 -3.05554e-06 0)
(5.97227 4.15189e-06 0)
(5.97288 -4.98949e-06 0)
(5.97234 5.55882e-06 0)
(5.9728 -5.99043e-06 0)
(5.97244 6.27348e-06 0)
(5.97269 -6.70998e-06 0)
(5.97254 8.90107e-06 0)
(5.97263 -7.96694e-06 0)
(7.48211 -2.16387e-06 0)
(7.48236 7.71429e-06 0)
(7.48218 -4.77132e-06 0)
(7.48247 5.06647e-06 0)
(7.48212 -5.1038e-06 0)
(7.48249 3.41327e-06 0)
(7.48206 -3.23586e-06 0)
(7.48249 1.7404e-06 0)
(7.48203 -9.53915e-07 0)
(7.48249 -1.87684e-07 0)
(7.48204 1.07326e-06 0)
(7.48247 -1.89916e-06 0)
(7.48207 2.55903e-06 0)
(7.48244 -3.06536e-06 0)
(7.48211 3.4222e-06 0)
(7.48238 -3.71026e-06 0)
(7.48217 3.88405e-06 0)
(7.48232 -4.12366e-06 0)
(7.48224 5.04274e-06 0)
(7.48229 -4.74038e-06 0)
(9.11849 -1.09212e-06 0)
(9.11858 2.06365e-06 0)
(9.11851 -1.61131e-06 0)
(9.11861 1.54214e-06 0)
(9.11849 -1.50375e-06 0)
(9.11861 1.10691e-06 0)
(9.11847 -9.39308e-07 0)
(9.11861 5.45749e-07 0)
(9.11847 -2.65486e-07 0)
(9.11861 -6.52575e-08 0)
(9.11847 3.43839e-07 0)
(9.11861 -6.0214e-07 0)
(9.11848 8.11926e-07 0)
(9.1186 -9.68097e-07 0)
(9.11849 1.07863e-06 0)
(9.11858 -1.17972e-06 0)
(9.11851 1.24352e-06 0)
(9.11856 -1.28206e-06 0)
(9.11853 1.53415e-06 0)
(9.11855 -1.45278e-06 0)
)
;

boundaryField
{
    top
    {
        type            fixedValue;
        value           uniform (10 0 0);
    }
    bottom
    {
        type            fixedValue;
        value           uniform (0 0 0);
    }
    inlet
    {
        type            zeroGradient;
    }
    outlet
    {
        type            zeroGradient;
    }
    frontAndBack
    {
        type            empty;
    }
}


// ************************************************************************* //
