/*--------------------------------*- C++ -*----------------------------------*\
| =========                 |                                                 |
| \\      /  F ield         | OpenFOAM: The Open Source CFD Toolbox           |
|  \\    /   O peration     | Version:  4.1                                   |
|   \\  /    A nd           | Web:      www.OpenFOAM.org                      |
|    \\/     M anipulation  |                                                 |
\*---------------------------------------------------------------------------*/
FoamFile
{
    version     2.0;
    format      ascii;
    class       surfaceScalarField;
    location    "3.4";
    object      phi;
}
// * * * * * * * * * * * * * * * * * * * * * * * * * * * * * * * * * * * * * //

dimensions      [0 3 -1 0 0 0 0];

internalField   nonuniform List<scalar> 
760
(
-1.91641e-05
-5.59397e-13
-1.91641e-05
-2.55221e-13
-1.91641e-05
-3.88422e-12
-1.91641e-05
-3.67865e-12
-1.91641e-05
-4.61694e-12
-1.91641e-05
-6.90533e-12
-1.91641e-05
-6.28102e-12
-1.91641e-05
-8.52497e-12
-1.91641e-05
-6.94857e-12
-1.91641e-05
-9.63324e-12
-1.91641e-05
-6.72499e-12
-1.91641e-05
-9.7913e-12
-1.91641e-05
-5.94405e-12
-1.91641e-05
-9.27159e-12
-1.91641e-05
-4.38462e-12
-1.91641e-05
-7.59455e-12
-1.91641e-05
-4.31789e-12
-1.91641e-05
-3.87176e-12
-1.91641e-05
-1.91296e-12
-5.25507e-12
-5.11594e-05
-3.20819e-12
-5.11594e-05
-4.841e-12
-5.11594e-05
-1.23348e-11
-5.11594e-05
-1.51349e-11
-5.11594e-05
-1.60005e-11
-5.11594e-05
-2.35336e-11
-5.11594e-05
-2.05402e-11
-5.11594e-05
-2.7746e-11
-5.11594e-05
-2.2257e-11
-5.11594e-05
-2.98448e-11
-5.11594e-05
-2.14581e-11
-5.11594e-05
-2.90823e-11
-5.11594e-05
-1.88911e-11
-5.11594e-05
-2.61378e-11
-5.11594e-05
-1.44182e-11
-5.11594e-05
-2.02545e-11
-5.11594e-05
-1.23323e-11
-5.11594e-05
-1.06915e-11
-5.11594e-05
-5.08938e-12
-1.06326e-11
-7.68219e-05
-7.12361e-12
-7.68219e-05
-1.1937e-11
-7.68219e-05
-2.28878e-11
-7.68219e-05
-3.07575e-11
-7.68219e-05
-3.03384e-11
-7.68219e-05
-4.50543e-11
-7.68219e-05
-3.81927e-11
-7.68219e-05
-5.21477e-11
-7.68219e-05
-4.10347e-11
-7.68219e-05
-5.5013e-11
-7.68219e-05
-3.94443e-11
-7.68219e-05
-5.26598e-11
-7.68219e-05
-3.46267e-11
-7.68219e-05
-4.62481e-11
-7.68219e-05
-2.67139e-11
-7.68219e-05
-3.47871e-11
-7.68219e-05
-2.17876e-11
-7.68219e-05
-1.85612e-11
-7.68219e-05
-8.38858e-12
-1.56964e-11
-9.61516e-05
-1.16158e-11
-9.61516e-05
-2.01195e-11
-9.61516e-05
-3.45634e-11
-9.61516e-05
-4.82938e-11
-9.61516e-05
-4.70671e-11
-9.61516e-05
-6.85835e-11
-9.61516e-05
-5.89521e-11
-9.61516e-05
-7.86084e-11
-9.61516e-05
-6.32975e-11
-9.61516e-05
-8.20562e-11
-9.61516e-05
-6.09784e-11
-9.61516e-05
-7.77845e-11
-9.61516e-05
-5.36202e-11
-9.61516e-05
-6.74653e-11
-9.61516e-05
-4.17987e-11
-9.61516e-05
-4.99147e-11
-9.61516e-05
-3.30113e-11
-9.61516e-05
-2.72045e-11
-9.61516e-05
-1.21331e-11
-2.04744e-11
-0.000109148
-1.56333e-11
-0.000109148
-2.72468e-11
-0.000109148
-4.45933e-11
-0.000109148
-6.35657e-11
-0.000109148
-6.18407e-11
-0.000109148
-8.85253e-11
-0.000109148
-7.7515e-11
-0.000109148
-1.00752e-10
-0.000109148
-8.33309e-11
-0.000109148
-1.04474e-10
-0.000109148
-8.04771e-11
-0.000109148
-9.84272e-11
-0.000109148
-7.08926e-11
-0.000109148
-8.47485e-11
-0.000109148
-5.56519e-11
-0.000109148
-6.19418e-11
-0.000109148
-4.32395e-11
-0.000109148
-3.44042e-11
-0.000109148
-1.50567e-11
-2.42833e-11
-0.000115812
-1.90247e-11
-0.000115812
-3.29194e-11
-0.000115812
-5.27776e-11
-0.000115812
-7.58321e-11
-0.000115812
-7.46117e-11
-0.000115812
-1.03969e-10
-0.000115812
-9.39173e-11
-0.000115812
-1.17626e-10
-0.000115812
-1.01247e-10
-0.000115812
-1.21349e-10
-0.000115812
-9.81078e-11
-0.000115812
-1.13797e-10
-0.000115812
-8.66309e-11
-0.000115813
-9.7502e-11
-0.000115812
-6.84443e-11
-0.000115813
-7.05531e-11
-0.000115812
-5.25326e-11
-0.000115813
-4.01485e-11
-0.000115812
-1.72624e-11
-2.70465e-11
-0.000116144
-2.17805e-11
-0.000116144
-3.70563e-11
-0.000116144
-5.89894e-11
-0.000116144
-8.47801e-11
-0.000116144
-8.51078e-11
-0.000116144
-1.14559e-10
-0.000116144
-1.0774e-10
-0.000116144
-1.28881e-10
-0.000116144
-1.1654e-10
-0.000116144
-1.32362e-10
-0.000116144
-1.13336e-10
-0.000116144
-1.23629e-10
-0.000116144
-1.00324e-10
-0.000116144
-1.05524e-10
-0.000116144
-7.97396e-11
-0.000116144
-7.56439e-11
-0.000116144
-6.05159e-11
-0.000116144
-4.43803e-11
-0.000116144
-1.87341e-11
-2.86254e-11
-0.000110142
-2.3991e-11
-0.000110142
-3.98325e-11
-0.000110142
-6.33624e-11
-0.000110142
-9.05817e-11
-0.000110142
-9.34022e-11
-0.000110142
-1.20642e-10
-0.000110142
-1.18949e-10
-0.000110142
-1.34991e-10
-0.000110142
-1.29096e-10
-0.000110142
-1.38047e-10
-0.000110142
-1.2599e-10
-0.000110142
-1.28467e-10
-0.000110142
-1.11773e-10
-0.000110142
-1.09293e-10
-0.000110142
-8.93455e-11
-0.000110142
-7.76252e-11
-0.000110142
-6.69823e-11
-0.000110142
-4.72927e-11
-0.000110142
-1.95803e-11
-2.90072e-11
-9.78078e-05
-2.5726e-11
-9.78078e-05
-4.14419e-11
-9.78078e-05
-6.60281e-11
-9.78078e-05
-9.34632e-11
-9.78078e-05
-9.95165e-11
-9.78078e-05
-1.22683e-10
-9.78078e-05
-1.27427e-10
-9.78078e-05
-1.36575e-10
-9.78078e-05
-1.38706e-10
-9.78078e-05
-1.391e-10
-9.78078e-05
-1.35797e-10
-9.78078e-05
-1.29008e-10
-9.78078e-05
-1.20689e-10
-9.78078e-05
-1.0942e-10
-9.78078e-05
-9.69881e-11
-9.78078e-05
-7.70193e-11
-9.78078e-05
-7.16832e-11
-9.78078e-05
-4.90912e-11
-9.78078e-05
-1.99245e-11
-2.82673e-11
-7.91406e-05
-2.69987e-11
-7.91406e-05
-4.20324e-11
-7.91406e-05
-6.70589e-11
-7.91406e-05
-9.36111e-11
-7.91406e-05
-1.03343e-10
-7.91406e-05
-1.21121e-10
-7.91406e-05
-1.32906e-10
-7.91406e-05
-1.3422e-10
-7.91406e-05
-1.45003e-10
-7.91406e-05
-1.36182e-10
-7.91406e-05
-1.42332e-10
-7.91406e-05
-1.25923e-10
-7.91406e-05
-1.26653e-10
-7.91406e-05
-1.06496e-10
-7.91406e-05
-1.02285e-10
-7.91406e-05
-7.43444e-11
-7.91406e-05
-7.43298e-11
-7.91406e-05
-4.99129e-11
-7.91406e-05
-1.98714e-11
-2.65606e-11
-5.41406e-05
-2.77665e-11
-5.41406e-05
-4.16896e-11
-5.41406e-05
-6.64872e-11
-5.41406e-05
-9.11714e-11
-5.41406e-05
-1.04691e-10
-5.41406e-05
-1.16341e-10
-5.41406e-05
-1.35037e-10
-5.41406e-05
-1.28435e-10
-5.41406e-05
-1.47555e-10
-5.41406e-05
-1.29874e-10
-5.41406e-05
-1.45118e-10
-5.41406e-05
-1.19796e-10
-5.41406e-05
-1.29211e-10
-5.41406e-05
-1.0104e-10
-5.41406e-05
-1.04819e-10
-5.41406e-05
-7.0063e-11
-5.41406e-05
-7.4661e-11
-5.41406e-05
-4.98065e-11
-5.41406e-05
-1.94931e-11
-2.41042e-11
-2.28078e-05
-2.79437e-11
-2.28078e-05
-4.04403e-11
-2.28078e-05
-6.43212e-11
-2.28078e-05
-8.62778e-11
-2.28078e-05
-1.03315e-10
-2.28078e-05
-1.08687e-10
-2.28078e-05
-1.33443e-10
-2.28078e-05
-1.19651e-10
-2.28078e-05
-1.45912e-10
-2.28078e-05
-1.20654e-10
-2.28078e-05
-1.43674e-10
-2.28078e-05
-1.11104e-10
-2.28078e-05
-1.27922e-10
-2.28078e-05
-9.34728e-11
-2.28078e-05
-1.0418e-10
-2.28078e-05
-6.45442e-11
-2.28078e-05
-7.24848e-11
-2.28078e-05
-4.87226e-11
-2.28078e-05
-1.88033e-11
-2.11428e-11
1.48578e-05
-2.74233e-11
1.48578e-05
-3.82612e-11
1.48578e-05
-6.05495e-11
1.48578e-05
-7.90776e-11
1.48578e-05
-9.8946e-11
1.48578e-05
-9.84616e-11
1.48578e-05
-1.2775e-10
1.48578e-05
-1.08216e-10
1.48578e-05
-1.39651e-10
1.48578e-05
-1.08896e-10
1.48578e-05
-1.37559e-10
1.48578e-05
-1.00197e-10
1.48578e-05
-1.22388e-10
1.48578e-05
-8.41016e-11
1.48578e-05
-9.99896e-11
1.48578e-05
-5.80273e-11
1.48578e-05
-6.76994e-11
1.48578e-05
-4.652e-11
1.48578e-05
-1.77326e-11
-1.7903e-11
5.88562e-05
-2.60887e-11
5.88562e-05
-3.50769e-11
5.88562e-05
-5.51194e-11
5.88562e-05
-6.97175e-11
5.88563e-05
-9.12917e-11
5.88562e-05
-8.58933e-11
5.88563e-05
-1.17601e-10
5.88562e-05
-9.4349e-11
5.88563e-05
-1.28388e-10
5.88562e-05
-9.48099e-11
5.88563e-05
-1.26388e-10
5.88562e-05
-8.72444e-11
5.88563e-05
-1.12272e-10
5.88562e-05
-7.30725e-11
5.88563e-05
-9.19264e-11
5.88563e-05
-5.05704e-11
5.88563e-05
-6.03006e-11
5.88563e-05
-4.29774e-11
5.88563e-05
-1.61215e-11
-1.45487e-11
0.000109187
-2.3853e-11
0.000109187
-3.08062e-11
0.000109187
-4.79749e-11
0.000109187
-5.83948e-11
0.000109188
-8.01249e-11
0.000109187
-7.1195e-11
0.000109188
-1.02757e-10
0.000109187
-7.82108e-11
0.000109188
-1.11871e-10
0.000109187
-7.8519e-11
0.000109188
-1.09919e-10
0.000109187
-7.23111e-11
0.000109188
-9.73693e-11
0.000109188
-6.04288e-11
0.000109188
-7.9795e-11
0.000109188
-4.20894e-11
0.000109188
-5.04021e-11
0.000109188
-3.78526e-11
0.000109188
-1.37472e-11
-1.11617e-11
0.000165852
-2.07488e-11
0.000165852
-2.5524e-11
0.000165852
-3.92787e-11
0.000165852
-4.56356e-11
0.000165852
-6.56669e-11
0.000165852
-5.49523e-11
0.000165852
-8.35697e-11
0.000165852
-6.03575e-11
0.000165852
-9.05194e-11
0.000165852
-6.05254e-11
0.000165852
-8.85909e-11
0.000165852
-5.57905e-11
0.000165852
-7.80895e-11
0.000165852
-4.64783e-11
0.000165852
-6.39191e-11
0.000165852
-3.26404e-11
0.000165852
-3.84793e-11
0.000165852
-3.1077e-11
0.000165852
-1.05023e-11
-7.79448e-12
0.000228848
-1.65302e-11
0.000228848
-1.89154e-11
0.000228848
-2.86641e-11
0.000228848
-3.1235e-11
0.000228848
-4.76671e-11
0.000228848
-3.67779e-11
0.000228848
-5.99846e-11
0.000228848
-4.02774e-11
0.000228848
-6.44191e-11
0.000228848
-4.02705e-11
0.000228848
-6.2606e-11
0.000228848
-3.71267e-11
0.000228848
-5.47004e-11
0.000228848
-3.07641e-11
0.000228848
-4.46179e-11
0.000228848
-2.17461e-11
0.000228848
-2.49657e-11
0.000228848
-2.25355e-11
0.000228848
-6.30724e-12
-4.44971e-12
0.000298178
-1.20463e-11
0.000298178
-1.2712e-11
0.000298178
-1.87429e-11
0.000298178
-1.89643e-11
0.000298178
-3.03564e-11
0.000298178
-2.16124e-11
0.000298178
-3.7375e-11
0.000298178
-2.34986e-11
0.000298178
-3.95e-11
0.000298178
-2.33343e-11
0.000298178
-3.78675e-11
0.000298178
-2.14421e-11
0.000298178
-3.25523e-11
0.000298178
-1.75662e-11
0.000298178
-2.62513e-11
0.000298178
-1.24362e-11
0.000298178
-1.31105e-11
0.000298178
-1.40073e-11
0.000298178
-2.61731e-12
-1.77643e-12
0.000373841
-6.56345e-12
0.000373841
-5.94267e-12
0.000373841
-8.38751e-12
0.000373841
-7.37767e-12
0.000373841
-1.29428e-11
0.000373841
-7.69476e-12
0.000373841
-1.53049e-11
0.000373841
-8.13724e-12
0.000373841
-1.5625e-11
0.000373841
-7.89862e-12
0.000373841
-1.4509e-11
0.000373841
-7.16027e-12
0.000373841
-1.1967e-11
0.000373841
-5.6771e-12
0.000373841
-9.38479e-12
0.000373841
-3.91102e-12
0.000373841
-3.30047e-12
0.000373841
-5.71045e-12
0.000373841
3.62207e-13
7.31146e-14
0.000455836
0.000455836
0.000455836
0.000455836
0.000455836
0.000455836
0.000455836
0.000455836
0.000455836
0.000455836
0.000455836
0.000455836
0.000455836
0.000455836
0.000455836
0.000455836
0.000455836
0.000455836
0.000455836
)
;

boundaryField
{
    top
    {
        type            calculated;
        value           uniform 0;
    }
    bottom
    {
        type            calculated;
        value           uniform 0;
    }
    inlet
    {
        type            calculated;
        value           nonuniform List<scalar> 
20
(
1.91641e-05
5.11594e-05
7.68219e-05
9.61516e-05
0.000109148
0.000115812
0.000116144
0.000110142
9.78078e-05
7.91406e-05
5.41406e-05
2.28078e-05
-1.48578e-05
-5.88562e-05
-0.000109187
-0.000165852
-0.000228848
-0.000298178
-0.000373841
-0.000455836
)
;
    }
    outlet
    {
        type            calculated;
        value           nonuniform List<scalar> 
20
(
-1.91641e-05
-5.11594e-05
-7.68219e-05
-9.61516e-05
-0.000109148
-0.000115813
-0.000116144
-0.000110142
-9.78078e-05
-7.91406e-05
-5.41406e-05
-2.28078e-05
1.48578e-05
5.88563e-05
0.000109188
0.000165852
0.000228848
0.000298178
0.000373841
0.000455836
)
;
    }
    frontAndBack
    {
        type            empty;
        value           nonuniform 0();
    }
}


// ************************************************************************* //
