/*--------------------------------*- C++ -*----------------------------------*\
| =========                 |                                                 |
| \\      /  F ield         | OpenFOAM: The Open Source CFD Toolbox           |
|  \\    /   O peration     | Version:  4.1                                   |
|   \\  /    A nd           | Web:      www.OpenFOAM.org                      |
|    \\/     M anipulation  |                                                 |
\*---------------------------------------------------------------------------*/
FoamFile
{
    version     2.0;
    format      ascii;
    class       volVectorField;
    location    "3.4";
    object      U;
}
// * * * * * * * * * * * * * * * * * * * * * * * * * * * * * * * * * * * * * //

dimensions      [0 1 -1 0 0 0 0];

internalField   nonuniform List<vector> 
400
(
(-0.383281 -2.04408e-10 0)
(-0.383281 4.01183e-11 0)
(-0.383281 -1.8205e-09 0)
(-0.383281 -1.5677e-09 0)
(-0.383281 -2.15647e-09 0)
(-0.383281 -3.1478e-09 0)
(-0.383281 -2.9832e-09 0)
(-0.383281 -3.9519e-09 0)
(-0.383281 -3.32695e-09 0)
(-0.383281 -4.52928e-09 0)
(-0.383281 -3.23549e-09 0)
(-0.383281 -4.65653e-09 0)
(-0.383281 -2.87262e-09 0)
(-0.383281 -4.46607e-09 0)
(-0.383281 -2.11684e-09 0)
(-0.383281 -3.71347e-09 0)
(-0.383281 -2.12304e-09 0)
(-0.383281 -1.90803e-09 0)
(-0.383281 -9.84082e-10 0)
(-0.383281 -2.67968e-09 0)
(-1.02319 -1.61135e-09 0)
(-1.02319 -1.96258e-09 0)
(-1.02319 -7.51687e-09 0)
(-1.02319 -8.36951e-09 0)
(-1.02319 -9.38041e-09 0)
(-1.02319 -1.39676e-08 0)
(-1.02319 -1.2308e-08 0)
(-1.02319 -1.67799e-08 0)
(-1.02319 -1.34376e-08 0)
(-1.02319 -1.84189e-08 0)
(-1.02319 -1.29637e-08 0)
(-1.02319 -1.82688e-08 0)
(-1.02319 -1.14228e-08 0)
(-1.02319 -1.6789e-08 0)
(-1.02319 -8.5871e-09 0)
(-1.02319 -1.33305e-08 0)
(-1.02319 -7.81142e-09 0)
(-1.02319 -6.919e-09 0)
(-1.02319 -3.33754e-09 0)
(-1.02319 -7.98325e-09 0)
(-1.53644 -5.00198e-09 0)
(-1.53644 -8.06071e-09 0)
(-1.53644 -1.73439e-08 0)
(-1.53644 -2.24009e-08 0)
(-1.53644 -2.27467e-08 0)
(-1.53644 -3.37125e-08 0)
(-1.53644 -2.88723e-08 0)
(-1.53644 -3.93591e-08 0)
(-1.53644 -3.11313e-08 0)
(-1.53644 -4.18947e-08 0)
(-1.53644 -2.99539e-08 0)
(-1.53644 -4.04347e-08 0)
(-1.53644 -2.63227e-08 0)
(-1.53644 -3.58902e-08 0)
(-1.53644 -2.01984e-08 0)
(-1.53644 -2.73804e-08 0)
(-1.53644 -1.68488e-08 0)
(-1.53644 -1.45272e-08 0)
(-1.53644 -6.73508e-09 0)
(-1.53644 -1.32589e-08 0)
(-1.92303 -9.32412e-09 0)
(-1.92303 -1.59603e-08 0)
(-1.92303 -2.87129e-08 0)
(-1.92303 -3.94477e-08 0)
(-1.92303 -3.85926e-08 0)
(-1.92303 -5.6832e-08 0)
(-1.92303 -4.84128e-08 0)
(-1.92303 -6.54449e-08 0)
(-1.92303 -5.19772e-08 0)
(-1.92303 -6.86514e-08 0)
(-1.92303 -5.00069e-08 0)
(-1.92303 -6.53729e-08 0)
(-1.92303 -4.39285e-08 0)
(-1.92303 -5.70246e-08 0)
(-1.92303 -3.40709e-08 0)
(-1.92303 -4.25259e-08 0)
(-1.92303 -2.73033e-08 0)
(-1.92303 -2.29249e-08 0)
(-1.92303 -1.0301e-08 0)
(-1.92303 -1.82062e-08 0)
(-2.18297 -1.36881e-08 0)
(-2.18297 -2.38444e-08 0)
(-2.18297 -3.98088e-08 0)
(-2.18297 -5.62756e-08 0)
(-2.18297 -5.46666e-08 0)
(-2.18297 -7.91149e-08 0)
(-2.18297 -6.84452e-08 0)
(-2.18297 -9.03523e-08 0)
(-2.18297 -7.35078e-08 0)
(-2.18297 -9.39863e-08 0)
(-2.18297 -7.08826e-08 0)
(-2.18297 -8.88049e-08 0)
(-2.18297 -6.23716e-08 0)
(-2.18297 -7.67197e-08 0)
(-2.18297 -4.87841e-08 0)
(-2.18297 -5.64078e-08 0)
(-2.18297 -3.81971e-08 0)
(-2.18297 -3.09927e-08 0)
(-2.18297 -1.36982e-08 0)
(-2.18297 -2.25528e-08 0)
(-2.31625 -1.745e-08 0)
(-2.31625 -3.03707e-08 0)
(-2.31625 -4.90673e-08 0)
(-2.31625 -7.03028e-08 0)
(-2.31625 -6.86651e-08 0)
(-2.31625 -9.71367e-08 0)
(-2.31625 -8.62069e-08 0)
(-2.31625 -1.10221e-07 0)
(-2.31625 -9.27841e-08 0)
(-2.31625 -1.1399e-07 0)
(-2.31625 -8.97414e-08 0)
(-2.31625 -1.07134e-07 0)
(-2.31625 -7.91395e-08 0)
(-2.31625 -9.20005e-08 0)
(-2.31625 -6.23185e-08 0)
(-2.31625 -6.69062e-08 0)
(-2.31625 -4.81128e-08 0)
(-2.31625 -3.75584e-08 0)
(-2.31625 -1.63022e-08 0)
(-2.31625 -2.58873e-08 0)
(-2.32287 -2.05233e-08 0)
(-2.32287 -3.52847e-08 0)
(-2.32287 -5.62761e-08 0)
(-2.32287 -8.09524e-08 0)
(-2.32287 -8.0321e-08 0)
(-2.32287 -1.10187e-07 0)
(-2.32287 -1.0136e-07 0)
(-2.32287 -1.24307e-07 0)
(-2.32287 -1.0944e-07 0)
(-2.32287 -1.27945e-07 0)
(-2.32287 -1.06227e-07 0)
(-2.32287 -1.19734e-07 0)
(-2.32287 -9.39097e-08 0)
(-2.32287 -1.0238e-07 0)
(-2.32287 -7.44093e-08 0)
(-2.32287 -7.37361e-08 0)
(-2.32287 -5.67977e-08 0)
(-2.32287 -4.25289e-08 0)
(-2.32287 -1.81258e-08 0)
(-2.32287 -2.80704e-08 0)
(-2.20284 -2.29925e-08 0)
(-2.20284 -3.87126e-08 0)
(-2.20284 -6.15489e-08 0)
(-2.20284 -8.83025e-08 0)
(-2.20284 -8.97136e-08 0)
(-2.20284 -1.18462e-07 0)
(-2.20284 -1.13898e-07 0)
(-2.20284 -1.32903e-07 0)
(-2.20284 -1.23403e-07 0)
(-2.20284 -1.36193e-07 0)
(-2.20284 -1.20216e-07 0)
(-2.20284 -1.26965e-07 0)
(-2.20284 -1.06533e-07 0)
(-2.20284 -1.08182e-07 0)
(-2.20284 -8.49081e-08 0)
(-2.20284 -7.71891e-08 0)
(-2.20284 -6.40699e-08 0)
(-2.20284 -4.60636e-08 0)
(-2.20284 -1.92629e-08 0)
(-2.20284 -2.90448e-08 0)
(-1.95616 -2.49551e-08 0)
(-1.95616 -4.08717e-08 0)
(-1.95616 -6.50467e-08 0)
(-1.95616 -9.26059e-08 0)
(-1.95616 -9.69234e-08 0)
(-1.95616 -1.2244e-07 0)
(-1.95616 -1.23775e-07 0)
(-1.95616 -1.36636e-07 0)
(-1.95616 -1.34538e-07 0)
(-1.95616 -1.39434e-07 0)
(-1.95616 -1.31511e-07 0)
(-1.95616 -1.29524e-07 0)
(-1.95616 -1.16781e-07 0)
(-1.95616 -1.10015e-07 0)
(-1.95616 -9.35943e-08 0)
(-1.95616 -7.77766e-08 0)
(-1.95616 -6.97064e-08 0)
(-1.95616 -4.83852e-08 0)
(-1.95616 -1.98354e-08 0)
(-1.95616 -2.88423e-08 0)
(-1.58281 -2.64586e-08 0)
(-1.58281 -4.19454e-08 0)
(-1.58281 -6.68794e-08 0)
(-1.58281 -9.40858e-08 0)
(-1.58281 -1.01916e-07 0)
(-1.58281 -1.22597e-07 0)
(-1.58281 -1.30807e-07 0)
(-1.58281 -1.36143e-07 0)
(-1.58281 -1.42562e-07 0)
(-1.58281 -1.3838e-07 0)
(-1.58281 -1.39764e-07 0)
(-1.58281 -1.2813e-07 0)
(-1.58281 -1.24301e-07 0)
(-1.58281 -1.0851e-07 0)
(-1.58281 -1.00139e-07 0)
(-1.58281 -7.60413e-08 0)
(-1.58281 -7.34341e-08 0)
(-1.58281 -4.96776e-08 0)
(-1.58281 -1.99631e-08 0)
(-1.58281 -2.75814e-08 0)
(-1.08281 -2.74883e-08 0)
(-1.08281 -4.20531e-08 0)
(-1.08281 -6.70991e-08 0)
(-1.08281 -9.29084e-08 0)
(-1.08281 -1.0454e-07 0)
(-1.08281 -1.19352e-07 0)
(-1.08281 -1.34678e-07 0)
(-1.08281 -1.31979e-07 0)
(-1.08281 -1.47069e-07 0)
(-1.08281 -1.33664e-07 0)
(-1.08281 -1.44516e-07 0)
(-1.08281 -1.23423e-07 0)
(-1.08281 -1.28649e-07 0)
(-1.08281 -1.04232e-07 0)
(-1.08281 -1.04136e-07 0)
(-1.08281 -7.24845e-08 0)
(-1.08281 -7.49702e-08 0)
(-1.08281 -5.00389e-08 0)
(-1.08281 -1.97401e-08 0)
(-1.08281 -2.5454e-08 0)
(-0.456156 -2.79777e-08 0)
(-0.456156 -4.12512e-08 0)
(-0.456156 -6.57253e-08 0)
(-0.456156 -8.92103e-08 0)
(-0.456156 -1.04573e-07 0)
(-0.456156 -1.13071e-07 0)
(-0.456156 -1.35018e-07 0)
(-0.456156 -1.2462e-07 0)
(-0.456156 -1.47607e-07 0)
(-0.456156 -1.25821e-07 0)
(-0.456156 -1.45277e-07 0)
(-0.456156 -1.15938e-07 0)
(-0.456156 -1.29367e-07 0)
(-0.456156 -9.76549e-08 0)
(-0.456156 -1.05164e-07 0)
(-0.456156 -6.75305e-08 0)
(-0.456156 -7.40806e-08 0)
(-0.456156 -4.94691e-08 0)
(-0.456156 -1.92141e-08 0)
(-0.456156 -2.26993e-08 0)
(0.297156 -2.78259e-08 0)
(0.297156 -3.95393e-08 0)
(0.297156 -6.27551e-08 0)
(0.297156 -8.3127e-08 0)
(0.297156 -1.0175e-07 0)
(0.297156 -1.04073e-07 0)
(0.297156 -1.31441e-07 0)
(0.297156 -1.14453e-07 0)
(0.297156 -1.43733e-07 0)
(0.297156 -1.15276e-07 0)
(0.297156 -1.41579e-07 0)
(0.297156 -1.06091e-07 0)
(0.297156 -1.26029e-07 0)
(0.297156 -8.91461e-08 0)
(0.297156 -1.02821e-07 0)
(0.297156 -6.14888e-08 0)
(0.297156 -7.0614e-08 0)
(0.297156 -4.78694e-08 0)
(0.297156 -1.83603e-08 0)
(0.297156 -1.95614e-08 0)
(1.17712 -2.69165e-08 0)
(1.17712 -3.68641e-08 0)
(1.17712 -5.81543e-08 0)
(1.17712 -7.48008e-08 0)
(1.17712 -9.57784e-08 0)
(1.17712 -9.26224e-08 0)
(1.17712 -1.23568e-07 0)
(1.17713 -1.01757e-07 0)
(1.17712 -1.35023e-07 0)
(1.17713 -1.02315e-07 0)
(1.17712 -1.32989e-07 0)
(1.17713 -9.41355e-08 0)
(1.17713 -1.18251e-07 0)
(1.17713 -7.89279e-08 0)
(1.17713 -9.67419e-08 0)
(1.17713 -5.45075e-08 0)
(1.17713 -6.451e-08 0)
(1.17713 -4.50487e-08 0)
(1.17713 -1.70602e-08 0)
(1.17713 -1.62412e-08 0)
(2.18375 -2.51468e-08 0)
(2.18375 -3.31429e-08 0)
(2.18375 -5.18642e-08 0)
(2.18375 -6.43995e-08 0)
(2.18375 -8.63762e-08 0)
(2.18375 -7.89302e-08 0)
(2.18375 -1.11067e-07 0)
(2.18375 -8.67088e-08 0)
(2.18375 -1.21121e-07 0)
(2.18375 -8.70925e-08 0)
(2.18375 -1.19152e-07 0)
(2.18375 -8.01743e-08 0)
(2.18375 -1.05724e-07 0)
(2.18375 -6.70803e-08 0)
(2.18375 -8.66329e-08 0)
(2.18375 -4.65604e-08 0)
(2.18375 -5.58036e-08 0)
(2.18375 -4.07546e-08 0)
(2.18375 -1.51037e-08 0)
(2.18375 -1.28587e-08 0)
(3.31703 -2.24488e-08 0)
(3.31703 -2.82985e-08 0)
(3.31703 -4.38311e-08 0)
(3.31703 -5.21444e-08 0)
(3.31703 -7.33745e-08 0)
(3.31703 -6.31995e-08 0)
(3.31703 -9.37921e-08 0)
(3.31703 -6.94399e-08 0)
(3.31703 -1.01893e-07 0)
(3.31703 -6.96854e-08 0)
(3.31703 -9.99562e-08 0)
(3.31703 -6.42159e-08 0)
(3.31703 -8.83591e-08 0)
(3.31703 -5.35932e-08 0)
(3.31703 -7.24055e-08 0)
(3.31703 -3.74912e-08 0)
(3.31703 -4.46883e-08 0)
(3.31703 -3.47497e-08 0)
(3.31703 -1.22604e-08 0)
(3.31703 -9.45106e-09 0)
(4.57697 -1.87832e-08 0)
(4.57697 -2.23036e-08 0)
(4.57697 -3.40795e-08 0)
(4.57697 -3.837e-08 0)
(4.57697 -5.69191e-08 0)
(4.57697 -4.57421e-08 0)
(4.57697 -7.207e-08 0)
(4.57697 -5.01988e-08 0)
(4.57697 -7.7767e-08 0)
(4.57697 -5.02845e-08 0)
(4.57697 -7.58793e-08 0)
(4.57697 -4.63713e-08 0)
(4.57697 -6.66277e-08 0)
(4.57697 -3.85436e-08 0)
(4.57697 -5.4474e-08 0)
(4.57697 -2.71829e-08 0)
(4.57697 -3.1688e-08 0)
(4.57697 -2.69753e-08 0)
(4.57697 -8.44795e-09 0)
(4.57697 -6.0437e-09 0)
(5.96356 -1.45092e-08 0)
(5.96356 -1.59092e-08 0)
(5.96356 -2.37781e-08 0)
(5.96356 -2.49246e-08 0)
(5.96356 -3.90614e-08 0)
(5.96356 -2.8927e-08 0)
(5.96356 -4.86267e-08 0)
(5.96356 -3.15919e-08 0)
(5.96356 -5.18183e-08 0)
(5.96356 -3.14958e-08 0)
(5.96356 -5.00343e-08 0)
(5.96356 -2.90059e-08 0)
(5.96356 -4.33833e-08 0)
(5.96356 -2.39105e-08 0)
(5.96356 -3.52061e-08 0)
(5.96356 -1.69502e-08 0)
(5.96356 -1.86573e-08 0)
(5.96356 -1.82836e-08 0)
(5.96356 -4.34091e-09 0)
(5.96356 -2.95452e-09 0)
(7.47681 -9.46726e-09 0)
(7.47681 -9.24236e-09 0)
(7.47681 -1.33537e-08 0)
(7.47681 -1.25971e-08 0)
(7.47681 -2.11845e-08 0)
(7.47681 -1.38323e-08 0)
(7.47681 -2.56119e-08 0)
(7.47681 -1.48809e-08 0)
(7.47681 -2.66609e-08 0)
(7.47681 -1.46482e-08 0)
(7.47681 -2.52195e-08 0)
(7.47681 -1.34006e-08 0)
(7.47681 -2.13132e-08 0)
(7.47681 -1.08388e-08 0)
(7.47681 -1.69979e-08 0)
(7.47681 -7.6315e-09 0)
(7.47681 -7.40812e-09 0)
(7.47681 -9.60589e-09 0)
(7.47681 -7.72961e-10 0)
(7.47681 -6.06449e-10 0)
(9.11672 -3.43452e-09 0)
(9.11672 -3.08108e-09 0)
(9.11672 -4.30339e-09 0)
(9.11672 -3.71774e-09 0)
(9.11672 -6.53954e-09 0)
(9.11672 -3.85655e-09 0)
(9.11672 -7.649e-09 0)
(9.11672 -4.06999e-09 0)
(9.11672 -7.74961e-09 0)
(9.11672 -3.93857e-09 0)
(9.11672 -7.15045e-09 0)
(9.11672 -3.56237e-09 0)
(9.11672 -5.85318e-09 0)
(9.11672 -2.80593e-09 0)
(9.11672 -4.54944e-09 0)
(9.11672 -1.94414e-09 0)
(9.11672 -1.46454e-09 0)
(9.11672 -2.83087e-09 0)
(9.11672 2.48534e-10 0)
(9.11672 1.12955e-10 0)
)
;

boundaryField
{
    top
    {
        type            fixedValue;
        value           uniform (10 0 0);
    }
    bottom
    {
        type            fixedValue;
        value           uniform (0 0 0);
    }
    inlet
    {
        type            zeroGradient;
    }
    outlet
    {
        type            zeroGradient;
    }
    frontAndBack
    {
        type            empty;
    }
}


// ************************************************************************* //
