/*--------------------------------*- C++ -*----------------------------------*\
| =========                 |                                                 |
| \\      /  F ield         | OpenFOAM: The Open Source CFD Toolbox           |
|  \\    /   O peration     | Version:  4.1                                   |
|   \\  /    A nd           | Web:      www.OpenFOAM.org                      |
|    \\/     M anipulation  |                                                 |
\*---------------------------------------------------------------------------*/
FoamFile
{
    version     2.0;
    format      ascii;
    class       volScalarField;
    location    "2.5";
    object      p;
}
// * * * * * * * * * * * * * * * * * * * * * * * * * * * * * * * * * * * * * //

dimensions      [0 2 -2 0 0 0 0];

internalField   nonuniform List<scalar> 
400
(
1.69713e-09
1.89416e-09
1.61642e-09
1.72875e-09
1.5243e-09
1.58324e-09
1.4286e-09
1.44492e-09
1.32763e-09
1.31089e-09
1.22328e-09
1.17943e-09
1.11712e-09
1.04915e-09
1.01039e-09
9.18881e-10
9.04674e-10
7.89745e-10
8.07882e-10
7.61934e-10
1.69097e-09
1.88785e-09
1.61595e-09
1.72862e-09
1.52431e-09
1.58322e-09
1.42861e-09
1.4449e-09
1.32764e-09
1.31089e-09
1.22329e-09
1.17943e-09
1.11712e-09
1.04916e-09
1.01039e-09
9.18883e-10
9.04604e-10
7.89791e-10
8.03675e-10
7.57484e-10
1.68749e-09
1.88337e-09
1.61537e-09
1.72861e-09
1.52423e-09
1.58327e-09
1.42857e-09
1.44494e-09
1.32762e-09
1.3109e-09
1.22328e-09
1.17943e-09
1.11712e-09
1.04915e-09
1.0104e-09
9.18861e-10
9.04575e-10
7.89746e-10
8.00366e-10
7.54424e-10
1.6864e-09
1.88128e-09
1.61482e-09
1.72863e-09
1.52415e-09
1.58333e-09
1.42852e-09
1.44498e-09
1.32759e-09
1.31092e-09
1.22326e-09
1.17944e-09
1.11712e-09
1.04914e-09
1.01041e-09
9.18836e-10
9.04563e-10
7.89632e-10
7.98469e-10
7.52862e-10
1.68674e-09
1.88085e-09
1.6143e-09
1.72864e-09
1.52408e-09
1.58338e-09
1.42848e-09
1.445e-09
1.32756e-09
1.31094e-09
1.22325e-09
1.17944e-09
1.11712e-09
1.04914e-09
1.01042e-09
9.18816e-10
9.04556e-10
7.89485e-10
7.97673e-10
7.5232e-10
1.68803e-09
1.88152e-09
1.61379e-09
1.72864e-09
1.52402e-09
1.58341e-09
1.42845e-09
1.44503e-09
1.32755e-09
1.31095e-09
1.22325e-09
1.17945e-09
1.11712e-09
1.04913e-09
1.01043e-09
9.18801e-10
9.04553e-10
7.89321e-10
7.97757e-10
7.52576e-10
1.68999e-09
1.88297e-09
1.61326e-09
1.72864e-09
1.52398e-09
1.58344e-09
1.42843e-09
1.44505e-09
1.32753e-09
1.31096e-09
1.22324e-09
1.17945e-09
1.11712e-09
1.04913e-09
1.01044e-09
9.18788e-10
9.04555e-10
7.89152e-10
7.98579e-10
7.53491e-10
1.6923e-09
1.88486e-09
1.61272e-09
1.72863e-09
1.52394e-09
1.58346e-09
1.42841e-09
1.44506e-09
1.32752e-09
1.31097e-09
1.22324e-09
1.17945e-09
1.11712e-09
1.04912e-09
1.01045e-09
9.1878e-10
9.0456e-10
7.88993e-10
7.99963e-10
7.54885e-10
1.69463e-09
1.88685e-09
1.61216e-09
1.7286e-09
1.52391e-09
1.58348e-09
1.4284e-09
1.44507e-09
1.32751e-09
1.31097e-09
1.22323e-09
1.17945e-09
1.11712e-09
1.04912e-09
1.01045e-09
9.18775e-10
9.04565e-10
7.88856e-10
8.01695e-10
7.56543e-10
1.69668e-09
1.88862e-09
1.61158e-09
1.72857e-09
1.52389e-09
1.58348e-09
1.42839e-09
1.44508e-09
1.32751e-09
1.31098e-09
1.22323e-09
1.17945e-09
1.11712e-09
1.04912e-09
1.01045e-09
9.18773e-10
9.04568e-10
7.88749e-10
8.03549e-10
7.58239e-10
1.69821e-09
1.88992e-09
1.611e-09
1.72851e-09
1.52388e-09
1.58348e-09
1.42839e-09
1.44507e-09
1.32751e-09
1.31098e-09
1.22323e-09
1.17945e-09
1.11713e-09
1.04912e-09
1.01046e-09
9.18775e-10
9.04566e-10
7.88679e-10
8.05299e-10
7.59757e-10
1.69901e-09
1.89055e-09
1.61043e-09
1.72843e-09
1.52387e-09
1.58347e-09
1.4284e-09
1.44507e-09
1.32752e-09
1.31097e-09
1.22323e-09
1.17945e-09
1.11713e-09
1.04912e-09
1.01045e-09
9.1878e-10
9.04557e-10
7.88646e-10
8.0674e-10
7.60902e-10
1.69897e-09
1.89038e-09
1.60987e-09
1.72834e-09
1.52388e-09
1.58345e-09
1.42841e-09
1.44506e-09
1.32752e-09
1.31097e-09
1.22324e-09
1.17945e-09
1.11713e-09
1.04912e-09
1.01045e-09
9.18788e-10
9.0454e-10
7.88649e-10
8.07698e-10
7.61512e-10
1.69804e-09
1.8894e-09
1.60935e-09
1.72823e-09
1.52389e-09
1.58343e-09
1.42843e-09
1.44504e-09
1.32754e-09
1.31096e-09
1.22324e-09
1.17945e-09
1.11713e-09
1.04913e-09
1.01045e-09
9.18799e-10
9.04512e-10
7.88683e-10
8.08049e-10
7.61478e-10
1.69627e-09
1.88766e-09
1.60888e-09
1.7281e-09
1.52392e-09
1.5834e-09
1.42846e-09
1.44502e-09
1.32755e-09
1.31095e-09
1.22325e-09
1.17944e-09
1.11713e-09
1.04913e-09
1.01044e-09
9.18811e-10
9.04474e-10
7.88741e-10
8.07724e-10
7.60741e-10
1.69384e-09
1.88536e-09
1.60847e-09
1.72796e-09
1.52395e-09
1.58335e-09
1.42849e-09
1.445e-09
1.32757e-09
1.31093e-09
1.22326e-09
1.17944e-09
1.11713e-09
1.04913e-09
1.01043e-09
9.18825e-10
9.04426e-10
7.88816e-10
8.06741e-10
7.5933e-10
1.69094e-09
1.88274e-09
1.60815e-09
1.72781e-09
1.524e-09
1.5833e-09
1.42853e-09
1.44497e-09
1.32759e-09
1.31092e-09
1.22327e-09
1.17943e-09
1.11712e-09
1.04914e-09
1.01042e-09
9.18841e-10
9.04368e-10
7.889e-10
8.0518e-10
7.57313e-10
1.68801e-09
1.88028e-09
1.60793e-09
1.72765e-09
1.52406e-09
1.58324e-09
1.42858e-09
1.44493e-09
1.32762e-09
1.3109e-09
1.22328e-09
1.17943e-09
1.11712e-09
1.04915e-09
1.01041e-09
9.1886e-10
9.04299e-10
7.88986e-10
8.03222e-10
7.54856e-10
1.68574e-09
1.87846e-09
1.60777e-09
1.7275e-09
1.52411e-09
1.58319e-09
1.42862e-09
1.4449e-09
1.32765e-09
1.31088e-09
1.22329e-09
1.17942e-09
1.11712e-09
1.04915e-09
1.01039e-09
9.18873e-10
9.04228e-10
7.89061e-10
8.00999e-10
7.52206e-10
1.68533e-09
1.87766e-09
1.60755e-09
1.72747e-09
1.52408e-09
1.5832e-09
1.4286e-09
1.44491e-09
1.32764e-09
1.31089e-09
1.22329e-09
1.17943e-09
1.11712e-09
1.04915e-09
1.0104e-09
9.1886e-10
9.04187e-10
7.89089e-10
7.98912e-10
7.50163e-10
)
;

boundaryField
{
    top
    {
        type            zeroGradient;
    }
    bottom
    {
        type            zeroGradient;
    }
    inlet
    {
        type            fixedValue;
        value           uniform 0;
    }
    outlet
    {
        type            fixedValue;
        value           uniform 0;
    }
    frontAndBack
    {
        type            empty;
    }
}


// ************************************************************************* //
