/*--------------------------------*- C++ -*----------------------------------*\
| =========                 |                                                 |
| \\      /  F ield         | OpenFOAM: The Open Source CFD Toolbox           |
|  \\    /   O peration     | Version:  4.1                                   |
|   \\  /    A nd           | Web:      www.OpenFOAM.org                      |
|    \\/     M anipulation  |                                                 |
\*---------------------------------------------------------------------------*/
FoamFile
{
    version     2.0;
    format      ascii;
    class       surfaceScalarField;
    location    "2.5";
    object      phi;
}
// * * * * * * * * * * * * * * * * * * * * * * * * * * * * * * * * * * * * * //

dimensions      [0 3 -1 0 0 0 0];

internalField   nonuniform List<scalar> 
760
(
1.25e-06
-2.63767e-15
1.25e-06
-1.81166e-15
1.25e-06
2.25191e-17
1.25e-06
-1.28182e-16
1.25e-06
8.53775e-17
1.25e-06
-7.22073e-17
1.25e-06
5.71024e-17
1.25e-06
-4.4691e-17
1.25e-06
3.35539e-17
1.25e-06
-2.35846e-17
1.25e-06
1.44669e-17
1.25e-06
-5.93821e-18
1.25e-06
-2.18837e-18
1.25e-06
1.00881e-17
1.25e-06
-1.83179e-17
1.25e-06
2.50624e-17
1.25e-06
-4.7797e-17
1.25e-06
6.74097e-17
1.25e-06
-1.08543e-15
-1.60004e-15
3.74999e-06
-7.97231e-15
3.74999e-06
-6.33933e-15
3.74999e-06
-1.31651e-16
3.74999e-06
-3.1196e-16
3.74999e-06
1.78948e-16
3.74999e-06
-1.56471e-16
3.74999e-06
1.2261e-16
3.74999e-06
-9.60841e-17
3.74999e-06
7.20188e-17
3.74999e-06
-5.05266e-17
3.74999e-06
3.08586e-17
3.74999e-06
-1.24241e-17
3.74999e-06
-5.13502e-18
3.74999e-06
2.21403e-17
3.74999e-06
-4.03976e-17
3.74999e-06
5.24978e-17
3.74999e-06
-1.25606e-16
3.74999e-06
1.77916e-16
3.74999e-06
-3.99785e-15
-5.16627e-15
6.24998e-06
-1.44232e-14
6.24998e-06
-1.24992e-14
6.24998e-06
-4.88312e-16
6.24998e-06
-4.78641e-16
6.24998e-06
2.30238e-16
6.24998e-06
-2.10417e-16
6.24998e-06
1.6294e-16
6.24998e-06
-1.27911e-16
6.24998e-06
9.56695e-17
6.24998e-06
-6.69666e-17
6.24998e-06
4.06742e-17
6.24998e-06
-1.597e-17
6.24998e-06
-7.54865e-18
6.24998e-06
3.02182e-17
6.24998e-06
-5.54777e-17
6.24998e-06
6.7597e-17
6.24998e-06
-2.07227e-16
6.24998e-06
2.98451e-16
6.24998e-06
-8.21042e-15
-9.87773e-15
8.74998e-06
-2.10172e-14
8.74998e-06
-1.92281e-14
8.74998e-06
-9.80246e-16
8.74998e-06
-6.21194e-16
8.74998e-06
2.44524e-16
8.74998e-06
-2.36878e-16
8.74998e-06
1.80697e-16
8.74998e-06
-1.42186e-16
8.74998e-06
1.06064e-16
8.74998e-06
-7.40458e-17
8.74998e-06
4.46838e-17
8.74998e-06
-1.70054e-17
8.74998e-06
-9.32272e-18
8.74998e-06
3.45475e-17
8.74998e-06
-6.39505e-17
8.74998e-06
7.18586e-17
8.74998e-06
-2.8717e-16
8.74998e-06
4.2079e-16
8.74998e-06
-1.31016e-14
-1.51142e-14
1.125e-05
-2.69154e-14
1.125e-05
-2.55899e-14
1.125e-05
-1.53539e-15
1.125e-05
-7.32104e-16
1.125e-05
2.27613e-16
1.125e-05
-2.38976e-16
1.125e-05
1.78746e-16
1.125e-05
-1.41099e-16
1.125e-05
1.04899e-16
1.125e-05
-7.30031e-17
1.125e-05
4.36987e-17
1.125e-05
-1.59655e-17
1.125e-05
-1.03805e-17
1.125e-05
3.54313e-17
1.125e-05
-6.63264e-17
1.125e-05
6.69084e-17
1.125e-05
-3.59596e-16
1.125e-05
5.37047e-16
1.125e-05
-1.80746e-14
-2.02824e-14
1.375e-05
-3.1475e-14
1.375e-05
-3.08417e-14
1.375e-05
-2.08294e-15
1.375e-05
-8.04655e-16
1.375e-05
1.85689e-16
1.375e-05
-2.20124e-16
1.375e-05
1.60169e-16
1.375e-05
-1.27033e-16
1.375e-05
9.40038e-17
1.375e-05
-6.51545e-17
1.375e-05
3.85722e-17
1.375e-05
-1.32826e-17
1.375e-05
-1.06943e-17
1.375e-05
3.32598e-17
1.375e-05
-6.32433e-17
1.375e-05
5.44525e-17
1.375e-05
-4.18963e-16
1.375e-05
6.3901e-16
1.375e-05
-2.25902e-14
-2.48484e-14
1.625e-05
-3.42523e-14
1.625e-05
-3.44428e-14
1.625e-05
-2.55952e-15
1.625e-05
-8.33886e-16
1.625e-05
1.25131e-16
1.625e-05
-1.84015e-16
1.625e-05
1.28255e-16
1.625e-05
-1.02512e-16
1.625e-05
7.53044e-17
1.625e-05
-5.1871e-17
1.625e-05
3.01836e-17
1.625e-05
-9.38067e-18
1.625e-05
-1.02864e-17
1.625e-05
2.84849e-17
1.625e-05
-5.54583e-17
1.625e-05
3.62673e-17
1.625e-05
-4.60556e-16
1.625e-05
7.18271e-16
1.625e-05
-2.62039e-14
-2.83759e-14
1.875e-05
-3.50261e-14
1.875e-05
-3.60833e-14
1.875e-05
-2.91452e-15
1.875e-05
-8.17484e-16
1.875e-05
5.23048e-17
1.875e-05
-1.34571e-16
1.875e-05
8.64065e-17
1.875e-05
-7.01597e-17
1.875e-05
5.07917e-17
1.875e-05
-3.45648e-17
1.875e-05
1.94278e-17
1.875e-05
-4.66511e-18
1.875e-05
-9.21485e-18
1.875e-05
2.16392e-17
1.875e-05
-4.38525e-17
1.875e-05
1.41384e-17
1.875e-05
-4.80933e-16
1.875e-05
7.66925e-16
1.875e-05
-2.85904e-14
-3.05504e-14
2.125e-05
-3.3787e-14
2.125e-05
-3.56781e-14
2.125e-05
-3.11449e-15
2.125e-05
-7.5635e-16
2.125e-05
-2.6613e-17
2.125e-05
-7.59149e-17
2.125e-05
3.81267e-17
2.125e-05
-3.26872e-17
2.125e-05
2.25198e-17
2.125e-05
-1.4679e-17
2.125e-05
7.18853e-18
2.125e-05
4.81449e-19
2.125e-05
-7.58208e-18
2.125e-05
1.33046e-17
2.125e-05
-2.94101e-17
2.125e-05
-1.01407e-17
2.125e-05
-4.78258e-16
2.125e-05
7.78664e-16
2.125e-05
-2.95598e-14
-3.11978e-14
2.375e-05
-3.0727e-14
2.375e-05
-3.33586e-14
2.375e-05
-3.14549e-15
2.375e-05
-6.54972e-16
2.375e-05
-1.05777e-16
2.375e-05
-1.23017e-17
2.375e-05
-1.30659e-17
2.375e-05
7.18763e-18
2.375e-05
-7.44494e-18
2.375e-05
6.32828e-18
2.375e-05
-5.65166e-18
2.375e-05
5.69839e-18
2.375e-05
-5.52697e-18
2.375e-05
4.11095e-18
2.375e-05
-1.3219e-17
2.375e-05
-3.47806e-17
2.375e-05
-4.52549e-16
2.375e-05
7.50017e-16
2.375e-05
-2.90642e-14
-3.02912e-14
2.625e-05
-2.62096e-14
2.625e-05
-2.94443e-14
2.625e-05
-3.01345e-15
2.625e-05
-5.21368e-16
2.625e-05
-1.79792e-16
2.625e-05
5.18929e-17
2.625e-05
-6.36455e-17
2.625e-05
4.67232e-17
2.625e-05
-3.70652e-17
2.625e-05
2.70409e-17
2.625e-05
-1.82302e-17
2.625e-05
1.06567e-17
2.625e-05
-3.21778e-18
2.625e-05
-5.28656e-18
2.625e-05
3.57813e-18
2.625e-05
-5.80794e-17
2.625e-05
-4.05759e-16
2.625e-05
6.81462e-16
2.625e-05
-2.71937e-14
-2.7948e-14
2.875e-05
-2.07298e-14
2.875e-05
-2.44014e-14
2.875e-05
-2.7422e-15
2.875e-05
-3.66791e-16
2.875e-05
-2.43763e-16
2.875e-05
1.12239e-16
2.875e-05
-1.10146e-16
2.875e-05
8.32284e-17
2.875e-05
-6.43316e-17
2.875e-05
4.60499e-17
2.875e-05
-2.9697e-17
2.875e-05
1.50291e-17
2.875e-05
-8.38169e-19
2.875e-05
-1.4206e-17
2.875e-05
1.97652e-17
2.875e-05
-7.83732e-17
2.875e-05
-3.41716e-16
2.875e-05
5.78136e-16
2.875e-05
-2.4162e-14
-2.44158e-14
3.125e-05
-1.48675e-14
3.125e-05
-1.87933e-14
3.125e-05
-2.36912e-15
3.125e-05
-2.04982e-16
3.125e-05
-2.93286e-16
3.125e-05
1.64306e-16
3.125e-05
-1.49202e-16
3.125e-05
1.1404e-16
3.125e-05
-8.72403e-17
3.125e-05
6.19811e-17
3.125e-05
-3.92446e-17
3.125e-05
1.85397e-17
3.125e-05
1.404e-18
3.125e-05
-2.1972e-17
3.125e-05
3.41436e-17
3.125e-05
-9.41241e-17
3.125e-05
-2.65942e-16
3.125e-05
4.49818e-16
3.125e-05
-2.02844e-14
-2.005e-14
3.375e-05
-9.22304e-15
3.375e-05
-1.32112e-14
3.375e-05
-1.93942e-15
3.375e-05
-5.12089e-17
3.375e-05
-3.24473e-16
3.375e-05
2.03751e-16
3.375e-05
-1.77565e-16
3.375e-05
1.36599e-16
3.375e-05
-1.03913e-16
3.375e-05
7.35338e-17
3.375e-05
-4.6084e-17
3.375e-05
2.08994e-17
3.375e-05
3.29864e-18
3.375e-05
-2.78984e-17
3.375e-05
4.54564e-17
3.375e-05
-1.03873e-16
3.375e-05
-1.85265e-16
3.375e-05
3.10348e-16
3.375e-05
-1.59435e-14
-1.52776e-14
3.625e-05
-4.36557e-15
3.625e-05
-8.21737e-15
3.625e-05
-1.49845e-15
3.625e-05
7.88589e-17
3.625e-05
-3.33798e-16
3.625e-05
2.26334e-16
3.625e-05
-1.9216e-16
3.625e-05
1.48466e-16
3.625e-05
-1.12543e-16
3.625e-05
7.94487e-17
3.625e-05
-4.94759e-17
3.625e-05
2.1839e-17
3.625e-05
4.66918e-18
3.625e-05
-3.13391e-17
3.625e-05
5.25314e-17
3.625e-05
-1.06395e-16
3.625e-05
-1.07381e-16
3.625e-05
1.75885e-16
3.625e-05
-1.15571e-14
-1.0563e-14
3.875e-05
-7.43936e-16
3.875e-05
-4.24979e-15
3.875e-05
-1.08489e-15
3.875e-05
1.70346e-16
3.875e-05
-3.18034e-16
3.875e-05
2.28038e-16
3.875e-05
-1.90076e-16
3.875e-05
1.47307e-16
3.875e-05
-1.11388e-16
3.875e-05
7.85427e-17
3.875e-05
-4.872e-17
3.875e-05
2.11083e-17
3.875e-05
5.31732e-18
3.875e-05
-3.17235e-17
3.875e-05
5.42353e-17
3.875e-05
-1.0063e-16
3.875e-05
-4.02759e-17
3.875e-05
6.30519e-17
3.875e-05
-7.52262e-15
-6.34957e-15
4.125e-05
1.34204e-15
4.125e-05
-1.58756e-15
4.125e-05
-7.23009e-16
4.125e-05
2.10267e-16
4.125e-05
-2.74174e-16
4.125e-05
2.05073e-16
4.125e-05
-1.68605e-16
4.125e-05
1.30974e-16
4.125e-05
-9.88789e-17
4.125e-05
6.96839e-17
4.125e-05
-4.31022e-17
4.125e-05
1.84422e-17
4.125e-05
5.13071e-18
4.125e-05
-2.85411e-17
4.125e-05
4.95504e-17
4.125e-05
-8.58001e-17
4.125e-05
8.26678e-18
4.125e-05
-1.41629e-17
4.125e-05
-4.19263e-15
-3.03066e-15
4.375e-05
1.86902e-15
4.375e-05
-2.21309e-16
4.375e-05
-4.19599e-16
4.375e-05
1.88361e-16
4.375e-05
-1.99314e-16
4.375e-05
1.53971e-16
4.375e-05
-1.25255e-16
4.375e-05
9.74967e-17
4.375e-05
-7.35307e-17
4.375e-05
5.18028e-17
4.375e-05
-3.19895e-17
4.375e-05
1.35864e-17
4.375e-05
4.00362e-18
4.375e-05
-2.13672e-17
4.375e-05
3.75744e-17
4.375e-05
-6.14442e-17
4.375e-05
3.12824e-17
4.375e-05
-4.64465e-17
4.375e-05
-1.79001e-15
-8.62305e-16
4.625e-05
1.04977e-15
4.625e-05
1.09572e-16
4.625e-05
-1.60793e-16
4.625e-05
9.72137e-17
4.625e-05
-9.04725e-17
4.625e-05
7.15823e-17
4.625e-05
-5.77855e-17
4.625e-05
4.50425e-17
4.625e-05
-3.39373e-17
4.625e-05
2.3912e-17
4.625e-05
-1.47497e-17
4.625e-05
6.23715e-18
4.625e-05
1.89556e-18
4.625e-05
-9.88932e-18
4.625e-05
1.75768e-17
4.625e-05
-2.74276e-17
4.625e-05
2.29889e-17
4.625e-05
-3.24385e-17
4.625e-05
-4.19146e-16
2.9561e-17
4.875e-05
4.875e-05
4.875e-05
4.875e-05
4.875e-05
4.875e-05
4.875e-05
4.875e-05
4.875e-05
4.875e-05
4.875e-05
4.875e-05
4.875e-05
4.875e-05
4.875e-05
4.875e-05
4.875e-05
4.875e-05
4.875e-05
)
;

boundaryField
{
    top
    {
        type            calculated;
        value           uniform 0;
    }
    bottom
    {
        type            calculated;
        value           uniform 0;
    }
    inlet
    {
        type            calculated;
        value           nonuniform List<scalar> 
20
(
-1.25e-06
-3.74999e-06
-6.24998e-06
-8.74998e-06
-1.125e-05
-1.375e-05
-1.625e-05
-1.875e-05
-2.125e-05
-2.375e-05
-2.625e-05
-2.875e-05
-3.125e-05
-3.375e-05
-3.625e-05
-3.875e-05
-4.125e-05
-4.375e-05
-4.625e-05
-4.875e-05
)
;
    }
    outlet
    {
        type            calculated;
        value           nonuniform List<scalar> 
20
(
1.25e-06
3.74999e-06
6.24998e-06
8.74998e-06
1.125e-05
1.375e-05
1.625e-05
1.875e-05
2.125e-05
2.375e-05
2.625e-05
2.875e-05
3.125e-05
3.375e-05
3.625e-05
3.875e-05
4.125e-05
4.375e-05
4.625e-05
4.875e-05
)
;
    }
    frontAndBack
    {
        type            empty;
        value           nonuniform 0();
    }
}


// ************************************************************************* //
