/*--------------------------------*- C++ -*----------------------------------*\
| =========                 |                                                 |
| \\      /  F ield         | OpenFOAM: The Open Source CFD Toolbox           |
|  \\    /   O peration     | Version:  4.1                                   |
|   \\  /    A nd           | Web:      www.OpenFOAM.org                      |
|    \\/     M anipulation  |                                                 |
\*---------------------------------------------------------------------------*/
FoamFile
{
    version     2.0;
    format      ascii;
    class       volVectorField;
    location    "2.5";
    object      U;
}
// * * * * * * * * * * * * * * * * * * * * * * * * * * * * * * * * * * * * * //

dimensions      [0 1 -1 0 0 0 0];

internalField   nonuniform List<vector> 
400
(
(0.0249999 -1.17044e-12 0)
(0.0249999 -7.27352e-13 0)
(0.0249999 2.69637e-14 0)
(0.0249999 -6.40063e-14 0)
(0.0249999 4.49617e-14 0)
(0.0249999 -3.76288e-14 0)
(0.0249999 2.98538e-14 0)
(0.0249999 -2.33547e-14 0)
(0.0249999 1.75464e-14 0)
(0.0249999 -1.23423e-14 0)
(0.0249999 7.58392e-15 0)
(0.0249999 -3.13667e-15 0)
(0.0249999 -1.10177e-15 0)
(0.0249999 5.22802e-15 0)
(0.0249999 -9.47989e-15 0)
(0.0249999 1.31707e-14 0)
(0.0249999 -2.31149e-14 0)
(0.0249999 2.98528e-14 0)
(0.0249999 -4.09925e-13 0)
(0.0249999 -6.69971e-13 0)
(0.0749998 -4.93983e-12 0)
(0.0749998 -3.64225e-12 0)
(0.0749998 -9.73707e-15 0)
(0.0749998 -2.16745e-13 0)
(0.0749998 1.36792e-13 0)
(0.0749998 -1.17027e-13 0)
(0.0749998 9.22417e-14 0)
(0.0749998 -7.22248e-14 0)
(0.0749998 5.41915e-14 0)
(0.0749998 -3.8062e-14 0)
(0.0749998 2.33076e-14 0)
(0.0749998 -9.49557e-15 0)
(0.0749998 -3.66397e-15 0)
(0.0749998 1.64371e-14 0)
(0.0749998 -2.98985e-14 0)
(0.0749998 4.01326e-14 0)
(0.0749998 -8.33515e-14 0)
(0.0749998 1.20023e-13 0)
(0.0749998 -2.22184e-12 0)
(0.0749998 -3.07097e-12 0)
(0.125 -1.09698e-11 0)
(0.125 -9.10459e-12 0)
(0.125 -2.70516e-13 0)
(0.125 -3.9654e-13 0)
(0.125 2.11441e-13 0)
(0.125 -1.88154e-13 0)
(0.125 1.46741e-13 0)
(0.125 -1.15072e-13 0)
(0.125 8.61763e-14 0)
(0.125 -6.04016e-14 0)
(0.125 3.6806e-14 0)
(0.125 -1.46685e-14 0)
(0.125 -6.41416e-15 0)
(0.125 2.67929e-14 0)
(0.125 -4.90052e-14 0)
(0.125 6.2025e-14 0)
(0.125 -1.6489e-13 0)
(0.125 2.32986e-13 0)
(0.125 -5.83818e-12 0)
(0.125 -7.2749e-12 0)
(0.175 -1.77573e-11 0)
(0.175 -1.58033e-11 0)
(0.175 -7.06614e-13 0)
(0.175 -5.56502e-13 0)
(0.175 2.46038e-13 0)
(0.175 -2.30165e-13 0)
(0.175 1.77147e-13 0)
(0.175 -1.39194e-13 0)
(0.175 1.03994e-13 0)
(0.175 -7.27104e-14 0)
(0.175 4.4043e-14 0)
(0.175 -1.70699e-14 0)
(0.175 -8.60061e-15 0)
(0.175 3.32824e-14 0)
(0.175 -6.13034e-14 0)
(0.175 7.22609e-14 0)
(0.175 -2.48143e-13 0)
(0.175 3.5927e-13 0)
(0.175 -1.05439e-11 0)
(0.175 -1.24208e-11 0)
(0.224999 -2.42155e-11 0)
(0.224999 -2.2584e-11 0)
(0.224999 -1.24999e-12 0)
(0.224999 -6.85738e-13 0)
(0.224999 2.43462e-13 0)
(0.224999 -2.43876e-13 0)
(0.224999 1.84494e-13 0)
(0.224999 -1.45364e-13 0)
(0.224999 1.08278e-13 0)
(0.224999 -7.54868e-14 0)
(0.224999 4.53924e-14 0)
(0.224999 -1.69753e-14 0)
(0.224999 -1.00406e-14 0)
(0.224999 3.5841e-14 0)
(0.224999 -6.66541e-14 0)
(0.224999 7.15677e-14 0)
(0.224999 -3.26073e-13 0)
(0.224999 4.80576e-13 0)
(0.224999 -1.56316e-11 0)
(0.224999 -1.77797e-11 0)
(0.274999 -2.958e-11 0)
(0.274999 -2.85544e-11 0)
(0.274999 -1.81918e-12 0)
(0.274999 -7.78615e-13 0)
(0.274999 2.12174e-13 0)
(0.274999 -2.34373e-13 0)
(0.274999 1.73243e-13 0)
(0.274999 -1.37026e-13 0)
(0.274999 1.01666e-13 0)
(0.274999 -7.06253e-14 0)
(0.274999 4.20703e-14 0)
(0.274999 -1.49857e-14 0)
(0.274999 -1.07225e-14 0)
(0.274999 3.50606e-14 0)
(0.274999 -6.60694e-14 0)
(0.274999 6.23461e-14 0)
(0.274999 -3.93136e-13 0)
(0.274999 5.91768e-13 0)
(0.274999 -2.04996e-11 0)
(0.274999 -2.27677e-11 0)
(0.324999 -3.33298e-11 0)
(0.324999 -3.30864e-11 0)
(0.324999 -2.34608e-12 0)
(0.324999 -8.30335e-13 0)
(0.324999 1.59249e-13 0)
(0.324999 -2.05872e-13 0)
(0.324999 1.47105e-13 0)
(0.324999 -1.17045e-13 0)
(0.324999 8.63461e-14 0)
(0.324999 -5.96872e-14 0)
(0.324999 3.5077e-14 0)
(0.324999 -1.15833e-14 0)
(0.324999 -1.06642e-14 0)
(0.324999 3.1455e-14 0)
(0.324999 -6.0412e-14 0)
(0.324999 4.65583e-14 0)
(0.324999 -4.44585e-13 0)
(0.324999 6.84518e-13 0)
(0.324999 -2.46588e-11 0)
(0.324999 -2.69065e-11 0)
(0.374999 -3.51343e-11 0)
(0.374999 -3.57571e-11 0)
(0.374999 -2.77281e-12 0)
(0.374999 -8.3698e-13 0)
(0.374999 9.0992e-14 0)
(0.374999 -1.62101e-13 0)
(0.374999 1.09369e-13 0)
(0.374999 -8.7949e-14 0)
(0.374999 6.42388e-14 0)
(0.374999 -4.4038e-14 0)
(0.374999 2.5284e-14 0)
(0.374999 -7.17643e-15 0)
(0.374999 -9.90533e-15 0)
(0.374999 2.55081e-14 0)
(0.374999 -5.04857e-14 0)
(0.374999 2.59609e-14 0)
(0.374999 -4.76226e-13 0)
(0.374999 7.50511e-13 0)
(0.374999 -2.77224e-11 0)
(0.374999 -2.98182e-11 0)
(0.424999 -3.488e-11 0)
(0.424999 -3.63703e-11 0)
(0.424999 -3.0566e-12 0)
(0.424999 -7.97605e-13 0)
(0.424999 1.36184e-14 0)
(0.424999 -1.07014e-13 0)
(0.424999 6.34332e-14 0)
(0.424999 -5.23634e-14 0)
(0.424999 3.73379e-14 0)
(0.424999 -2.50842e-14 0)
(0.424999 1.35667e-14 0)
(0.424999 -2.15341e-15 0)
(0.424999 -8.52293e-15 0)
(0.424999 1.7768e-14 0)
(0.424999 -3.72049e-14 0)
(0.424999 2.31829e-15 0)
(0.424999 -4.85313e-13 0)
(0.424999 7.82225e-13 0)
(0.424999 -2.94299e-11 0)
(0.424999 -3.12545e-11 0)
(0.474999 -3.26621e-11 0)
(0.474999 -3.49531e-11 0)
(0.474999 -3.17331e-12 0)
(0.474999 -7.14833e-13 0)
(0.474999 -6.68361e-14 0)
(0.474999 -4.48001e-14 0)
(0.474999 1.28154e-14 0)
(0.474999 -1.30066e-14 0)
(0.474999 7.70656e-15 0)
(0.474999 -4.27851e-15 0)
(0.474999 8.0925e-16 0)
(0.474999 3.11561e-15 0)
(0.474999 -6.6412e-15 0)
(0.474999 8.84233e-15 0)
(0.474999 -2.16083e-14 0)
(0.474999 -2.25733e-14 0)
(0.474999 -4.70886e-13 0)
(0.474999 7.74436e-13 0)
(0.474999 -2.96616e-11 0)
(0.474999 -3.1114e-11 0)
(0.524999 -2.87674e-11 0)
(0.524999 -3.17396e-11 0)
(0.524999 -3.1191e-12 0)
(0.524999 -5.94966e-13 0)
(0.524999 -1.44721e-13 0)
(0.524999 2.02035e-14 0)
(0.524999 -3.89441e-14 0)
(0.524999 2.73793e-14 0)
(0.524999 -2.25968e-14 0)
(0.524999 1.69371e-14 0)
(0.524999 -1.21136e-14 0)
(0.524999 8.2834e-15 0)
(0.524999 -4.41303e-15 0)
(0.524999 -6.20897e-16 0)
(0.524999 -4.81939e-15 0)
(0.524999 -4.69618e-14 0)
(0.524999 -4.33928e-13 0)
(0.524999 7.25385e-13 0)
(0.524999 -2.8441e-11 0)
(0.524999 -2.9444e-11 0)
(0.574999 -2.36359e-11 0)
(0.574999 -2.71339e-11 0)
(0.574999 -2.90962e-12 0)
(0.574999 -4.47773e-13 0)
(0.574999 -2.14877e-13 0)
(0.574999 8.35794e-14 0)
(0.574999 -8.8338e-14 0)
(0.574999 6.60676e-14 0)
(0.574999 -5.15376e-14 0)
(0.574999 3.71426e-14 0)
(0.574999 -2.43424e-14 0)
(0.574999 1.30241e-14 0)
(0.574999 -2.01898e-15 0)
(0.574999 -9.95065e-15 0)
(0.574999 1.19775e-14 0)
(0.574999 -6.91571e-14 0)
(0.574999 -3.7736e-13 0)
(0.574999 6.37764e-13 0)
(0.574999 -2.59246e-11 0)
(0.574999 -2.64317e-11 0)
(0.624999 -1.78194e-11 0)
(0.624999 -2.16659e-11 0)
(0.624999 -2.57674e-12 0)
(0.624999 -2.85969e-13 0)
(0.624999 -2.72648e-13 0)
(0.624999 1.40873e-13 0)
(0.624999 -1.31935e-13 0)
(0.624999 1.00371e-13 0)
(0.624999 -7.71046e-14 0)
(0.624999 5.49447e-14 0)
(0.624999 -3.50467e-14 0)
(0.624999 1.70356e-14 0)
(0.624999 3.43191e-16 0)
(0.624999 -1.84636e-14 0)
(0.624999 2.75656e-14 0)
(0.624999 -8.75477e-14 0)
(0.624999 -3.05929e-13 0)
(0.624999 5.19087e-13 0)
(0.624999 -2.23839e-11 0)
(0.624999 -2.23861e-11 0)
(0.674999 -1.19218e-11 0)
(0.674999 -1.59283e-11 0)
(0.674999 -2.16351e-12 0)
(0.674999 -1.24313e-13 0)
(0.674999 -3.13915e-13 0)
(0.674999 1.8769e-13 0)
(0.674999 -1.66425e-13 0)
(0.674999 1.27675e-13 0)
(0.674999 -9.73538e-14 0)
(0.674999 6.90021e-14 0)
(0.674999 -4.34282e-14 0)
(0.674999 2.00368e-14 0)
(0.674999 2.46239e-15 0)
(0.674999 -2.54721e-14 0)
(0.674999 4.07111e-14 0)
(0.674999 -1.00632e-13 0)
(0.674999 -2.25912e-13 0)
(0.674999 3.81433e-13 0)
(0.674999 -1.81763e-11 0)
(0.674999 -1.77069e-11 0)
(0.724999 -6.54492e-12 0)
(0.724999 -1.05173e-11 0)
(0.724999 -1.71723e-12 0)
(0.724999 2.15459e-14 0)
(0.724999 -3.35088e-13 0)
(0.724999 2.19804e-13 0)
(0.724999 -1.88707e-13 0)
(0.724999 1.45526e-13 0)
(0.724999 -1.10476e-13 0)
(0.724999 7.80631e-14 0)
(0.724999 -4.87385e-14 0)
(0.724999 2.17569e-14 0)
(0.724999 4.14324e-15 0)
(0.724999 -3.03204e-14 0)
(0.724999 5.02129e-14 0)
(0.724999 -1.07082e-13 0)
(0.724999 -1.44655e-13 0)
(0.724999 2.40234e-13 0)
(0.724999 -1.37131e-11 0)
(0.724999 -1.28515e-11 0)
(0.774999 -2.21216e-12 0)
(0.774999 -5.95008e-12 0)
(0.774999 -1.28201e-12 0)
(0.774999 1.36197e-13 0)
(0.774999 -3.32923e-13 0)
(0.774999 2.33157e-13 0)
(0.774999 -1.95848e-13 0)
(0.774999 1.51581e-13 0)
(0.774999 -1.14735e-13 0)
(0.774999 8.09338e-14 0)
(0.774999 -5.02784e-14 0)
(0.774999 2.1945e-14 0)
(0.774999 5.19982e-15 0)
(0.774999 -3.24038e-14 0)
(0.774999 5.49296e-14 0)
(0.774999 -1.05775e-13 0)
(0.774999 -7.00758e-14 0)
(0.774999 1.12454e-13 0)
(0.774999 -9.41121e-12 0)
(0.774999 -8.28328e-12 0)
(0.825 6.70839e-13 0)
(0.825 -2.60894e-12 0)
(0.825 -8.89214e-13 0)
(0.825 2.04684e-13 0)
(0.825 -3.03499e-13 0)
(0.825 2.23191e-13 0)
(0.825 -1.84514e-13 0)
(0.825 1.43196e-13 0)
(0.825 -1.0817e-13 0)
(0.825 7.62387e-14 0)
(0.825 -4.72038e-14 0)
(0.825 2.02876e-14 0)
(0.825 5.45525e-15 0)
(0.825 -3.10881e-14 0)
(0.825 5.36228e-14 0)
(0.825 -9.55241e-14 0)
(0.825 -1.03489e-14 0)
(0.825 1.45913e-14 0)
(0.825 -5.65649e-12 0)
(0.825 -4.43638e-12 0)
(0.875 1.9243e-12 0)
(0.875 -6.2453e-13 0)
(0.875 -5.52724e-13 0)
(0.875 2.11917e-13 0)
(0.875 -2.41747e-13 0)
(0.875 1.84415e-13 0)
(0.875 -1.50646e-13 0)
(0.875 1.17163e-13 0)
(0.875 -8.83896e-14 0)
(0.875 6.22732e-14 0)
(0.875 -3.84721e-14 0)
(0.875 1.6373e-14 0)
(0.875 4.74816e-15 0)
(0.875 -2.56532e-14 0)
(0.875 4.48652e-14 0)
(0.875 -7.51104e-14 0)
(0.875 2.57537e-14 0)
(0.875 -4.14279e-14 0)
(0.875 -2.74536e-12 0)
(0.875 -1.65591e-12 0)
(0.925 1.66566e-12 0)
(0.925 1.33864e-13 0)
(0.925 -2.71745e-13 0)
(0.925 1.52697e-13 0)
(0.925 -1.47331e-13 0)
(0.925 1.15721e-13 0)
(0.925 -9.36548e-14 0)
(0.925 7.29674e-14 0)
(0.925 -5.49985e-14 0)
(0.925 3.8745e-14 0)
(0.925 -2.39066e-14 0)
(0.925 1.01175e-14 0)
(0.925 3.0564e-15 0)
(0.925 -1.60295e-14 0)
(0.925 2.83633e-14 0)
(0.925 -4.50693e-14 0)
(0.925 3.2636e-14 0)
(0.925 -4.68459e-14 0)
(0.925 -8.8479e-13 0)
(0.925 -1.67597e-13 0)
(0.975 6.21583e-13 0)
(0.975 1.38549e-13 0)
(0.975 -7.49101e-14 0)
(0.975 5.2757e-14 0)
(0.975 -4.68474e-14 0)
(0.975 3.7391e-14 0)
(0.975 -3.00941e-14 0)
(0.975 2.34738e-14 0)
(0.975 -1.76814e-14 0)
(0.975 1.24573e-14 0)
(0.975 -7.6816e-15 0)
(0.975 3.24222e-15 0)
(0.975 9.97992e-16 0)
(0.975 -5.15933e-15 0)
(0.975 9.20527e-15 0)
(0.975 -1.41633e-14 0)
(0.975 1.36111e-14 0)
(0.975 -2.13033e-14 0)
(0.975 -1.1539e-13 0)
(0.975 1.24851e-13 0)
)
;

boundaryField
{
    top
    {
        type            fixedValue;
        value           uniform (1 0 0);
    }
    bottom
    {
        type            fixedValue;
        value           uniform (0 0 0);
    }
    inlet
    {
        type            zeroGradient;
    }
    outlet
    {
        type            zeroGradient;
    }
    frontAndBack
    {
        type            empty;
    }
}


// ************************************************************************* //
