/*--------------------------------*- C++ -*----------------------------------*\
| =========                 |                                                 |
| \\      /  F ield         | OpenFOAM: The Open Source CFD Toolbox           |
|  \\    /   O peration     | Version:  4.1                                   |
|   \\  /    A nd           | Web:      www.OpenFOAM.org                      |
|    \\/     M anipulation  |                                                 |
\*---------------------------------------------------------------------------*/
FoamFile
{
    version     2.0;
    format      ascii;
    class       volScalarField;
    location    "4.4";
    object      p;
}
// * * * * * * * * * * * * * * * * * * * * * * * * * * * * * * * * * * * * * //

dimensions      [0 2 -2 0 0 0 0];

internalField   nonuniform List<scalar> 
400
(
1.99127e-12
2.21994e-12
1.89312e-12
2.02026e-12
1.77465e-12
1.84224e-12
1.65648e-12
1.68052e-12
1.54496e-12
1.5258e-12
1.42167e-12
1.37525e-12
1.31273e-12
1.23636e-12
1.19505e-12
1.08445e-12
1.06796e-12
9.33726e-13
9.54946e-13
8.97971e-13
1.98407e-12
2.21256e-12
1.89256e-12
2.02012e-12
1.77466e-12
1.84219e-12
1.6565e-12
1.68052e-12
1.54495e-12
1.52579e-12
1.4217e-12
1.37527e-12
1.31272e-12
1.23634e-12
1.19503e-12
1.08447e-12
1.06787e-12
9.33776e-13
9.50018e-13
8.92751e-13
1.97995e-12
2.20728e-12
1.89187e-12
2.02012e-12
1.77458e-12
1.84223e-12
1.65643e-12
1.68057e-12
1.54491e-12
1.52581e-12
1.42169e-12
1.37528e-12
1.31272e-12
1.2363e-12
1.19503e-12
1.08447e-12
1.06782e-12
9.33723e-13
9.46116e-13
8.89128e-13
1.97863e-12
2.2048e-12
1.89123e-12
2.02015e-12
1.77448e-12
1.84227e-12
1.65634e-12
1.68063e-12
1.54487e-12
1.52584e-12
1.42168e-12
1.37529e-12
1.31273e-12
1.23627e-12
1.19505e-12
1.08446e-12
1.06779e-12
9.3359e-13
9.43877e-13
8.87263e-13
1.979e-12
2.20428e-12
1.89063e-12
2.02018e-12
1.77441e-12
1.84229e-12
1.65626e-12
1.68069e-12
1.54484e-12
1.52586e-12
1.42166e-12
1.37529e-12
1.31274e-12
1.23625e-12
1.19506e-12
1.08447e-12
1.06777e-12
9.33431e-13
9.42938e-13
8.86595e-13
1.98048e-12
2.20506e-12
1.89004e-12
2.02018e-12
1.77435e-12
1.84231e-12
1.65615e-12
1.68074e-12
1.54484e-12
1.52589e-12
1.42164e-12
1.37525e-12
1.31276e-12
1.23625e-12
1.19506e-12
1.08449e-12
1.06777e-12
9.33243e-13
9.43035e-13
8.86865e-13
1.98275e-12
2.20677e-12
1.88943e-12
2.02018e-12
1.77429e-12
1.84232e-12
1.65603e-12
1.68079e-12
1.54483e-12
1.52593e-12
1.42162e-12
1.3752e-12
1.31276e-12
1.23627e-12
1.19506e-12
1.08451e-12
1.06776e-12
9.33055e-13
9.44002e-13
8.87907e-13
1.98543e-12
2.209e-12
1.88881e-12
2.02017e-12
1.77422e-12
1.84231e-12
1.65592e-12
1.68083e-12
1.54482e-12
1.52597e-12
1.42159e-12
1.37516e-12
1.31278e-12
1.23629e-12
1.19506e-12
1.08453e-12
1.06775e-12
9.32901e-13
9.45647e-13
8.89511e-13
1.98814e-12
2.21133e-12
1.88818e-12
2.02015e-12
1.77416e-12
1.84228e-12
1.65582e-12
1.68086e-12
1.54483e-12
1.52599e-12
1.42157e-12
1.37512e-12
1.31279e-12
1.23632e-12
1.19505e-12
1.08457e-12
1.06772e-12
9.32795e-13
9.47711e-13
8.9143e-13
1.9905e-12
2.21347e-12
1.88753e-12
2.0201e-12
1.77412e-12
1.84224e-12
1.6557e-12
1.68088e-12
1.54487e-12
1.52597e-12
1.4215e-12
1.37508e-12
1.31282e-12
1.23634e-12
1.19506e-12
1.08463e-12
1.0677e-12
9.32701e-13
9.49961e-13
8.93384e-13
1.99228e-12
2.21504e-12
1.88686e-12
2.02005e-12
1.77408e-12
1.84218e-12
1.6556e-12
1.68092e-12
1.54487e-12
1.52597e-12
1.42146e-12
1.37503e-12
1.31285e-12
1.23638e-12
1.19509e-12
1.08468e-12
1.06766e-12
9.32645e-13
9.52078e-13
8.95142e-13
1.99323e-12
2.2158e-12
1.88617e-12
2.01995e-12
1.77405e-12
1.8421e-12
1.65549e-12
1.68096e-12
1.54489e-12
1.52595e-12
1.42145e-12
1.37496e-12
1.3129e-12
1.23638e-12
1.19512e-12
1.08477e-12
1.06759e-12
9.32643e-13
9.53826e-13
8.96457e-13
1.99317e-12
2.21566e-12
1.88553e-12
2.01982e-12
1.77403e-12
1.84202e-12
1.65537e-12
1.68099e-12
1.54494e-12
1.52589e-12
1.42142e-12
1.37489e-12
1.31297e-12
1.23638e-12
1.19512e-12
1.0849e-12
1.06749e-12
9.32697e-13
9.55005e-13
8.9711e-13
1.99208e-12
2.21458e-12
1.88491e-12
2.01966e-12
1.77403e-12
1.84196e-12
1.65528e-12
1.68101e-12
1.54499e-12
1.52587e-12
1.42137e-12
1.3748e-12
1.31308e-12
1.23634e-12
1.19513e-12
1.085e-12
1.0674e-12
9.32854e-13
9.55444e-13
8.97001e-13
1.98998e-12
2.21259e-12
1.88436e-12
2.01947e-12
1.7741e-12
1.84188e-12
1.65519e-12
1.68102e-12
1.54508e-12
1.5258e-12
1.42131e-12
1.37474e-12
1.3132e-12
1.23636e-12
1.19513e-12
1.08509e-12
1.06733e-12
9.32997e-13
9.55057e-13
8.96058e-13
1.98711e-12
2.20995e-12
1.88387e-12
2.01923e-12
1.7742e-12
1.84181e-12
1.65513e-12
1.681e-12
1.54516e-12
1.52577e-12
1.42127e-12
1.37463e-12
1.31328e-12
1.23639e-12
1.19514e-12
1.08518e-12
1.06725e-12
9.33126e-13
9.53924e-13
8.94307e-13
1.98372e-12
2.20692e-12
1.88351e-12
2.019e-12
1.77426e-12
1.84176e-12
1.65508e-12
1.68098e-12
1.54519e-12
1.5257e-12
1.42125e-12
1.37454e-12
1.31335e-12
1.23649e-12
1.19512e-12
1.0852e-12
1.06721e-12
9.3326e-13
9.52129e-13
8.91874e-13
1.98027e-12
2.20406e-12
1.88322e-12
2.01881e-12
1.77433e-12
1.84167e-12
1.65505e-12
1.68099e-12
1.54523e-12
1.52558e-12
1.42129e-12
1.37447e-12
1.31338e-12
1.23657e-12
1.1951e-12
1.08523e-12
1.06717e-12
9.3337e-13
9.49839e-13
8.88878e-13
1.97762e-12
2.20196e-12
1.88301e-12
2.01864e-12
1.77443e-12
1.8416e-12
1.65504e-12
1.68098e-12
1.54525e-12
1.5255e-12
1.42133e-12
1.37441e-12
1.31337e-12
1.23662e-12
1.19506e-12
1.08531e-12
1.06707e-12
9.33447e-13
9.4723e-13
8.85746e-13
1.97706e-12
2.20095e-12
1.88277e-12
2.0186e-12
1.77441e-12
1.84167e-12
1.65501e-12
1.68104e-12
1.54517e-12
1.52544e-12
1.42137e-12
1.37438e-12
1.31338e-12
1.23661e-12
1.19508e-12
1.0853e-12
1.06698e-12
9.33471e-13
9.44743e-13
8.83342e-13
)
;

boundaryField
{
    top
    {
        type            zeroGradient;
    }
    bottom
    {
        type            zeroGradient;
    }
    inlet
    {
        type            fixedValue;
        value           uniform 0;
    }
    outlet
    {
        type            fixedValue;
        value           uniform 0;
    }
    frontAndBack
    {
        type            empty;
    }
}


// ************************************************************************* //
