/*--------------------------------*- C++ -*----------------------------------*\
| =========                 |                                                 |
| \\      /  F ield         | OpenFOAM: The Open Source CFD Toolbox           |
|  \\    /   O peration     | Version:  4.1                                   |
|   \\  /    A nd           | Web:      www.OpenFOAM.org                      |
|    \\/     M anipulation  |                                                 |
\*---------------------------------------------------------------------------*/
FoamFile
{
    version     2.0;
    format      ascii;
    class       surfaceScalarField;
    location    "4.4";
    object      phi;
}
// * * * * * * * * * * * * * * * * * * * * * * * * * * * * * * * * * * * * * //

dimensions      [0 3 -1 0 0 0 0];

internalField   nonuniform List<scalar> 
760
(
1.25e-06
-3.09674e-18
1.25e-06
-2.12852e-18
1.25e-06
2.23477e-20
1.25e-06
-1.47759e-19
1.25e-06
1.01957e-19
1.25e-06
-8.88689e-20
1.25e-06
7.39723e-20
1.25e-06
-5.26825e-20
1.25e-06
3.34648e-20
1.25e-06
-2.98792e-20
1.25e-06
2.60862e-20
1.25e-06
-2.17729e-23
1.25e-06
-8.11777e-21
1.25e-06
4.66836e-21
1.25e-06
-2.89467e-20
1.25e-06
3.35631e-20
1.25e-06
-5.61785e-20
1.25e-06
7.76745e-20
1.25e-06
-1.2796e-18
-1.88425e-18
3.75e-06
-9.36067e-18
3.75e-06
-7.4506e-18
3.75e-06
-1.66765e-19
3.75e-06
-3.55662e-19
3.75e-06
2.14279e-19
3.75e-06
-1.9888e-19
3.75e-06
1.65012e-19
3.75e-06
-1.1056e-19
3.75e-06
6.34168e-20
3.75e-06
-6.81315e-20
3.75e-06
6.82188e-20
3.75e-06
8.83181e-21
3.75e-06
-2.40036e-20
3.75e-06
-1.2331e-21
3.75e-06
-7.06467e-20
3.75e-06
7.51014e-20
3.75e-06
-1.47768e-19
3.75e-06
2.03167e-19
3.75e-06
-4.71017e-18
-6.0833e-18
6.25e-06
-1.69329e-17
6.25e-06
-1.46897e-17
6.25e-06
-5.98337e-19
6.25e-06
-5.38971e-19
6.25e-06
2.77397e-19
6.25e-06
-2.76902e-19
6.25e-06
2.2978e-19
6.25e-06
-1.44118e-19
6.25e-06
6.98491e-20
6.25e-06
-9.54057e-20
6.25e-06
1.11417e-19
6.25e-06
2.39926e-20
6.25e-06
-4.08714e-20
6.25e-06
-2.05844e-20
6.25e-06
-1.0912e-19
6.25e-06
1.06286e-19
6.25e-06
-2.46429e-19
6.25e-06
3.3871e-19
6.25e-06
-9.67171e-18
-1.163e-17
8.75e-06
-2.46754e-17
8.75e-06
-2.25991e-17
8.75e-06
-1.18934e-18
8.75e-06
-6.86698e-19
8.75e-06
2.94147e-19
8.75e-06
-3.27612e-19
8.75e-06
2.7121e-19
8.75e-06
-1.50702e-19
8.75e-06
5.17216e-20
8.75e-06
-1.18329e-19
8.75e-06
1.52484e-19
8.75e-06
4.8827e-20
8.75e-06
-5.45497e-20
8.75e-06
-5.23337e-20
8.75e-06
-1.42826e-19
8.75e-06
1.28969e-19
8.75e-06
-3.45786e-19
8.75e-06
4.7295e-19
8.75e-06
-1.54344e-17
-1.7795e-17
1.125e-05
-3.1598e-17
1.125e-05
-3.00814e-17
1.125e-05
-1.85771e-18
1.125e-05
-7.91661e-19
1.125e-05
2.76767e-19
1.125e-05
-3.51922e-19
1.125e-05
2.95423e-19
1.125e-05
-1.38281e-19
1.125e-05
1.68283e-20
1.125e-05
-1.35527e-19
1.125e-05
1.9025e-19
1.125e-05
7.77632e-20
1.125e-05
-6.63089e-20
1.125e-05
-9.07316e-20
1.125e-05
-1.69285e-19
1.125e-05
1.39166e-19
1.125e-05
-4.36061e-19
1.125e-05
6.01695e-19
1.125e-05
-2.12958e-17
-2.3881e-17
1.375e-05
-3.695e-17
1.375e-05
-3.62623e-17
1.375e-05
-2.51283e-18
1.375e-05
-8.56476e-19
1.375e-05
2.3082e-19
1.375e-05
-3.47613e-19
1.375e-05
2.99499e-19
1.375e-05
-1.07775e-19
1.375e-05
-2.846e-20
1.375e-05
-1.49755e-19
1.375e-05
2.22465e-19
1.375e-05
1.02234e-19
1.375e-05
-6.81321e-20
1.375e-05
-1.28366e-19
1.375e-05
-1.93412e-19
1.375e-05
1.41262e-19
1.375e-05
-5.06502e-19
1.375e-05
7.10828e-19
1.375e-05
-2.66218e-17
-2.92566e-17
1.625e-05
-4.02066e-17
1.625e-05
-4.05035e-17
1.625e-05
-3.08948e-18
1.625e-05
-8.66939e-19
1.625e-05
1.62797e-19
1.625e-05
-3.18346e-19
1.625e-05
2.84686e-19
1.625e-05
-6.88989e-20
1.625e-05
-8.52305e-20
1.625e-05
-1.46941e-19
1.625e-05
2.4966e-19
1.625e-05
1.17043e-19
1.625e-05
-6.63352e-20
1.625e-05
-1.61376e-19
1.625e-05
-2.08306e-19
1.625e-05
1.30903e-19
1.625e-05
-5.51967e-19
1.625e-05
7.91243e-19
1.625e-05
-3.08925e-17
-3.34101e-17
1.875e-05
-4.11056e-17
1.875e-05
-4.24396e-17
1.875e-05
-3.52066e-18
1.875e-05
-8.2955e-19
1.875e-05
7.85241e-20
1.875e-05
-2.70721e-19
1.875e-05
2.53457e-19
1.875e-05
-2.40567e-20
1.875e-05
-1.44324e-19
1.875e-05
-1.3757e-19
1.875e-05
2.67983e-19
1.875e-05
1.26041e-19
1.875e-05
-6.01575e-20
1.875e-05
-1.86701e-19
1.875e-05
-2.11037e-19
1.875e-05
1.09625e-19
1.875e-05
-5.74277e-19
1.875e-05
8.43077e-19
1.875e-05
-3.37156e-17
-3.5972e-17
2.125e-05
-3.96393e-17
2.125e-05
-4.19856e-17
2.125e-05
-3.76122e-18
2.125e-05
-7.40489e-19
2.125e-05
-1.73696e-20
2.125e-05
-2.035e-19
2.125e-05
2.16142e-19
2.125e-05
1.89376e-20
2.125e-05
-2.09376e-19
2.125e-05
-1.14404e-19
2.125e-05
2.81619e-19
2.125e-05
1.28549e-19
2.125e-05
-5.39117e-20
2.125e-05
-2.04192e-19
2.125e-05
-2.08435e-19
2.125e-05
7.71384e-20
2.125e-05
-5.72817e-19
2.125e-05
8.65072e-19
2.125e-05
-3.48742e-17
-3.67312e-17
2.375e-05
-3.60481e-17
2.375e-05
-3.92652e-17
2.375e-05
-3.79236e-18
2.375e-05
-6.16562e-19
2.375e-05
-1.12324e-19
2.375e-05
-1.2214e-19
2.375e-05
1.62711e-19
2.375e-05
5.96882e-20
2.375e-05
-2.51017e-19
2.375e-05
-9.98141e-20
2.375e-05
2.71708e-19
2.375e-05
1.28384e-19
2.375e-05
-4.07527e-20
2.375e-05
-2.18281e-19
2.375e-05
-1.97691e-19
2.375e-05
5.33681e-20
2.375e-05
-5.42297e-19
2.375e-05
8.40115e-19
2.375e-05
-3.42928e-17
-3.56638e-17
2.625e-05
-3.07464e-17
2.625e-05
-3.4669e-17
2.625e-05
-3.62648e-18
2.625e-05
-4.55333e-19
2.625e-05
-2.04603e-19
2.625e-05
-3.34538e-20
2.625e-05
1.0676e-19
2.625e-05
1.01153e-19
2.625e-05
-2.88714e-19
2.625e-05
-7.73069e-20
2.625e-05
2.45099e-19
2.625e-05
1.2763e-19
2.625e-05
-3.54702e-20
2.625e-05
-2.19848e-19
2.625e-05
-1.66986e-19
2.625e-05
1.67672e-20
2.625e-05
-4.87338e-19
2.625e-05
7.65887e-19
2.625e-05
-3.20922e-17
-3.29004e-17
2.875e-05
-2.43123e-17
2.875e-05
-2.87525e-17
2.875e-05
-3.30105e-18
2.875e-05
-2.78988e-19
2.875e-05
-2.88347e-19
2.875e-05
5.77839e-20
2.875e-05
5.25832e-20
2.875e-05
1.38901e-19
2.875e-05
-3.23742e-19
2.875e-05
-5.23895e-20
2.875e-05
2.20535e-19
2.875e-05
1.2098e-19
2.875e-05
-2.80464e-20
2.875e-05
-2.22918e-19
2.875e-05
-1.22395e-19
2.875e-05
-1.82621e-20
2.875e-05
-4.11567e-19
2.875e-05
6.54185e-19
2.875e-05
-2.85231e-17
-2.87305e-17
3.125e-05
-1.74297e-17
3.125e-05
-2.21692e-17
3.125e-05
-2.84511e-18
3.125e-05
-1.019e-19
3.125e-05
-3.55385e-19
3.125e-05
1.40319e-19
3.125e-05
-6.18353e-21
3.125e-05
1.70702e-19
3.125e-05
-3.32246e-19
3.125e-05
-5.05073e-20
3.125e-05
1.89817e-19
3.125e-05
1.21155e-19
3.125e-05
-2.82442e-20
3.125e-05
-2.13087e-19
3.125e-05
-8.13501e-20
3.125e-05
-3.36533e-20
3.125e-05
-3.30306e-19
3.125e-05
5.01378e-19
3.125e-05
-2.39515e-17
-2.359e-17
3.375e-05
-1.07954e-17
3.375e-05
-1.56054e-17
3.375e-05
-2.32852e-18
3.375e-05
6.54751e-20
3.375e-05
-4.11198e-19
3.375e-05
2.16783e-19
3.375e-05
-5.78364e-20
3.375e-05
1.86777e-19
3.375e-05
-3.31475e-19
3.375e-05
-2.50667e-20
3.375e-05
1.53442e-19
3.375e-05
1.05427e-19
3.375e-05
-2.33231e-20
3.375e-05
-2.1227e-19
3.375e-05
-3.56195e-20
3.375e-05
-4.8399e-20
3.375e-05
-2.4963e-19
3.375e-05
3.58789e-19
3.375e-05
-1.88307e-17
-1.79735e-17
3.625e-05
-5.09734e-18
3.625e-05
-9.73141e-18
3.625e-05
-1.79887e-18
3.625e-05
2.06728e-19
3.625e-05
-4.27727e-19
3.625e-05
2.62838e-19
3.625e-05
-1.06747e-19
3.625e-05
1.94707e-19
3.625e-05
-3.04206e-19
3.625e-05
-1.53768e-20
3.625e-05
1.08599e-19
3.625e-05
1.01e-19
3.625e-05
-1.15508e-20
3.625e-05
-1.95611e-19
3.625e-05
5.28295e-21
3.625e-05
-6.10935e-20
3.625e-05
-1.59303e-19
3.625e-05
2.12093e-19
3.625e-05
-1.36648e-17
-1.24238e-17
3.875e-05
-8.5394e-19
3.875e-05
-5.05261e-18
3.875e-05
-1.30575e-18
3.875e-05
2.85568e-19
3.875e-05
-3.98776e-19
3.875e-05
2.78815e-19
3.875e-05
-1.33381e-19
3.875e-05
1.74689e-19
3.875e-05
-2.4986e-19
3.875e-05
1.77954e-20
3.875e-05
6.47671e-20
3.875e-05
8.18911e-20
3.875e-05
-9.41526e-21
3.875e-05
-1.7832e-19
3.875e-05
4.50258e-20
3.875e-05
-5.96096e-20
3.875e-05
-8.30566e-20
3.875e-05
7.85465e-20
3.875e-05
-8.90762e-18
-7.47282e-18
4.125e-05
1.59439e-18
4.125e-05
-1.90396e-18
4.125e-05
-8.63964e-19
4.125e-05
2.90226e-19
4.125e-05
-3.43501e-19
4.125e-05
2.69604e-19
4.125e-05
-1.40372e-19
4.125e-05
1.39032e-19
4.125e-05
-1.98158e-19
4.125e-05
4.65941e-20
4.125e-05
1.93325e-20
4.125e-05
5.83156e-20
4.125e-05
-1.17393e-21
4.125e-05
-1.30796e-19
4.125e-05
5.80639e-20
4.125e-05
-6.62378e-20
4.125e-05
-2.17485e-20
4.125e-05
-1.13123e-20
4.125e-05
-4.96674e-18
-3.55592e-18
4.375e-05
2.2016e-18
4.375e-05
-2.85008e-19
4.375e-05
-5.01302e-19
4.375e-05
2.46233e-19
4.375e-05
-2.58348e-19
4.375e-05
2.09541e-19
4.375e-05
-1.18043e-19
4.375e-05
9.5464e-20
4.375e-05
-1.32667e-19
4.375e-05
4.86962e-20
4.375e-05
-1.65942e-23
4.375e-05
3.98284e-20
4.375e-05
5.60856e-21
4.375e-05
-7.88112e-20
4.375e-05
5.22632e-20
4.375e-05
-6.90173e-20
4.375e-05
3.09308e-20
4.375e-05
-4.85915e-20
4.375e-05
-2.12259e-18
-1.01973e-18
4.625e-05
1.24875e-18
4.625e-05
1.3553e-19
4.625e-05
-1.97954e-19
4.625e-05
1.23236e-19
4.625e-05
-1.1589e-19
4.625e-05
9.08986e-20
4.625e-05
-6.18346e-20
4.625e-05
3.54141e-20
4.625e-05
-4.78833e-20
4.625e-05
2.96624e-20
4.625e-05
-6.44586e-21
4.625e-05
1.82192e-20
4.625e-05
9.39413e-22
4.625e-05
-2.68759e-20
4.625e-05
2.09057e-20
4.625e-05
-3.03906e-20
4.625e-05
3.08003e-20
4.625e-05
-3.67075e-20
4.625e-05
-4.9252e-19
3.24677e-20
4.875e-05
4.875e-05
4.875e-05
4.875e-05
4.875e-05
4.875e-05
4.875e-05
4.875e-05
4.875e-05
4.875e-05
4.875e-05
4.875e-05
4.875e-05
4.875e-05
4.875e-05
4.875e-05
4.875e-05
4.875e-05
4.875e-05
)
;

boundaryField
{
    top
    {
        type            calculated;
        value           uniform 0;
    }
    bottom
    {
        type            calculated;
        value           uniform 0;
    }
    inlet
    {
        type            calculated;
        value           nonuniform List<scalar> 
20
(
-1.25e-06
-3.75e-06
-6.25e-06
-8.75e-06
-1.125e-05
-1.375e-05
-1.625e-05
-1.875e-05
-2.125e-05
-2.375e-05
-2.625e-05
-2.875e-05
-3.125e-05
-3.375e-05
-3.625e-05
-3.875e-05
-4.125e-05
-4.375e-05
-4.625e-05
-4.875e-05
)
;
    }
    outlet
    {
        type            calculated;
        value           nonuniform List<scalar> 
20
(
1.25e-06
3.75e-06
6.25e-06
8.75e-06
1.125e-05
1.375e-05
1.625e-05
1.875e-05
2.125e-05
2.375e-05
2.625e-05
2.875e-05
3.125e-05
3.375e-05
3.625e-05
3.875e-05
4.125e-05
4.375e-05
4.625e-05
4.875e-05
)
;
    }
    frontAndBack
    {
        type            empty;
        value           nonuniform 0();
    }
}


// ************************************************************************* //
