/*--------------------------------*- C++ -*----------------------------------*\
| =========                 |                                                 |
| \\      /  F ield         | OpenFOAM: The Open Source CFD Toolbox           |
|  \\    /   O peration     | Version:  4.1                                   |
|   \\  /    A nd           | Web:      www.OpenFOAM.org                      |
|    \\/     M anipulation  |                                                 |
\*---------------------------------------------------------------------------*/
FoamFile
{
    version     2.0;
    format      ascii;
    class       volVectorField;
    location    "4.4";
    object      U;
}
// * * * * * * * * * * * * * * * * * * * * * * * * * * * * * * * * * * * * * //

dimensions      [0 1 -1 0 0 0 0];

internalField   nonuniform List<vector> 
400
(
(0.025 -1.3803e-15 0)
(0.025 -8.60853e-16 0)
(0.025 2.98392e-17 0)
(0.025 -7.43415e-17 0)
(0.025 5.3602e-17 0)
(0.025 -4.58239e-17 0)
(0.025 3.79565e-17 0)
(0.025 -2.74445e-17 0)
(0.025 1.85381e-17 0)
(0.025 -1.5255e-17 0)
(0.025 1.25409e-17 0)
(0.025 -8.29307e-19 0)
(0.025 -3.78334e-18 0)
(0.025 3.58886e-18 0)
(0.025 -1.41156e-17 0)
(0.025 1.70267e-17 0)
(0.025 -2.70373e-17 0)
(0.025 3.43925e-17 0)
(0.025 -4.86757e-16 0)
(0.025 -7.92683e-16 0)
(0.075 -5.8071e-15 0)
(0.075 -4.28743e-15 0)
(0.075 -1.88051e-17 0)
(0.075 -2.48841e-16 0)
(0.075 1.63564e-16 0)
(0.075 -1.45877e-16 0)
(0.075 1.21331e-16 0)
(0.075 -8.45928e-17 0)
(0.075 5.15719e-17 0)
(0.075 -4.95176e-17 0)
(0.075 4.54725e-17 0)
(0.075 2.75102e-18 0)
(0.075 -1.52604e-17 0)
(0.075 4.33943e-18 0)
(0.075 -4.93129e-17 0)
(0.075 5.49352e-17 0)
(0.075 -9.77799e-17 0)
(0.075 1.37896e-16 0)
(0.075 -2.62193e-15 0)
(0.075 -3.62026e-15 0)
(0.125 -1.28802e-14 0)
(0.125 -1.07011e-14 0)
(0.125 -3.35358e-16 0)
(0.125 -4.50486e-16 0)
(0.125 2.53962e-16 0)
(0.125 -2.42093e-16 0)
(0.125 2.0095e-16 0)
(0.125 -1.31776e-16 0)
(0.125 7.13804e-17 0)
(0.125 -8.24402e-17 0)
(0.125 8.91694e-17 0)
(0.125 1.4559e-17 0)
(0.125 -3.23015e-17 0)
(0.125 -8.03323e-18 0)
(0.125 -8.97838e-17 0)
(0.125 9.18892e-17 0)
(0.125 -1.94774e-16 0)
(0.125 2.65266e-16 0)
(0.125 -6.87822e-15 0)
(0.125 -8.56622e-15 0)
(0.175 -2.08471e-14 0)
(0.175 -1.85723e-14 0)
(0.175 -8.60999e-16 0)
(0.175 -6.21592e-16 0)
(0.175 2.96098e-16 0)
(0.175 -3.0935e-16 0)
(0.175 2.56124e-16 0)
(0.175 -1.53237e-16 0)
(0.175 6.56702e-17 0)
(0.175 -1.08411e-16 0)
(0.175 1.32269e-16 0)
(0.175 3.53451e-17 0)
(0.175 -4.82884e-17 0)
(0.175 -3.44382e-17 0)
(0.175 -1.26892e-16 0)
(0.175 1.20138e-16 0)
(0.175 -2.9733e-16 0)
(0.175 4.06058e-16 0)
(0.175 -1.24199e-14 0)
(0.175 -1.46236e-14 0)
(0.225 -2.84296e-14 0)
(0.225 -2.65452e-14 0)
(0.225 -1.51419e-15 0)
(0.225 -7.50357e-16 0)
(0.225 2.94305e-16 0)
(0.225 -3.47014e-16 0)
(0.225 2.88279e-16 0)
(0.225 -1.4925e-16 0)
(0.225 3.82963e-17 0)
(0.225 -1.28591e-16 0)
(0.225 1.72707e-16 0)
(0.225 6.33082e-17 0)
(0.225 -6.18759e-17 0)
(0.225 -7.07987e-17 0)
(0.225 -1.57614e-16 0)
(0.225 1.36904e-16 0)
(0.225 -3.94306e-16 0)
(0.225 5.39403e-16 0)
(0.225 -1.84156e-14 0)
(0.225 -2.09339e-14 0)
(0.275 -3.47263e-14 0)
(0.275 -3.35694e-14 0)
(0.275 -2.19689e-15 0)
(0.275 -8.36355e-16 0)
(0.275 2.60405e-16 0)
(0.275 -3.55901e-16 0)
(0.275 3.01689e-16 0)
(0.275 -1.26375e-16 0)
(0.275 -2.67475e-18 0)
(0.275 -1.44566e-16 0)
(0.275 2.07741e-16 0)
(0.275 9.0847e-17 0)
(0.275 -6.87489e-17 0)
(0.275 -1.0989e-16 0)
(0.275 -1.83223e-16 0)
(0.275 1.4309e-16 0)
(0.275 -4.76214e-16 0)
(0.275 6.60471e-16 0)
(0.275 -2.41551e-14 0)
(0.275 -2.68071e-14 0)
(0.325 -3.91264e-14 0)
(0.325 -3.89042e-14 0)
(0.325 -2.8309e-15 0)
(0.325 -8.74038e-16 0)
(0.325 2.0152e-16 0)
(0.325 -3.38471e-16 0)
(0.325 2.95765e-16 0)
(0.325 -8.98364e-17 0)
(0.325 -5.51991e-17 0)
(0.325 -1.50868e-16 0)
(0.325 2.37564e-16 0)
(0.325 1.11413e-16 0)
(0.325 -6.8251e-17 0)
(0.325 -1.46347e-16 0)
(0.325 -2.02867e-16 0)
(0.325 1.38893e-16 0)
(0.325 -5.35577e-16 0)
(0.325 7.56786e-16 0)
(0.325 -2.90649e-14 0)
(0.325 -3.168e-14 0)
(0.375 -4.12381e-14 0)
(0.375 -4.2052e-14 0)
(0.375 -3.34818e-15 0)
(0.375 -8.60581e-16 0)
(0.375 1.23535e-16 0)
(0.375 -2.99426e-16 0)
(0.375 2.7264e-16 0)
(0.375 -4.71113e-17 0)
(0.375 -1.14884e-16 0)
(0.375 -1.43633e-16 0)
(0.375 2.61354e-16 0)
(0.375 1.23103e-16 0)
(0.375 -6.45643e-17 0)
(0.375 -1.75774e-16 0)
(0.375 -2.12234e-16 0)
(0.375 1.21981e-16 0)
(0.375 -5.6911e-16 0)
(0.375 8.25106e-16 0)
(0.375 -3.26873e-14 0)
(0.375 -3.51092e-14 0)
(0.425 -4.09274e-14 0)
(0.425 -4.27886e-14 0)
(0.425 -3.69168e-15 0)
(0.425 -7.96205e-16 0)
(0.425 3.15961e-17 0)
(0.425 -2.4095e-16 0)
(0.425 2.37761e-16 0)
(0.425 -2.62534e-18 0)
(0.425 -1.78089e-16 0)
(0.425 -1.27832e-16 0)
(0.425 2.77804e-16 0)
(0.425 1.28964e-16 0)
(0.425 -5.75525e-17 0)
(0.425 -1.96838e-16 0)
(0.425 -2.12766e-16 0)
(0.425 9.47965e-17 0)
(0.425 -5.80161e-16 0)
(0.425 8.64165e-16 0)
(0.425 -3.47135e-14 0)
(0.425 -3.67998e-14 0)
(0.475 -3.83191e-14 0)
(0.475 -4.11364e-14 0)
(0.475 -3.82967e-15 0)
(0.475 -6.87328e-16 0)
(0.475 -6.47719e-17 0)
(0.475 -1.65844e-16 0)
(0.475 1.91094e-16 0)
(0.475 3.95429e-17 0)
(0.475 -2.32405e-16 0)
(0.475 -1.07624e-16 0)
(0.475 2.79915e-16 0)
(0.475 1.29165e-16 0)
(0.475 -4.73479e-17 0)
(0.475 -2.12699e-16 0)
(0.475 -2.06019e-16 0)
(0.475 6.58811e-17 0)
(0.475 -5.63573e-16 0)
(0.475 8.63561e-16 0)
(0.475 -3.49958e-14 0)
(0.475 -3.66333e-14 0)
(0.525 -3.37476e-14 0)
(0.525 -3.73648e-14 0)
(0.525 -3.75748e-15 0)
(0.525 -5.41775e-16 0)
(0.525 -1.60478e-16 0)
(0.525 -7.95499e-17 0)
(0.525 1.35845e-16 0)
(0.525 8.11748e-17 0)
(0.525 -2.72788e-16 0)
(0.525 -8.77681e-17 0)
(0.525 2.61344e-16 0)
(0.525 1.28372e-16 0)
(0.525 -3.85096e-17 0)
(0.525 -2.19926e-16 0)
(0.525 -1.84983e-16 0)
(0.525 3.40367e-17 0)
(0.525 -5.19845e-16 0)
(0.525 8.13993e-16 0)
(0.525 -3.3561e-14 0)
(0.525 -3.46641e-14 0)
(0.575 -2.77243e-14 0)
(0.575 -3.19598e-14 0)
(0.575 -3.50129e-15 0)
(0.575 -3.69827e-16 0)
(0.575 -2.49597e-16 0)
(0.575 1.21571e-17 0)
(0.575 7.92503e-17 0)
(0.575 1.21807e-16 0)
(0.575 -3.10054e-16 0)
(0.575 -6.44757e-17 0)
(0.575 2.34973e-16 0)
(0.575 1.2457e-16 0)
(0.575 -3.08051e-17 0)
(0.575 -2.22827e-16 0)
(0.575 -1.46251e-16 0)
(0.575 -1.18325e-18 0)
(0.575 -4.53734e-16 0)
(0.575 7.18951e-16 0)
(0.575 -3.05987e-14 0)
(0.575 -3.11092e-14 0)
(0.625 -2.08955e-14 0)
(0.625 -2.55415e-14 0)
(0.625 -3.09858e-15 0)
(0.625 -1.89963e-16 0)
(0.625 -3.26573e-16 0)
(0.625 1.01653e-16 0)
(0.625 2.23121e-17 0)
(0.625 1.5734e-16 0)
(0.625 -3.31707e-16 0)
(0.625 -5.11095e-17 0)
(0.625 2.06517e-16 0)
(0.625 1.2124e-16 0)
(0.625 -2.77205e-17 0)
(0.625 -2.20056e-16 0)
(0.625 -1.02955e-16 0)
(0.625 -2.68294e-17 0)
(0.625 -3.73345e-16 0)
(0.625 5.83516e-16 0)
(0.625 -2.64266e-14 0)
(0.625 -2.63397e-14 0)
(0.675 -1.39673e-14 0)
(0.675 -1.88018e-14 0)
(0.675 -2.59682e-15 0)
(0.675 -1.27804e-17 0)
(0.675 -3.90295e-16 0)
(0.675 1.82832e-16 0)
(0.675 -3.31423e-17 0)
(0.675 1.82304e-16 0)
(0.675 -3.36702e-16 0)
(0.675 -3.84073e-17 0)
(0.675 1.72595e-16 0)
(0.675 1.14454e-16 0)
(0.675 -2.54244e-17 0)
(0.675 -2.14209e-16 0)
(0.675 -5.83132e-17 0)
(0.675 -4.30579e-17 0)
(0.675 -2.90742e-16 0)
(0.675 4.32689e-16 0)
(0.675 -2.14653e-14 0)
(0.675 -2.08316e-14 0)
(0.725 -7.6527e-15 0)
(0.725 -1.24385e-14 0)
(0.725 -2.06171e-15 0)
(0.725 1.46525e-16 0)
(0.725 -4.27204e-16 0)
(0.725 2.46209e-16 0)
(0.725 -8.50642e-17 0)
(0.725 1.94965e-16 0)
(0.725 -3.22213e-16 0)
(0.725 -2.19235e-17 0)
(0.725 1.31119e-16 0)
(0.725 1.0375e-16 0)
(0.725 -1.63786e-17 0)
(0.725 -2.07054e-16 0)
(0.725 -1.33932e-17 0)
(0.725 -5.42081e-17 0)
(0.725 -2.04027e-16 0)
(0.725 2.83816e-16 0)
(0.725 -1.62049e-14 0)
(0.725 -1.51179e-14 0)
(0.775 -2.57274e-15 0)
(0.775 -7.06031e-15 0)
(0.775 -1.54081e-15 0)
(0.775 2.60284e-16 0)
(0.775 -4.2224e-16 0)
(0.775 2.79836e-16 0)
(0.775 -1.25863e-16 0)
(0.775 1.88961e-16 0)
(0.775 -2.80064e-16 0)
(0.775 8.92105e-19 0)
(0.775 8.5297e-17 0)
(0.775 9.27011e-17 0)
(0.775 -1.07196e-17 0)
(0.775 -1.90135e-16 0)
(0.775 2.90109e-17 0)
(0.775 -6.19046e-17 0)
(0.775 -1.17939e-16 0)
(0.775 1.38051e-16 0)
(0.775 -1.11353e-14 0)
(0.775 -9.74529e-15 0)
(0.825 8.06298e-16 0)
(0.825 -3.11515e-15 0)
(0.825 -1.06645e-15 0)
(0.825 3.05062e-16 0)
(0.825 -3.80801e-16 0)
(0.825 2.841e-16 0)
(0.825 -1.43348e-16 0)
(0.825 1.60478e-16 0)
(0.825 -2.27544e-16 0)
(0.825 3.51881e-17 0)
(0.825 3.94703e-17 0)
(0.825 7.00734e-17 0)
(0.825 -4.93211e-18 0)
(0.825 -1.55745e-16 0)
(0.825 5.67372e-17 0)
(0.825 -6.61371e-17 0)
(0.825 -4.65852e-17 0)
(0.825 2.30004e-17 0)
(0.825 -6.70036e-15 0)
(0.825 -5.21614e-15 0)
(0.875 2.27265e-15 0)
(0.875 -7.64334e-16 0)
(0.875 -6.61128e-16 0)
(0.875 2.81347e-16 0)
(0.875 -3.07511e-16 0)
(0.875 2.4838e-16 0)
(0.875 -1.36403e-16 0)
(0.875 1.19183e-16 0)
(0.875 -1.65893e-16 0)
(0.875 5.05317e-17 0)
(0.875 6.695e-18 0)
(0.875 4.84629e-17 0)
(0.875 2.98409e-18 0)
(0.875 -1.04626e-16 0)
(0.875 5.87515e-17 0)
(0.875 -7.00931e-17 0)
(0.875 1.16753e-17 0)
(0.875 -4.36056e-17 0)
(0.875 -3.25506e-15 0)
(0.875 -1.94675e-15 0)
(0.925 1.96759e-15 0)
(0.925 1.50243e-16 0)
(0.925 -3.27806e-16 0)
(0.925 1.94636e-16 0)
(0.925 -1.89589e-16 0)
(0.925 1.54496e-16 0)
(0.925 -9.46591e-17 0)
(0.925 6.42378e-17 0)
(0.925 -8.90431e-17 0)
(0.925 4.39953e-17 0)
(0.925 -6.4681e-18 0)
(0.925 2.92819e-17 0)
(0.925 2.70729e-18 0)
(0.925 -5.06744e-17 0)
(0.925 3.90021e-17 0)
(0.925 -5.28896e-17 0)
(0.925 3.93459e-17 0)
(0.925 -5.20138e-17 0)
(0.925 -1.04738e-15 0)
(0.925 -2.00833e-16 0)
(0.975 7.37981e-16 0)
(0.975 1.67272e-16 0)
(0.975 -9.25301e-17 0)
(0.975 6.46645e-17 0)
(0.975 -6.07408e-17 0)
(0.975 4.9828e-17 0)
(0.975 -3.35972e-17 0)
(0.975 1.85789e-17 0)
(0.975 -2.47868e-17 0)
(0.975 1.55491e-17 0)
(0.975 -3.76367e-18 0)
(0.975 7.7235e-18 0)
(0.975 1.60479e-18 0)
(0.975 -1.10557e-17 0)
(0.975 1.04247e-17 0)
(0.975 -1.73186e-17 0)
(0.975 1.78579e-17 0)
(0.975 -2.46558e-17 0)
(0.975 -1.36651e-16 0)
(0.975 1.4504e-16 0)
)
;

boundaryField
{
    top
    {
        type            fixedValue;
        value           uniform (1 0 0);
    }
    bottom
    {
        type            fixedValue;
        value           uniform (0 0 0);
    }
    inlet
    {
        type            zeroGradient;
    }
    outlet
    {
        type            zeroGradient;
    }
    frontAndBack
    {
        type            empty;
    }
}


// ************************************************************************* //
