/*--------------------------------*- C++ -*----------------------------------*\
| =========                 |                                                 |
| \\      /  F ield         | OpenFOAM: The Open Source CFD Toolbox           |
|  \\    /   O peration     | Version:  4.1                                   |
|   \\  /    A nd           | Web:      www.OpenFOAM.org                      |
|    \\/     M anipulation  |                                                 |
\*---------------------------------------------------------------------------*/
FoamFile
{
    version     2.0;
    format      ascii;
    class       surfaceScalarField;
    location    "4.4";
    object      phi;
}
// * * * * * * * * * * * * * * * * * * * * * * * * * * * * * * * * * * * * * //

dimensions      [0 3 -1 0 0 0 0];

internalField   nonuniform List<scalar> 
760
(
-1.91641e-05
-2.56731e-13
-1.91641e-05
-4.13584e-14
-1.91641e-05
-2.16878e-12
-1.91641e-05
-4.55005e-12
-1.91641e-05
-3.29055e-12
-1.91641e-05
-7.85972e-12
-1.91641e-05
-4.89638e-12
-1.91641e-05
-9.87055e-12
-1.91641e-05
-5.73398e-12
-1.91641e-05
-1.09628e-11
-1.91641e-05
-5.93641e-12
-1.91641e-05
-1.08841e-11
-1.91641e-05
-5.95445e-12
-1.91641e-05
-9.56105e-12
-1.91641e-05
-4.98147e-12
-1.91641e-05
-8.28703e-12
-1.91641e-05
-4.4395e-12
-1.91641e-05
-3.94414e-12
-1.91641e-05
-3.49203e-12
-4.80615e-12
-5.11594e-05
-2.19309e-12
-5.11594e-05
-3.92203e-12
-5.11594e-05
-8.23687e-12
-5.11594e-05
-1.57381e-11
-5.11594e-05
-1.21077e-11
-5.11594e-05
-2.40008e-11
-5.11594e-05
-1.62079e-11
-5.11594e-05
-2.87919e-11
-5.11594e-05
-1.8159e-11
-5.11594e-05
-3.08155e-11
-5.11594e-05
-1.82815e-11
-5.11594e-05
-2.9661e-11
-5.11594e-05
-1.74872e-11
-5.11594e-05
-2.54683e-11
-5.11594e-05
-1.43769e-11
-5.11594e-05
-2.06714e-11
-5.11594e-05
-1.18978e-11
-5.11594e-05
-1.01879e-11
-5.11594e-05
-7.91079e-12
-9.45257e-12
-7.68219e-05
-5.2081e-12
-7.68219e-05
-1.0172e-11
-7.68219e-05
-1.62432e-11
-7.68219e-05
-3.06734e-11
-7.68219e-05
-2.3522e-11
-7.68219e-05
-4.46384e-11
-7.68219e-05
-3.0422e-11
-7.68219e-05
-5.24753e-11
-7.68219e-05
-3.35358e-11
-7.68219e-05
-5.52056e-11
-7.68219e-05
-3.34134e-11
-7.68219e-05
-5.23139e-11
-7.68219e-05
-3.1404e-11
-7.68219e-05
-4.4368e-11
-7.68219e-05
-2.56221e-11
-7.68219e-05
-3.47397e-11
-7.68219e-05
-2.06641e-11
-7.68219e-05
-1.72635e-11
-7.68219e-05
-1.24025e-11
-1.36644e-11
-9.61516e-05
-8.88433e-12
-9.61516e-05
-1.76683e-11
-9.61516e-05
-2.57966e-11
-9.61516e-05
-4.74771e-11
-9.61516e-05
-3.75196e-11
-9.61516e-05
-6.72792e-11
-9.61516e-05
-4.78023e-11
-9.61516e-05
-7.81523e-11
-9.61516e-05
-5.23661e-11
-9.61516e-05
-8.13714e-11
-9.61516e-05
-5.1975e-11
-9.61516e-05
-7.63869e-11
-9.61516e-05
-4.8348e-11
-9.61516e-05
-6.43748e-11
-9.61516e-05
-3.92933e-11
-9.61516e-05
-4.92667e-11
-9.61516e-05
-3.1092e-11
-9.61516e-05
-2.48977e-11
-9.61516e-05
-1.71561e-11
-1.73949e-11
-0.000109148
-1.22941e-11
-0.000109148
-2.45714e-11
-0.000109148
-3.43909e-11
-0.000109148
-6.24885e-11
-0.000109148
-5.03349e-11
-0.000109148
-8.70455e-11
-0.000109148
-6.38128e-11
-0.000109148
-1.00281e-10
-0.000109148
-6.98018e-11
-0.000109148
-1.0367e-10
-0.000109148
-6.92542e-11
-0.000109148
-9.66579e-11
-0.000109148
-6.41394e-11
-0.000109148
-8.11096e-11
-0.000109148
-5.20321e-11
-0.000109148
-6.10844e-11
-0.000109148
-4.08761e-11
-0.000109148
-3.11816e-11
-0.000109148
-2.10646e-11
-2.02032e-11
-0.000115812
-1.53144e-11
-0.000115812
-3.04325e-11
-0.000115812
-4.18669e-11
-0.000115813
-7.48733e-11
-0.000115812
-6.19236e-11
-0.000115813
-1.02865e-10
-0.000115812
-7.84782e-11
-0.000115813
-1.17689e-10
-0.000115812
-8.59262e-11
-0.000115813
-1.20946e-10
-0.000115813
-8.53672e-11
-0.000115813
-1.12116e-10
-0.000115813
-7.88825e-11
-0.000115813
-9.37991e-11
-0.000115813
-6.39385e-11
-0.000115813
-6.97066e-11
-0.000115813
-5.0009e-11
-0.000115813
-3.60356e-11
-0.000115813
-2.41661e-11
-2.20507e-11
-0.000116144
-1.78815e-11
-0.000116144
-3.50778e-11
-0.000116144
-4.79791e-11
-0.000116144
-8.4154e-11
-0.000116144
-7.18973e-11
-0.000116144
-1.14135e-10
-0.000116144
-9.12844e-11
-0.000116144
-1.29731e-10
-0.000116144
-1.00153e-10
-0.000116144
-1.32574e-10
-0.000116144
-9.97093e-11
-0.000116144
-1.22218e-10
-0.000116144
-9.20011e-11
-0.000116144
-1.02009e-10
-0.000116144
-7.45445e-11
-0.000116144
-7.48558e-11
-0.000116144
-5.80742e-11
-0.000116144
-3.9355e-11
-0.000116144
-2.6343e-11
-2.28912e-11
-0.000110142
-2.00255e-11
-0.000110142
-3.85621e-11
-0.000110142
-5.27282e-11
-0.000110142
-9.03155e-11
-0.000110142
-8.01758e-11
-0.000110142
-1.20921e-10
-0.000110142
-1.02052e-10
-0.000110142
-1.36544e-10
-0.000110142
-1.12226e-10
-0.000110142
-1.38748e-10
-0.000110142
-1.11977e-10
-0.000110142
-1.27202e-10
-0.000110142
-1.03173e-10
-0.000110142
-1.05961e-10
-0.000110142
-8.3585e-11
-0.000110142
-7.67519e-11
-0.000110142
-6.47771e-11
-0.000110142
-4.12904e-11
-0.000110142
-2.75967e-11
-2.27761e-11
-9.78078e-05
-2.17713e-11
-9.78078e-05
-4.09612e-11
-9.78078e-05
-5.61371e-11
-9.78078e-05
-9.34656e-11
-9.78078e-05
-8.66569e-11
-9.78078e-05
-1.23499e-10
-9.78078e-05
-1.10552e-10
-9.78078e-05
-1.38527e-10
-9.78078e-05
-1.21826e-10
-9.78078e-05
-1.39944e-10
-9.78078e-05
-1.21788e-10
-9.78078e-05
-1.27577e-10
-9.78078e-05
-1.12007e-10
-9.78078e-05
-1.06099e-10
-9.78078e-05
-9.07396e-11
-9.78078e-05
-7.58005e-11
-9.78078e-05
-6.9787e-11
-9.78078e-05
-4.20537e-11
-9.78078e-05
-2.79629e-11
-2.18102e-11
-7.91406e-05
-2.31079e-11
-7.91406e-05
-4.23308e-11
-7.91406e-05
-5.81906e-11
-7.91406e-05
-9.37477e-11
-7.91406e-05
-9.11411e-11
-7.91406e-05
-1.22226e-10
-7.91406e-05
-1.16438e-10
-7.91406e-05
-1.36178e-10
-7.91406e-05
-1.28504e-10
-7.91406e-05
-1.3675e-10
-7.91406e-05
-1.28639e-10
-7.91406e-05
-1.23965e-10
-7.91406e-05
-1.18013e-10
-7.91406e-05
-1.02958e-10
-7.91406e-05
-9.56087e-11
-7.91406e-05
-7.24927e-11
-7.91406e-05
-7.2747e-11
-7.91406e-05
-4.1837e-11
-7.91406e-05
-2.74944e-11
-2.0152e-11
-5.41406e-05
-2.39846e-11
-5.41406e-05
-4.26788e-11
-5.41406e-05
-5.88408e-11
-5.41406e-05
-9.13199e-11
-5.41406e-05
-9.33618e-11
-5.41406e-05
-1.17491e-10
-5.41406e-05
-1.19301e-10
-5.41406e-05
-1.30031e-10
-5.41406e-05
-1.3176e-10
-5.41406e-05
-1.29789e-10
-5.41406e-05
-1.31983e-10
-5.41406e-05
-1.17016e-10
-5.41406e-05
-1.2069e-10
-5.41406e-05
-9.70871e-11
-5.41406e-05
-9.77792e-11
-5.41406e-05
-6.7342e-11
-5.41406e-05
-7.33441e-11
-5.41406e-05
-4.07795e-11
-5.41406e-05
-2.62592e-11
-1.7988e-11
-2.28078e-05
-2.43203e-11
-2.28078e-05
-4.19753e-11
-2.28078e-05
-5.801e-11
-2.28078e-05
-8.63627e-11
-2.28078e-05
-9.30117e-11
-2.28078e-05
-1.09694e-10
-2.28078e-05
-1.18715e-10
-2.28078e-05
-1.20618e-10
-2.28078e-05
-1.31094e-10
-2.28078e-05
-1.19676e-10
-2.28078e-05
-1.31293e-10
-2.28078e-05
-1.07353e-10
-2.28078e-05
-1.19575e-10
-2.28078e-05
-8.90063e-11
-2.28078e-05
-9.687e-11
-2.28078e-05
-6.08292e-11
-2.28078e-05
-7.13602e-11
-2.28078e-05
-3.89436e-11
-2.28078e-05
-2.43263e-11
-1.5507e-11
1.48578e-05
-2.40173e-11
1.48578e-05
-4.01563e-11
1.48578e-05
-5.55965e-11
1.48578e-05
-7.90866e-11
1.48578e-05
-8.97753e-11
1.48578e-05
-9.92353e-11
1.48578e-05
-1.14281e-10
1.48578e-05
-1.0844e-10
1.48578e-05
-1.26058e-10
1.48578e-05
-1.06971e-10
1.48578e-05
-1.26113e-10
1.48578e-05
-9.55244e-11
1.48578e-05
-1.14302e-10
1.48578e-05
-7.91614e-11
1.48578e-05
-9.25685e-11
1.48578e-05
-5.33503e-11
1.48578e-05
-6.67063e-11
1.48578e-05
-3.63091e-11
1.48578e-05
-2.17485e-11
-1.28726e-11
5.88562e-05
-2.29736e-11
5.88562e-05
-3.71428e-11
5.88562e-05
-5.14702e-11
5.88562e-05
-6.97148e-11
5.88562e-05
-8.33529e-11
5.88562e-05
-8.64632e-11
5.88562e-05
-1.05657e-10
5.88562e-05
-9.39129e-11
5.88562e-05
-1.16295e-10
5.88562e-05
-9.21159e-11
5.88562e-05
-1.16107e-10
5.88562e-05
-8.1932e-11
5.88562e-05
-1.04632e-10
5.88562e-05
-6.78682e-11
5.88562e-05
-8.46672e-11
5.88562e-05
-4.51539e-11
5.88562e-05
-5.94345e-11
5.88562e-05
-3.27751e-11
5.88562e-05
-1.85512e-11
-1.01989e-11
0.000109187
-2.11116e-11
0.000109187
-3.28806e-11
0.000109187
-4.55233e-11
0.000109187
-5.85186e-11
0.000109187
-7.35567e-11
0.000109187
-7.17246e-11
0.000109187
-9.26696e-11
0.000109187
-7.74112e-11
0.000109187
-1.01644e-10
0.000109187
-7.54825e-11
0.000109187
-1.01148e-10
0.000109187
-6.688e-11
0.000109187
-9.05255e-11
0.000109187
-5.53559e-11
0.000109187
-7.31244e-11
0.000109187
-3.63676e-11
0.000109187
-4.976e-11
0.000109187
-2.82135e-11
0.000109187
-1.47448e-11
-7.54564e-12
0.000165852
-1.84425e-11
0.000165852
-2.74667e-11
0.000165852
-3.78601e-11
0.000165852
-4.60284e-11
0.000165852
-6.06253e-11
0.000165852
-5.56593e-11
0.000165852
-7.57002e-11
0.000165852
-5.96194e-11
0.000165852
-8.25737e-11
0.000165852
-5.77326e-11
0.000165852
-8.17574e-11
0.000165852
-5.09188e-11
0.000165852
-7.25298e-11
0.000165852
-4.2063e-11
0.000165852
-5.83794e-11
0.000165852
-2.72275e-11
0.000165852
-3.8238e-11
0.000165852
-2.26383e-11
0.000165852
-1.04517e-11
-4.97439e-12
0.000228848
-1.48115e-11
0.000228848
-2.07359e-11
0.000228848
-2.82461e-11
0.000228848
-3.2169e-11
0.000228848
-4.44848e-11
0.000228848
-3.80668e-11
0.000228848
-5.48405e-11
0.000228848
-4.02504e-11
0.000228848
-5.9317e-11
0.000228848
-3.852e-11
0.000228848
-5.82899e-11
0.000228848
-3.36604e-11
0.000228848
-5.10718e-11
0.000228848
-2.76628e-11
0.000228848
-4.08319e-11
0.000228848
-1.73965e-11
0.000228848
-2.53656e-11
0.000228848
-1.58964e-11
0.000228848
-5.76627e-12
-2.47297e-12
0.000298178
-1.07806e-11
0.000298178
-1.40503e-11
0.000298178
-1.87532e-11
0.000298178
-1.99966e-11
0.000298178
-2.86226e-11
0.000298178
-2.30554e-11
0.000298178
-3.45628e-11
0.000298178
-2.398e-11
0.000298178
-3.68502e-11
0.000298178
-2.25858e-11
0.000298178
-3.57492e-11
0.000298178
-1.94877e-11
0.000298178
-3.07466e-11
0.000298178
-1.58564e-11
0.000298178
-2.42538e-11
0.000298178
-9.56559e-12
0.000298178
-1.39658e-11
0.000298178
-9.62947e-12
0.000298178
-2.05432e-12
-6.64488e-13
0.000373841
-5.90241e-12
0.000373841
-6.7885e-12
0.000373841
-8.71847e-12
0.000373841
-8.3943e-12
0.000373841
-1.26021e-11
0.000373841
-9.08147e-12
0.000373841
-1.46459e-11
0.000373841
-9.061e-12
0.000373841
-1.51754e-11
0.000373841
-8.20642e-12
0.000373841
-1.43451e-11
0.000373841
-6.80344e-12
0.000373841
-1.18642e-11
0.000373841
-5.37646e-12
0.000373841
-9.03769e-12
0.000373841
-2.75974e-12
0.000373841
-4.3152e-12
0.000373841
-3.67524e-12
0.000373841
6.0825e-13
4.40598e-13
0.000455836
0.000455836
0.000455836
0.000455836
0.000455836
0.000455836
0.000455836
0.000455836
0.000455836
0.000455836
0.000455836
0.000455836
0.000455836
0.000455836
0.000455836
0.000455836
0.000455836
0.000455836
0.000455836
)
;

boundaryField
{
    top
    {
        type            calculated;
        value           uniform 0;
    }
    bottom
    {
        type            calculated;
        value           uniform 0;
    }
    inlet
    {
        type            calculated;
        value           nonuniform List<scalar> 
20
(
1.91641e-05
5.11594e-05
7.68219e-05
9.61516e-05
0.000109148
0.000115812
0.000116144
0.000110142
9.78078e-05
7.91406e-05
5.41406e-05
2.28078e-05
-1.48578e-05
-5.88562e-05
-0.000109187
-0.000165852
-0.000228848
-0.000298178
-0.000373841
-0.000455836
)
;
    }
    outlet
    {
        type            calculated;
        value           nonuniform List<scalar> 
20
(
-1.91641e-05
-5.11594e-05
-7.68219e-05
-9.61516e-05
-0.000109148
-0.000115813
-0.000116144
-0.000110142
-9.78078e-05
-7.91406e-05
-5.41406e-05
-2.28078e-05
1.48578e-05
5.88562e-05
0.000109187
0.000165852
0.000228848
0.000298178
0.000373841
0.000455836
)
;
    }
    frontAndBack
    {
        type            empty;
        value           nonuniform 0();
    }
}


// ************************************************************************* //
