/*--------------------------------*- C++ -*----------------------------------*\
| =========                 |                                                 |
| \\      /  F ield         | OpenFOAM: The Open Source CFD Toolbox           |
|  \\    /   O peration     | Version:  4.1                                   |
|   \\  /    A nd           | Web:      www.OpenFOAM.org                      |
|    \\/     M anipulation  |                                                 |
\*---------------------------------------------------------------------------*/
FoamFile
{
    version     2.0;
    format      ascii;
    class       volVectorField;
    location    "4.4";
    object      U;
}
// * * * * * * * * * * * * * * * * * * * * * * * * * * * * * * * * * * * * * //

dimensions      [0 1 -1 0 0 0 0];

internalField   nonuniform List<vector> 
400
(
(-0.383281 -7.0986e-11 0)
(-0.383281 1.27037e-10 0)
(-0.383281 -9.74285e-10 0)
(-0.383281 -2.04105e-09 0)
(-0.383281 -1.52051e-09 0)
(-0.383281 -3.65661e-09 0)
(-0.383281 -2.32706e-09 0)
(-0.383281 -4.65167e-09 0)
(-0.383281 -2.75712e-09 0)
(-0.383281 -5.216e-09 0)
(-0.383281 -2.87462e-09 0)
(-0.383281 -5.2201e-09 0)
(-0.383281 -2.90676e-09 0)
(-0.383281 -4.61703e-09 0)
(-0.383281 -2.44208e-09 0)
(-0.383281 -4.06011e-09 0)
(-0.383281 -2.1935e-09 0)
(-0.383281 -1.94551e-09 0)
(-0.383281 -1.76772e-09 0)
(-0.383281 -2.46489e-09 0)
(-1.02319 -9.9115e-10 0)
(-1.02319 -1.44941e-09 0)
(-1.02319 -4.63848e-09 0)
(-1.02319 -9.24905e-09 0)
(-1.02319 -6.88365e-09 0)
(-1.02319 -1.48463e-08 0)
(-1.02319 -9.60787e-09 0)
(-1.02319 -1.81638e-08 0)
(-1.02319 -1.09597e-08 0)
(-1.02319 -1.97574e-08 0)
(-1.02319 -1.11626e-08 0)
(-1.02319 -1.92796e-08 0)
(-1.02319 -1.0904e-08 0)
(-1.02319 -1.67221e-08 0)
(-1.02319 -9.03525e-09 0)
(-1.02319 -1.39877e-08 0)
(-1.02319 -7.74311e-09 0)
(-1.02319 -6.77428e-09 0)
(-1.02319 -5.59262e-09 0)
(-1.02319 -7.22183e-09 0)
(-1.53644 -3.55552e-09 0)
(-1.53644 -6.71934e-09 0)
(-1.53644 -1.19527e-08 0)
(-1.53644 -2.27112e-08 0)
(-1.53644 -1.74088e-08 0)
(-1.53644 -3.37841e-08 0)
(-1.53644 -2.28556e-08 0)
(-1.53644 -4.00969e-08 0)
(-1.53644 -2.53734e-08 0)
(-1.53644 -4.25277e-08 0)
(-1.53644 -2.53945e-08 0)
(-1.53644 -4.06013e-08 0)
(-1.53644 -2.40624e-08 0)
(-1.53644 -3.46353e-08 0)
(-1.53644 -1.97045e-08 0)
(-1.53644 -2.75909e-08 0)
(-1.53644 -1.60852e-08 0)
(-1.53644 -1.36585e-08 0)
(-1.53644 -1.01777e-08 0)
(-1.53644 -1.16833e-08 0)
(-1.92303 -6.98506e-09 0)
(-1.92303 -1.38123e-08 0)
(-1.92303 -2.09227e-08 0)
(-1.92303 -3.89863e-08 0)
(-1.92303 -3.03405e-08 0)
(-1.92303 -5.59377e-08 0)
(-1.92303 -3.8892e-08 0)
(-1.92303 -6.53476e-08 0)
(-1.92303 -4.27082e-08 0)
(-1.92303 -6.83749e-08 0)
(-1.92303 -4.24483e-08 0)
(-1.92303 -6.44769e-08 0)
(-1.92303 -3.9665e-08 0)
(-1.92303 -5.44982e-08 0)
(-1.92303 -3.22931e-08 0)
(-1.92303 -4.21664e-08 0)
(-1.92303 -2.57675e-08 0)
(-1.92303 -2.1138e-08 0)
(-1.92303 -1.4838e-08 0)
(-1.92303 -1.56661e-08 0)
(-2.18297 -1.06159e-08 0)
(-2.18297 -2.12164e-08 0)
(-2.18297 -3.02013e-08 0)
(-2.18297 -5.52751e-08 0)
(-2.18297 -4.40159e-08 0)
(-2.18297 -7.76409e-08 0)
(-2.18297 -5.58939e-08 0)
(-2.18297 -8.98086e-08 0)
(-2.18297 -6.11564e-08 0)
(-2.18297 -9.31673e-08 0)
(-2.18297 -6.06665e-08 0)
(-2.18297 -8.71575e-08 0)
(-2.18297 -5.62916e-08 0)
(-2.18297 -7.32821e-08 0)
(-2.18297 -4.57006e-08 0)
(-2.18297 -5.56247e-08 0)
(-2.18297 -3.60163e-08 0)
(-2.18297 -2.82323e-08 0)
(-2.18297 -1.92279e-08 0)
(-2.18297 -1.89662e-08 0)
(-2.31625 -1.38861e-08 0)
(-2.31625 -2.77162e-08 0)
(-2.31625 -3.8386e-08 0)
(-2.31625 -6.92234e-08 0)
(-2.31625 -5.643e-08 0)
(-2.31625 -9.57602e-08 0)
(-2.31625 -7.14863e-08 0)
(-2.31625 -1.0994e-07 0)
(-2.31625 -7.82081e-08 0)
(-2.31625 -1.13317e-07 0)
(-2.31625 -7.76272e-08 0)
(-2.31625 -1.05349e-07 0)
(-2.31625 -7.17965e-08 0)
(-2.31625 -8.82609e-08 0)
(-2.31625 -5.8212e-08 0)
(-2.31625 -6.60286e-08 0)
(-2.31625 -4.56164e-08 0)
(-2.31625 -3.38928e-08 0)
(-2.31625 -2.27868e-08 0)
(-2.31625 -2.13176e-08 0)
(-2.32287 -1.66865e-08 0)
(-2.32288 -3.29948e-08 0)
(-2.32287 -4.5209e-08 0)
(-2.32288 -8.01236e-08 0)
(-2.32288 -6.72537e-08 0)
(-2.32288 -1.0938e-07 0)
(-2.32288 -8.52803e-08 0)
(-2.32288 -1.24738e-07 0)
(-2.32288 -9.34512e-08 0)
(-2.32288 -1.27834e-07 0)
(-2.32288 -9.29261e-08 0)
(-2.32288 -1.18177e-07 0)
(-2.32288 -8.57975e-08 0)
(-2.32288 -9.8744e-08 0)
(-2.32288 -6.95236e-08 0)
(-2.32288 -7.29264e-08 0)
(-2.32288 -5.42729e-08 0)
(-2.32288 -3.79717e-08 0)
(-2.32288 -2.54302e-08 0)
(-2.32288 -2.26587e-08 0)
(-2.20284 -1.90376e-08 0)
(-2.20284 -3.70521e-08 0)
(-2.20284 -5.06441e-08 0)
(-2.20284 -8.78468e-08 0)
(-2.20284 -7.64043e-08 0)
(-2.20284 -1.18389e-07 0)
(-2.20284 -9.71131e-08 0)
(-2.20284 -1.34128e-07 0)
(-2.20284 -1.06663e-07 0)
(-2.20284 -1.36685e-07 0)
(-2.20284 -1.06302e-07 0)
(-2.20284 -1.25661e-07 0)
(-2.20284 -9.80151e-08 0)
(-2.20284 -1.04771e-07 0)
(-2.20284 -7.94055e-08 0)
(-2.20284 -7.63953e-08 0)
(-2.20284 -6.1719e-08 0)
(-2.20284 -4.0566e-08 0)
(-2.20284 -2.71413e-08 0)
(-2.20284 -2.30037e-08 0)
(-1.95616 -2.09796e-08 0)
(-1.95616 -3.99795e-08 0)
(-1.95616 -5.47223e-08 0)
(-1.95616 -9.24815e-08 0)
(-1.95616 -8.38123e-08 0)
(-1.95616 -1.23014e-07 0)
(-1.95616 -1.06801e-07 0)
(-1.95616 -1.38444e-07 0)
(-1.95616 -1.17572e-07 0)
(-1.95616 -1.40271e-07 0)
(-1.95616 -1.17425e-07 0)
(-1.95616 -1.28235e-07 0)
(-1.95616 -1.08102e-07 0)
(-1.95616 -1.06724e-07 0)
(-1.95616 -8.75715e-08 0)
(-1.95616 -7.67827e-08 0)
(-1.95616 -6.76422e-08 0)
(-1.95616 -4.18767e-08 0)
(-1.95616 -2.79417e-08 0)
(-1.95616 -2.24344e-08 0)
(-1.58281 -2.2524e-08 0)
(-1.58281 -4.18556e-08 0)
(-1.58281 -5.74551e-08 0)
(-1.58281 -9.41684e-08 0)
(-1.58281 -8.93346e-08 0)
(-1.58281 -1.23595e-07 0)
(-1.58281 -1.14062e-07 0)
(-1.58281 -1.38162e-07 0)
(-1.58281 -1.25797e-07 0)
(-1.58281 -1.39156e-07 0)
(-1.58281 -1.25853e-07 0)
(-1.58281 -1.26495e-07 0)
(-1.58281 -1.15615e-07 0)
(-1.58281 -1.05119e-07 0)
(-1.58281 -9.36596e-08 0)
(-1.58281 -7.4557e-08 0)
(-1.58281 -7.16923e-08 0)
(-1.58281 -4.21184e-08 0)
(-1.58281 -2.78779e-08 0)
(-1.58281 -2.10885e-08 0)
(-1.08281 -2.36406e-08 0)
(-1.08281 -4.27142e-08 0)
(-1.08281 -5.88133e-08 0)
(-1.08281 -9.30611e-08 0)
(-1.08281 -9.27378e-08 0)
(-1.08281 -1.20513e-07 0)
(-1.08281 -1.18513e-07 0)
(-1.08281 -1.33812e-07 0)
(-1.08281 -1.30858e-07 0)
(-1.08281 -1.3396e-07 0)
(-1.08281 -1.31053e-07 0)
(-1.08281 -1.21093e-07 0)
(-1.08281 -1.20049e-07 0)
(-1.08281 -1.00512e-07 0)
(-1.08281 -9.72566e-08 0)
(-1.08281 -7.02337e-08 0)
(-1.08281 -7.35247e-08 0)
(-1.08281 -4.14645e-08 0)
(-1.08281 -2.70134e-08 0)
(-1.08281 -1.91421e-08 0)
(-0.456156 -2.42618e-08 0)
(-0.456156 -4.25421e-08 0)
(-0.456156 -5.87342e-08 0)
(-0.456156 -8.93286e-08 0)
(-0.456156 -9.37295e-08 0)
(-0.456156 -1.14169e-07 0)
(-0.456156 -1.1973e-07 0)
(-0.456156 -1.25932e-07 0)
(-0.456156 -1.32244e-07 0)
(-0.456156 -1.25313e-07 0)
(-0.456156 -1.32475e-07 0)
(-0.456156 -1.12678e-07 0)
(-0.456156 -1.20911e-07 0)
(-0.456156 -9.34481e-08 0)
(-0.456156 -9.79565e-08 0)
(-0.456156 -6.43214e-08 0)
(-0.456156 -7.28645e-08 0)
(-0.456156 -4.0019e-08 0)
(-0.456156 -2.54197e-08 0)
(-0.456156 -1.67879e-08 0)
(0.297156 -2.42952e-08 0)
(0.297156 -4.1289e-08 0)
(0.297156 -5.71262e-08 0)
(0.297156 -8.31645e-08 0)
(0.297156 -9.199e-08 0)
(0.297156 -1.04964e-07 0)
(0.297156 -1.17287e-07 0)
(0.297156 -1.15046e-07 0)
(0.297156 -1.29468e-07 0)
(0.297156 -1.13806e-07 0)
(0.297156 -1.29616e-07 0)
(0.297156 -1.01841e-07 0)
(0.297156 -1.17777e-07 0)
(0.297156 -8.44144e-08 0)
(0.297156 -9.5404e-08 0)
(0.297156 -5.72664e-08 0)
(0.297156 -6.95521e-08 0)
(0.297156 -3.78013e-08 0)
(0.297156 -2.316e-08 0)
(0.297156 -1.42067e-08 0)
(1.17712 -2.36371e-08 0)
(1.17712 -3.88792e-08 0)
(1.17712 -5.3869e-08 0)
(1.17712 -7.47832e-08 0)
(1.17712 -8.71981e-08 0)
(1.17712 -9.32723e-08 0)
(1.17712 -1.10799e-07 0)
(1.17712 -1.0161e-07 0)
(1.17712 -1.22111e-07 0)
(1.17712 -9.99417e-08 0)
(1.17712 -1.22062e-07 0)
(1.17712 -8.90596e-08 0)
(1.17712 -1.10328e-07 0)
(1.17712 -7.37923e-08 0)
(1.17712 -8.93255e-08 0)
(1.17712 -4.93941e-08 0)
(1.17712 -6.35627e-08 0)
(1.17712 -3.47439e-08 0)
(1.17712 -2.0272e-08 0)
(1.17712 -1.15392e-08 0)
(2.18375 -2.21963e-08 0)
(2.18375 -3.52413e-08 0)
(2.18375 -4.88362e-08 0)
(2.18375 -6.44312e-08 0)
(2.18375 -7.90899e-08 0)
(2.18375 -7.94388e-08 0)
(2.18375 -9.99796e-08 0)
(2.18375 -8.60153e-08 0)
(2.18375 -1.0988e-07 0)
(2.18375 -8.41232e-08 0)
(2.18375 -1.09547e-07 0)
(2.18375 -7.4681e-08 0)
(2.18375 -9.83954e-08 0)
(2.18375 -6.18483e-08 0)
(2.18375 -7.95695e-08 0)
(2.18375 -4.08878e-08 0)
(2.18375 -5.50177e-08 0)
(2.18375 -3.07186e-08 0)
(2.18375 -1.67629e-08 0)
(2.18375 -8.86918e-09 0)
(3.31703 -1.99126e-08 0)
(3.31703 -3.03416e-08 0)
(3.31703 -4.19408e-08 0)
(3.31703 -5.23994e-08 0)
(3.31703 -6.75582e-08 0)
(3.31703 -6.37996e-08 0)
(3.31703 -8.47718e-08 0)
(3.31703 -6.86077e-08 0)
(3.31703 -9.27564e-08 0)
(3.31703 -6.66736e-08 0)
(3.31703 -9.20983e-08 0)
(3.31703 -5.89477e-08 0)
(3.31703 -8.20821e-08 0)
(3.31703 -4.87584e-08 0)
(3.31703 -6.62125e-08 0)
(3.31703 -3.18053e-08 0)
(3.31703 -4.42228e-08 0)
(3.31703 -2.55934e-08 0)
(3.31703 -1.26474e-08 0)
(3.31703 -6.22896e-09 0)
(4.57697 -1.67561e-08 0)
(4.57697 -2.42186e-08 0)
(4.57697 -3.32134e-08 0)
(4.57697 -3.90583e-08 0)
(4.57697 -5.2816e-08 0)
(4.57697 -4.67565e-08 0)
(4.57697 -6.55624e-08 0)
(4.57697 -4.97869e-08 0)
(4.57697 -7.12427e-08 0)
(4.57697 -4.79503e-08 0)
(4.57697 -7.02957e-08 0)
(4.57697 -4.21191e-08 0)
(4.57697 -6.19976e-08 0)
(4.57697 -3.47226e-08 0)
(4.57697 -4.97647e-08 0)
(4.57697 -2.21869e-08 0)
(4.57697 -3.1775e-08 0)
(4.57697 -1.93445e-08 0)
(4.57697 -8.0481e-09 0)
(4.57697 -3.6505e-09 0)
(5.96356 -1.2988e-08 0)
(5.96356 -1.75089e-08 0)
(5.96356 -2.3617e-08 0)
(5.96356 -2.59521e-08 0)
(5.96356 -3.66338e-08 0)
(5.96356 -3.03252e-08 0)
(5.96356 -4.47033e-08 0)
(5.96356 -3.1819e-08 0)
(5.96356 -4.80139e-08 0)
(5.96356 -3.02366e-08 0)
(5.96356 -4.68861e-08 0)
(5.96356 -2.62712e-08 0)
(5.96356 -4.07068e-08 0)
(5.96356 -2.14953e-08 0)
(5.96356 -3.23459e-08 0)
(5.96356 -1.32564e-08 0)
(5.96356 -1.93551e-08 0)
(5.96356 -1.27316e-08 0)
(5.96356 -3.70108e-09 0)
(5.96356 -1.43731e-09 0)
(7.47681 -8.50779e-09 0)
(7.47681 -1.04081e-08 0)
(7.47681 -1.36353e-08 0)
(7.47681 -1.3756e-08 0)
(7.47681 -2.02856e-08 0)
(7.47681 -1.54066e-08 0)
(7.47681 -2.40652e-08 0)
(7.47681 -1.57279e-08 0)
(7.47681 -2.53282e-08 0)
(7.47681 -1.45652e-08 0)
(7.47681 -2.4287e-08 0)
(7.47681 -1.23554e-08 0)
(7.47681 -2.05215e-08 0)
(7.47681 -9.93209e-09 0)
(7.47681 -1.59636e-08 0)
(7.47681 -5.61893e-09 0)
(7.47681 -8.49418e-09 0)
(7.47681 -6.39532e-09 0)
(7.47681 -3.28111e-10 0)
(7.47681 9.89298e-11 0)
(9.11672 -3.07818e-09 0)
(9.11672 -3.49614e-09 0)
(9.11672 -4.46215e-09 0)
(9.11672 -4.22092e-09 0)
(9.11672 -6.36757e-09 0)
(9.11672 -4.55279e-09 0)
(9.11672 -7.33844e-09 0)
(9.11672 -4.52956e-09 0)
(9.11672 -7.55614e-09 0)
(9.11672 -4.09038e-09 0)
(9.11672 -7.09903e-09 0)
(9.11672 -3.38377e-09 0)
(9.11672 -5.82108e-09 0)
(9.11672 -2.66163e-09 0)
(9.11672 -4.40877e-09 0)
(9.11672 -1.35322e-09 0)
(9.11672 -2.01802e-09 0)
(9.11672 -1.82338e-09 0)
(9.11672 3.87599e-10 0)
(9.11672 2.79809e-10 0)
)
;

boundaryField
{
    top
    {
        type            fixedValue;
        value           uniform (10 0 0);
    }
    bottom
    {
        type            fixedValue;
        value           uniform (0 0 0);
    }
    inlet
    {
        type            zeroGradient;
    }
    outlet
    {
        type            zeroGradient;
    }
    frontAndBack
    {
        type            empty;
    }
}


// ************************************************************************* //
