/*--------------------------------*- C++ -*----------------------------------*\
| =========                 |                                                 |
| \\      /  F ield         | OpenFOAM: The Open Source CFD Toolbox           |
|  \\    /   O peration     | Version:  4.1                                   |
|   \\  /    A nd           | Web:      www.OpenFOAM.org                      |
|    \\/     M anipulation  |                                                 |
\*---------------------------------------------------------------------------*/
FoamFile
{
    version     2.0;
    format      ascii;
    class       volScalarField;
    location    "3.2";
    object      p;
}
// * * * * * * * * * * * * * * * * * * * * * * * * * * * * * * * * * * * * * //

dimensions      [0 2 -2 0 0 0 0];

internalField   nonuniform List<scalar> 
400
(
1.41359e-10
1.5782e-10
1.34641e-10
1.44034e-10
1.26967e-10
1.31907e-10
1.18999e-10
1.20378e-10
1.10595e-10
1.09206e-10
1.01912e-10
9.82524e-11
9.3087e-11
8.74031e-11
8.42022e-11
7.65435e-11
7.53926e-11
6.57819e-11
6.73287e-11
6.34606e-11
1.40849e-10
1.57297e-10
1.34601e-10
1.44024e-10
1.26968e-10
1.31905e-10
1.19e-10
1.20378e-10
1.10596e-10
1.09205e-10
1.01912e-10
9.82524e-11
9.30869e-11
8.74033e-11
8.42016e-11
7.65437e-11
7.53868e-11
6.57857e-11
6.69796e-11
6.30914e-11
1.40558e-10
1.56923e-10
1.34553e-10
1.44023e-10
1.26961e-10
1.31909e-10
1.18996e-10
1.2038e-10
1.10594e-10
1.09207e-10
1.01911e-10
9.82528e-11
9.30869e-11
8.74028e-11
8.42025e-11
7.65418e-11
7.53844e-11
6.5782e-11
6.67035e-11
6.2836e-11
1.40467e-10
1.56748e-10
1.34507e-10
1.44024e-10
1.26954e-10
1.31914e-10
1.18992e-10
1.20383e-10
1.10591e-10
1.09208e-10
1.0191e-10
9.82533e-11
9.30871e-11
8.74021e-11
8.42036e-11
7.65397e-11
7.53833e-11
6.57724e-11
6.65452e-11
6.27056e-11
1.40495e-10
1.56712e-10
1.34464e-10
1.44025e-10
1.26949e-10
1.31918e-10
1.18989e-10
1.20386e-10
1.10589e-10
1.09209e-10
1.0191e-10
9.82536e-11
9.30872e-11
8.74016e-11
8.42046e-11
7.6538e-11
7.53827e-11
6.57602e-11
6.64789e-11
6.26605e-11
1.40603e-10
1.56768e-10
1.34421e-10
1.44025e-10
1.26944e-10
1.31921e-10
1.18987e-10
1.20388e-10
1.10588e-10
1.09211e-10
1.01909e-10
9.82539e-11
9.30873e-11
8.74012e-11
8.42054e-11
7.65367e-11
7.53825e-11
6.57465e-11
6.6486e-11
6.26818e-11
1.40766e-10
1.56889e-10
1.34377e-10
1.44025e-10
1.2694e-10
1.31923e-10
1.18985e-10
1.2039e-10
1.10587e-10
1.09211e-10
1.01909e-10
9.82541e-11
9.30874e-11
8.74009e-11
8.4206e-11
7.65357e-11
7.53827e-11
6.57324e-11
6.65545e-11
6.2758e-11
1.40958e-10
1.57047e-10
1.34332e-10
1.44024e-10
1.26937e-10
1.31925e-10
1.18983e-10
1.20391e-10
1.10586e-10
1.09212e-10
1.01908e-10
9.82543e-11
9.30875e-11
8.74006e-11
8.42065e-11
7.65349e-11
7.53831e-11
6.57191e-11
6.66698e-11
6.28742e-11
1.41153e-10
1.57212e-10
1.34286e-10
1.44022e-10
1.26934e-10
1.31926e-10
1.18982e-10
1.20392e-10
1.10585e-10
1.09212e-10
1.01908e-10
9.82544e-11
9.30876e-11
8.74005e-11
8.42069e-11
7.65345e-11
7.53835e-11
6.57077e-11
6.68141e-11
6.30123e-11
1.41324e-10
1.5736e-10
1.34238e-10
1.44019e-10
1.26933e-10
1.31927e-10
1.18982e-10
1.20392e-10
1.10585e-10
1.09213e-10
1.01908e-10
9.82545e-11
9.30877e-11
8.74004e-11
8.42072e-11
7.65344e-11
7.53837e-11
6.56988e-11
6.69686e-11
6.31537e-11
1.41451e-10
1.57468e-10
1.3419e-10
1.44014e-10
1.26932e-10
1.31927e-10
1.18982e-10
1.20392e-10
1.10585e-10
1.09212e-10
1.01908e-10
9.82545e-11
9.30877e-11
8.74004e-11
8.42073e-11
7.65345e-11
7.53836e-11
6.56929e-11
6.71145e-11
6.32802e-11
1.41518e-10
1.5752e-10
1.34142e-10
1.44008e-10
1.26931e-10
1.31926e-10
1.18982e-10
1.20391e-10
1.10585e-10
1.09212e-10
1.01908e-10
9.82544e-11
9.30878e-11
8.74005e-11
8.42072e-11
7.6535e-11
7.53828e-11
6.56901e-11
6.72346e-11
6.33756e-11
1.41514e-10
1.57506e-10
1.34095e-10
1.44e-10
1.26932e-10
1.31924e-10
1.18983e-10
1.20391e-10
1.10586e-10
1.09212e-10
1.01908e-10
9.82543e-11
9.30878e-11
8.74007e-11
8.4207e-11
7.65356e-11
7.53813e-11
6.56903e-11
6.73144e-11
6.34264e-11
1.41436e-10
1.57425e-10
1.34052e-10
1.4399e-10
1.26933e-10
1.31922e-10
1.18985e-10
1.20389e-10
1.10587e-10
1.09211e-10
1.01908e-10
9.82541e-11
9.30879e-11
8.7401e-11
8.42067e-11
7.65365e-11
7.5379e-11
6.56932e-11
6.73436e-11
6.34236e-11
1.4129e-10
1.5728e-10
1.34013e-10
1.4398e-10
1.26935e-10
1.31919e-10
1.18987e-10
1.20388e-10
1.10588e-10
1.0921e-10
1.01909e-10
9.82538e-11
9.30879e-11
8.74013e-11
8.42061e-11
7.65375e-11
7.53758e-11
6.56981e-11
6.73166e-11
6.33623e-11
1.41087e-10
1.57087e-10
1.33979e-10
1.43968e-10
1.26938e-10
1.31915e-10
1.1899e-10
1.20386e-10
1.1059e-10
1.09209e-10
1.0191e-10
9.82535e-11
9.30879e-11
8.74017e-11
8.42054e-11
7.65387e-11
7.53717e-11
6.57044e-11
6.72347e-11
6.32447e-11
1.40846e-10
1.56869e-10
1.33952e-10
1.43956e-10
1.26942e-10
1.31911e-10
1.18993e-10
1.20383e-10
1.10591e-10
1.09208e-10
1.0191e-10
9.82531e-11
9.3088e-11
8.74022e-11
8.42045e-11
7.654e-11
7.53669e-11
6.57114e-11
6.71047e-11
6.30767e-11
1.40601e-10
1.56665e-10
1.33934e-10
1.43942e-10
1.26947e-10
1.31906e-10
1.18997e-10
1.2038e-10
1.10594e-10
1.09206e-10
1.01911e-10
9.82526e-11
9.3088e-11
8.74028e-11
8.42033e-11
7.65415e-11
7.53611e-11
6.57186e-11
6.69414e-11
6.28719e-11
1.40413e-10
1.56513e-10
1.3392e-10
1.43929e-10
1.26951e-10
1.31901e-10
1.19e-10
1.20377e-10
1.10596e-10
1.09205e-10
1.01912e-10
9.82522e-11
9.30879e-11
8.74033e-11
8.42022e-11
7.65427e-11
7.53552e-11
6.57249e-11
6.67561e-11
6.26512e-11
1.40378e-10
1.56446e-10
1.33902e-10
1.43927e-10
1.26949e-10
1.31903e-10
1.18999e-10
1.20378e-10
1.10595e-10
1.09205e-10
1.01912e-10
9.82523e-11
9.3088e-11
8.7403e-11
8.42026e-11
7.65415e-11
7.53518e-11
6.57273e-11
6.65825e-11
6.2481e-11
)
;

boundaryField
{
    top
    {
        type            zeroGradient;
    }
    bottom
    {
        type            zeroGradient;
    }
    inlet
    {
        type            fixedValue;
        value           uniform 0;
    }
    outlet
    {
        type            fixedValue;
        value           uniform 0;
    }
    frontAndBack
    {
        type            empty;
    }
}


// ************************************************************************* //
