/*--------------------------------*- C++ -*----------------------------------*\
| =========                 |                                                 |
| \\      /  F ield         | OpenFOAM: The Open Source CFD Toolbox           |
|  \\    /   O peration     | Version:  4.1                                   |
|   \\  /    A nd           | Web:      www.OpenFOAM.org                      |
|    \\/     M anipulation  |                                                 |
\*---------------------------------------------------------------------------*/
FoamFile
{
    version     2.0;
    format      ascii;
    class       surfaceScalarField;
    location    "3.2";
    object      phi;
}
// * * * * * * * * * * * * * * * * * * * * * * * * * * * * * * * * * * * * * //

dimensions      [0 3 -1 0 0 0 0];

internalField   nonuniform List<scalar> 
760
(
1.25e-06
-2.19705e-16
1.25e-06
-1.50958e-16
1.25e-06
1.90026e-18
1.25e-06
-1.07008e-17
1.25e-06
7.1353e-18
1.25e-06
-6.03705e-18
1.25e-06
4.77606e-18
1.25e-06
-3.73285e-18
1.25e-06
2.79823e-18
1.25e-06
-1.96784e-18
1.25e-06
1.20672e-18
1.25e-06
-4.77878e-19
1.25e-06
-2.01661e-19
1.25e-06
8.51655e-19
1.25e-06
-1.55274e-18
1.25e-06
2.1138e-18
1.25e-06
-4.00594e-18
1.25e-06
5.64015e-18
1.25e-06
-9.04541e-17
-1.33275e-16
3.75e-06
-6.64082e-16
3.75e-06
-5.28192e-16
3.75e-06
-1.0917e-17
3.75e-06
-2.6032e-17
3.75e-06
1.4958e-17
3.75e-06
-1.30899e-17
3.75e-06
1.02616e-17
3.75e-06
-8.02267e-18
3.75e-06
6.00108e-18
3.75e-06
-4.22104e-18
3.75e-06
2.58389e-18
3.75e-06
-9.90355e-19
3.75e-06
-4.73935e-19
3.75e-06
1.85949e-18
3.75e-06
-3.43049e-18
3.75e-06
4.43342e-18
3.75e-06
-1.05184e-17
3.75e-06
1.48742e-17
3.75e-06
-3.3312e-16
-4.30352e-16
6.25e-06
-1.20147e-15
6.25e-06
-1.04139e-15
6.25e-06
-4.06167e-17
6.25e-06
-3.9925e-17
6.25e-06
1.92476e-17
6.25e-06
-1.76119e-17
6.25e-06
1.36473e-17
6.25e-06
-1.06767e-17
6.25e-06
7.961e-18
6.25e-06
-5.60111e-18
6.25e-06
3.42218e-18
6.25e-06
-1.25437e-18
6.25e-06
-6.98424e-19
6.25e-06
2.51979e-18
6.25e-06
-4.72238e-18
6.25e-06
5.72147e-18
6.25e-06
-1.73409e-17
6.25e-06
2.49319e-17
6.25e-06
-6.84091e-16
-8.2285e-16
8.75e-06
-1.75078e-15
8.75e-06
-1.60199e-15
8.75e-06
-8.15985e-17
8.75e-06
-5.17959e-17
8.75e-06
2.04474e-17
8.75e-06
-1.98416e-17
8.75e-06
1.51461e-17
8.75e-06
-1.18571e-17
8.75e-06
8.80719e-18
8.75e-06
-6.20731e-18
8.75e-06
3.78448e-18
8.75e-06
-1.31029e-18
8.75e-06
-8.62244e-19
8.75e-06
2.85683e-18
8.75e-06
-5.45926e-18
8.75e-06
6.10259e-18
8.75e-06
-2.40173e-17
8.75e-06
3.51283e-17
8.75e-06
-1.09159e-15
-1.2591e-15
1.125e-05
-2.24214e-15
1.125e-05
-2.13199e-15
1.125e-05
-1.27857e-16
1.125e-05
-6.10161e-17
1.125e-05
1.90344e-17
1.125e-05
-2.00362e-17
1.125e-05
1.50069e-17
1.125e-05
-1.17542e-17
1.125e-05
8.68363e-18
1.125e-05
-6.14057e-18
1.125e-05
3.73721e-18
1.125e-05
-1.19915e-18
1.125e-05
-9.58506e-19
1.125e-05
2.89885e-18
1.125e-05
-5.68176e-18
1.125e-05
5.70669e-18
1.125e-05
-3.00611e-17
1.125e-05
4.48091e-17
1.125e-05
-1.50589e-15
-1.68966e-15
1.375e-05
-2.62199e-15
1.375e-05
-2.56951e-15
1.375e-05
-1.73492e-16
1.375e-05
-6.70305e-17
1.375e-05
1.55335e-17
1.375e-05
-1.84803e-17
1.375e-05
1.34759e-17
1.375e-05
-1.05653e-17
1.375e-05
7.74923e-18
1.375e-05
-5.50944e-18
1.375e-05
3.34548e-18
1.375e-05
-9.55382e-19
1.375e-05
-9.8571e-19
1.375e-05
2.68571e-18
1.375e-05
-5.44418e-18
1.375e-05
4.6803e-18
1.375e-05
-3.5006e-17
1.375e-05
5.32873e-17
1.375e-05
-1.88209e-15
-2.07007e-15
1.625e-05
-2.85337e-15
1.625e-05
-2.8695e-15
1.625e-05
-2.13218e-16
1.625e-05
-6.94299e-17
1.625e-05
1.04678e-17
1.625e-05
-1.54731e-17
1.625e-05
1.08279e-17
1.625e-05
-8.5016e-18
1.625e-05
6.15651e-18
1.625e-05
-4.42022e-18
1.625e-05
2.6866e-18
1.625e-05
-6.27131e-19
1.625e-05
-9.42084e-19
1.625e-05
2.25738e-18
1.625e-05
-4.80455e-18
1.625e-05
3.16411e-18
1.625e-05
-3.84649e-17
1.625e-05
5.98724e-17
1.625e-05
-2.18316e-15
-2.36396e-15
1.875e-05
-2.91785e-15
1.875e-05
-3.00615e-15
1.875e-05
-2.42832e-16
1.875e-05
-6.80312e-17
1.875e-05
4.38584e-18
1.875e-05
-1.13527e-17
1.875e-05
7.34775e-18
1.875e-05
-5.78621e-18
1.875e-05
4.08078e-18
1.875e-05
-2.99197e-18
1.875e-05
1.82622e-18
1.875e-05
-2.34124e-19
1.875e-05
-8.40452e-19
1.875e-05
1.65502e-18
1.875e-05
-3.84047e-18
1.875e-05
1.31108e-18
1.875e-05
-4.01457e-17
1.875e-05
6.39086e-17
1.875e-05
-2.38197e-15
-2.54515e-15
2.125e-05
-2.81464e-15
2.125e-05
-2.97238e-15
2.125e-05
-2.59522e-16
2.125e-05
-6.29003e-17
2.125e-05
-2.21586e-18
2.125e-05
-6.45515e-18
2.125e-05
3.32892e-18
2.125e-05
-2.65365e-18
2.125e-05
1.69275e-18
2.125e-05
-1.34241e-18
2.125e-05
8.40575e-19
2.125e-05
1.84009e-19
2.125e-05
-6.89891e-19
2.125e-05
9.51306e-19
2.125e-05
-2.63629e-18
2.125e-05
-7.37491e-19
2.125e-05
-3.9889e-17
2.125e-05
6.48677e-17
2.125e-05
-2.46274e-15
-2.59912e-15
2.375e-05
-2.55976e-15
2.375e-05
-2.77913e-15
2.375e-05
-2.62127e-16
2.375e-05
-5.44196e-17
2.375e-05
-8.84295e-18
2.375e-05
-1.12842e-18
2.375e-05
-9.45467e-19
2.375e-05
6.79702e-19
2.375e-05
-8.24665e-19
2.375e-05
3.98431e-19
2.375e-05
-2.16933e-19
2.375e-05
6.05393e-19
2.375e-05
-4.97174e-19
2.375e-05
1.65021e-19
2.375e-05
-1.27853e-18
2.375e-05
-2.80347e-18
2.375e-05
-3.772e-17
2.375e-05
6.24658e-17
2.375e-05
-2.42143e-15
-2.52361e-15
2.625e-05
-2.18345e-15
2.625e-05
-2.45301e-15
2.625e-05
-2.5115e-16
2.625e-05
-4.32535e-17
2.625e-05
-1.50383e-17
2.625e-05
4.24924e-18
2.625e-05
-5.16248e-18
2.625e-05
3.97526e-18
2.625e-05
-3.30615e-18
2.625e-05
2.11596e-18
2.625e-05
-1.25945e-18
2.625e-05
1.00108e-18
2.625e-05
-2.8646e-19
2.625e-05
-6.3763e-19
2.625e-05
1.44106e-19
2.625e-05
-4.76658e-18
2.625e-05
-3.37823e-17
2.625e-05
5.67286e-17
2.625e-05
-2.26558e-15
-2.32841e-15
2.875e-05
-1.72697e-15
2.875e-05
-2.03287e-15
2.875e-05
-2.28571e-16
2.875e-05
-3.03624e-17
2.875e-05
-2.03857e-17
2.875e-05
9.31233e-18
2.875e-05
-9.04691e-18
2.875e-05
7.01366e-18
2.875e-05
-5.58683e-18
2.875e-05
3.69456e-18
2.875e-05
-2.21842e-18
2.875e-05
1.34818e-18
2.875e-05
-7.47698e-20
2.875e-05
-1.38607e-18
2.875e-05
1.52937e-18
2.875e-05
-6.48678e-18
2.875e-05
-2.84213e-17
2.875e-05
4.81104e-17
2.875e-05
-2.01298e-15
-2.03415e-15
3.125e-05
-1.23863e-15
3.125e-05
-1.56565e-15
3.125e-05
-1.97495e-16
3.125e-05
-1.68628e-17
3.125e-05
-2.45268e-17
3.125e-05
1.36781e-17
3.125e-05
-1.23223e-17
3.125e-05
9.58152e-18
3.125e-05
-7.49353e-18
3.125e-05
5.01876e-18
3.125e-05
-3.03159e-18
3.125e-05
1.62368e-18
3.125e-05
1.27228e-19
3.125e-05
-2.03208e-18
3.125e-05
2.75128e-18
3.125e-05
-7.8084e-18
3.125e-05
-2.2088e-17
3.125e-05
3.74096e-17
3.125e-05
-1.68992e-15
-1.67046e-15
3.375e-05
-7.68407e-16
3.375e-05
-1.1006e-15
3.375e-05
-1.61707e-16
3.375e-05
-4.04834e-18
3.375e-05
-2.71396e-17
3.375e-05
1.69894e-17
3.375e-05
-1.47117e-17
3.375e-05
1.14558e-17
3.375e-05
-8.85799e-18
3.375e-05
5.99189e-18
3.375e-05
-3.62996e-18
3.375e-05
1.79067e-18
3.375e-05
2.99249e-19
3.375e-05
-2.5259e-18
3.375e-05
3.74197e-18
3.375e-05
-8.63793e-18
3.375e-05
-1.53574e-17
3.375e-05
2.57778e-17
3.375e-05
-1.32827e-15
-1.27289e-15
3.625e-05
-3.63752e-16
3.625e-05
-6.8454e-16
3.625e-05
-1.24965e-16
3.625e-05
6.7759e-18
3.625e-05
-2.79219e-17
3.625e-05
1.88887e-17
3.625e-05
-1.59527e-17
3.625e-05
1.24428e-17
3.625e-05
-9.54986e-18
3.625e-05
6.50025e-18
3.625e-05
-3.95391e-18
3.625e-05
1.84974e-18
3.625e-05
4.19378e-19
3.625e-05
-2.79655e-18
3.625e-05
4.37209e-18
3.625e-05
-8.85825e-18
3.625e-05
-8.86455e-18
3.625e-05
1.45763e-17
3.625e-05
-9.62819e-16
-8.80121e-16
3.875e-05
-6.20427e-17
3.875e-05
-3.53992e-16
3.875e-05
-9.05037e-17
3.875e-05
1.43779e-17
3.875e-05
-2.66124e-17
3.875e-05
1.90469e-17
3.875e-05
-1.58072e-17
3.875e-05
1.23205e-17
3.875e-05
-9.40742e-18
3.875e-05
6.45864e-18
3.875e-05
-3.93662e-18
3.875e-05
1.77862e-18
3.875e-05
4.69486e-19
3.875e-05
-2.8075e-18
3.875e-05
4.54972e-18
3.875e-05
-8.38312e-18
3.875e-05
-3.28726e-18
3.875e-05
5.18415e-18
3.875e-05
-6.26695e-16
-5.29099e-16
4.125e-05
1.11741e-16
4.125e-05
-1.32204e-16
4.125e-05
-6.03308e-17
4.125e-05
1.76598e-17
4.125e-05
-2.29428e-17
4.125e-05
1.71497e-17
4.125e-05
-1.4047e-17
4.125e-05
1.09349e-17
4.125e-05
-8.33106e-18
4.125e-05
5.75511e-18
4.125e-05
-3.50793e-18
4.125e-05
1.54818e-18
4.125e-05
4.47831e-19
4.125e-05
-2.49362e-18
4.125e-05
4.17426e-18
4.125e-05
-7.16452e-18
4.125e-05
7.35744e-19
4.125e-05
-1.24093e-18
4.125e-05
-3.49254e-16
-2.5258e-16
4.375e-05
1.55649e-16
4.375e-05
-1.83819e-17
4.375e-05
-3.5028e-17
4.375e-05
1.57789e-17
4.375e-05
-1.66823e-17
4.375e-05
1.28932e-17
4.375e-05
-1.04468e-17
4.375e-05
8.13176e-18
4.375e-05
-6.18967e-18
4.375e-05
4.30017e-18
4.375e-05
-2.61231e-18
4.375e-05
1.12902e-18
4.375e-05
3.50725e-19
4.375e-05
-1.85295e-18
4.375e-05
3.1734e-18
4.375e-05
-5.14897e-18
4.375e-05
2.63931e-18
4.375e-05
-3.90253e-18
4.375e-05
-1.49093e-16
-7.1905e-17
4.625e-05
8.74354e-17
4.625e-05
9.16838e-18
4.625e-05
-1.34251e-17
4.625e-05
8.12889e-18
4.625e-05
-7.57549e-18
4.625e-05
5.99687e-18
4.625e-05
-4.83258e-18
4.625e-05
3.76077e-18
4.625e-05
-2.85014e-18
4.625e-05
1.98648e-18
4.625e-05
-1.21207e-18
4.625e-05
5.26022e-19
4.625e-05
1.66194e-19
4.625e-05
-8.55113e-19
4.625e-05
1.48219e-18
4.625e-05
-2.29391e-18
4.625e-05
1.93016e-18
4.625e-05
-2.72103e-18
4.625e-05
-3.48983e-17
2.43393e-18
4.875e-05
4.875e-05
4.875e-05
4.875e-05
4.875e-05
4.875e-05
4.875e-05
4.875e-05
4.875e-05
4.875e-05
4.875e-05
4.875e-05
4.875e-05
4.875e-05
4.875e-05
4.875e-05
4.875e-05
4.875e-05
4.875e-05
)
;

boundaryField
{
    top
    {
        type            calculated;
        value           uniform 0;
    }
    bottom
    {
        type            calculated;
        value           uniform 0;
    }
    inlet
    {
        type            calculated;
        value           nonuniform List<scalar> 
20
(
-1.25e-06
-3.75e-06
-6.25e-06
-8.75e-06
-1.125e-05
-1.375e-05
-1.625e-05
-1.875e-05
-2.125e-05
-2.375e-05
-2.625e-05
-2.875e-05
-3.125e-05
-3.375e-05
-3.625e-05
-3.875e-05
-4.125e-05
-4.375e-05
-4.625e-05
-4.875e-05
)
;
    }
    outlet
    {
        type            calculated;
        value           nonuniform List<scalar> 
20
(
1.25e-06
3.75e-06
6.25e-06
8.75e-06
1.125e-05
1.375e-05
1.625e-05
1.875e-05
2.125e-05
2.375e-05
2.625e-05
2.875e-05
3.125e-05
3.375e-05
3.625e-05
3.875e-05
4.125e-05
4.375e-05
4.625e-05
4.875e-05
)
;
    }
    frontAndBack
    {
        type            empty;
        value           nonuniform 0();
    }
}


// ************************************************************************* //
