/*--------------------------------*- C++ -*----------------------------------*\
| =========                 |                                                 |
| \\      /  F ield         | OpenFOAM: The Open Source CFD Toolbox           |
|  \\    /   O peration     | Version:  4.1                                   |
|   \\  /    A nd           | Web:      www.OpenFOAM.org                      |
|    \\/     M anipulation  |                                                 |
\*---------------------------------------------------------------------------*/
FoamFile
{
    version     2.0;
    format      ascii;
    class       volVectorField;
    location    "3.2";
    object      U;
}
// * * * * * * * * * * * * * * * * * * * * * * * * * * * * * * * * * * * * * //

dimensions      [0 1 -1 0 0 0 0];

internalField   nonuniform List<vector> 
400
(
(0.025 -9.78086e-14 0)
(0.025 -6.09609e-14 0)
(0.025 2.25764e-15 0)
(0.025 -5.34542e-15 0)
(0.025 3.75771e-15 0)
(0.025 -3.14572e-15 0)
(0.025 2.49686e-15 0)
(0.025 -1.95115e-15 0)
(0.025 1.46361e-15 0)
(0.025 -1.02943e-15 0)
(0.025 6.31949e-16 0)
(0.025 -2.53371e-16 0)
(0.025 -1.01295e-16 0)
(0.025 4.42439e-16 0)
(0.025 -8.02907e-16 0)
(0.025 1.11028e-15 0)
(0.025 -1.93811e-15 0)
(0.025 2.50002e-15 0)
(0.025 -3.4356e-14 0)
(0.025 -5.60055e-14 0)
(0.075 -4.11852e-13 0)
(0.075 -3.039e-13 0)
(0.075 -7.74999e-16 0)
(0.075 -1.80923e-14 0)
(0.075 1.1433e-14 0)
(0.075 -9.787e-15 0)
(0.075 7.71692e-15 0)
(0.075 -6.03159e-15 0)
(0.075 4.51851e-15 0)
(0.075 -3.17722e-15 0)
(0.075 1.94666e-15 0)
(0.075 -7.61485e-16 0)
(0.075 -3.38209e-16 0)
(0.075 1.38493e-15 0)
(0.075 -2.53595e-15 0)
(0.075 3.38612e-15 0)
(0.075 -6.98368e-15 0)
(0.075 1.0039e-14 0)
(0.075 -1.85374e-13 0)
(0.075 -2.56046e-13 0)
(0.125 -9.13821e-13 0)
(0.125 -7.58619e-13 0)
(0.125 -2.24773e-14 0)
(0.125 -3.30842e-14 0)
(0.125 1.76744e-14 0)
(0.125 -1.57431e-14 0)
(0.125 1.22848e-14 0)
(0.125 -9.60751e-15 0)
(0.125 7.17706e-15 0)
(0.125 -5.0477e-15 0)
(0.125 3.08763e-15 0)
(0.125 -1.16235e-15 0)
(0.125 -5.92774e-16 0)
(0.125 2.2437e-15 0)
(0.125 -4.16559e-15 0)
(0.125 5.24275e-15 0)
(0.125 -1.38034e-14 0)
(0.125 1.94721e-14 0)
(0.125 -4.86474e-13 0)
(0.125 -6.06037e-13 0)
(0.175 -1.47917e-12 0)
(0.175 -1.31663e-12 0)
(0.175 -5.87996e-14 0)
(0.175 -4.64122e-14 0)
(0.175 2.05711e-14 0)
(0.175 -1.92707e-14 0)
(0.175 1.48412e-14 0)
(0.175 -1.16139e-14 0)
(0.175 8.64629e-15 0)
(0.175 -6.08698e-15 0)
(0.175 3.71522e-15 0)
(0.175 -1.33031e-15 0)
(0.175 -7.95784e-16 0)
(0.175 2.76548e-15 0)
(0.175 -5.22439e-15 0)
(0.175 6.12465e-15 0)
(0.175 -2.07597e-14 0)
(0.175 3.00038e-14 0)
(0.175 -8.78478e-13 0)
(0.175 -1.03469e-12 0)
(0.225 -2.01721e-12 0)
(0.225 -1.88155e-12 0)
(0.225 -1.04072e-13 0)
(0.225 -5.71658e-14 0)
(0.225 2.03589e-14 0)
(0.225 -2.04361e-14 0)
(0.225 1.54751e-14 0)
(0.225 -1.2117e-14 0)
(0.225 8.97974e-15 0)
(0.225 -6.33698e-15 0)
(0.225 3.86013e-15 0)
(0.225 -1.29419e-15 0)
(0.225 -9.28239e-16 0)
(0.225 2.95026e-15 0)
(0.225 -5.69835e-15 0)
(0.225 6.08829e-15 0)
(0.225 -2.72655e-14 0)
(0.225 4.01091e-14 0)
(0.225 -1.30236e-12 0)
(0.225 -1.48116e-12 0)
(0.275 -2.46413e-12 0)
(0.275 -2.37895e-12 0)
(0.275 -1.51506e-13 0)
(0.275 -6.48778e-14 0)
(0.275 1.77461e-14 0)
(0.275 -1.96616e-14 0)
(0.275 1.45575e-14 0)
(0.275 -1.14073e-14 0)
(0.275 8.40249e-15 0)
(0.275 -5.95439e-15 0)
(0.275 3.61888e-15 0)
(0.275 -1.10513e-15 0)
(0.275 -9.8957e-16 0)
(0.275 2.85201e-15 0)
(0.275 -5.67206e-15 0)
(0.275 5.33457e-15 0)
(0.275 -3.28573e-14 0)
(0.275 4.93613e-14 0)
(0.275 -1.70792e-12 0)
(0.275 -1.89672e-12 0)
(0.325 -2.77651e-12 0)
(0.325 -2.75651e-12 0)
(0.325 -1.95424e-13 0)
(0.325 -6.91532e-14 0)
(0.325 1.33224e-14 0)
(0.325 -1.72958e-14 0)
(0.325 1.23943e-14 0)
(0.325 -9.72257e-15 0)
(0.325 7.09417e-15 0)
(0.325 -5.06337e-15 0)
(0.325 3.07454e-15 0)
(0.325 -8.09991e-16 0)
(0.325 -9.79883e-16 0)
(0.325 2.51916e-15 0)
(0.325 -5.21413e-15 0)
(0.325 4.02457e-15 0)
(0.325 -3.714e-14 0)
(0.325 5.70699e-14 0)
(0.325 -2.05443e-12 0)
(0.325 -2.24154e-12 0)
(0.375 -2.92686e-12 0)
(0.375 -2.97898e-12 0)
(0.375 -2.31007e-13 0)
(0.375 -6.96719e-14 0)
(0.375 7.61734e-15 0)
(0.375 -1.36494e-14 0)
(0.375 9.25938e-15 0)
(0.375 -7.27757e-15 0)
(0.375 5.21712e-15 0)
(0.375 -3.77527e-15 0)
(0.375 2.2976e-15 0)
(0.375 -4.41066e-16 0)
(0.375 -9.05584e-16 0)
(0.375 1.99226e-15 0)
(0.375 -4.39349e-15 0)
(0.375 2.30262e-15 0)
(0.375 -3.97639e-14 0)
(0.375 6.255e-14 0)
(0.375 -2.30966e-12 0)
(0.375 -2.48413e-12 0)
(0.425 -2.90568e-12 0)
(0.425 -3.03006e-12 0)
(0.425 -2.54684e-13 0)
(0.425 -6.63562e-14 0)
(0.425 1.15011e-15 0)
(0.425 -9.05351e-15 0)
(0.425 5.43646e-15 0)
(0.425 -4.29685e-15 0)
(0.425 2.94219e-15 0)
(0.425 -2.20652e-15 0)
(0.425 1.35688e-15 0)
(0.425 -2.83531e-17 0)
(0.425 -7.75955e-16 0)
(0.425 1.32678e-15 0)
(0.425 -3.28886e-15 0)
(0.425 3.15172e-16 0)
(0.425 -4.04954e-14 0)
(0.425 6.51739e-14 0)
(0.425 -2.45191e-12 0)
(0.425 -2.60383e-12 0)
(0.475 -2.72095e-12 0)
(0.475 -2.91198e-12 0)
(0.475 -2.64435e-13 0)
(0.475 -5.94229e-14 0)
(0.475 -5.58244e-15 0)
(0.475 -3.85191e-15 0)
(0.475 1.21704e-15 0)
(0.475 -1.007e-15 0)
(0.475 4.45896e-16 0)
(0.475 -4.8158e-16 0)
(0.475 3.17689e-16 0)
(0.475 3.979e-16 0)
(0.475 -6.00764e-16 0)
(0.475 5.68145e-16 0)
(0.475 -1.98374e-15 0)
(0.475 -1.77915e-15 0)
(0.475 -3.9262e-14 0)
(0.475 6.45077e-14 0)
(0.475 -2.47121e-12 0)
(0.475 -2.59214e-12 0)
(0.525 -2.39652e-12 0)
(0.525 -2.64424e-12 0)
(0.525 -2.59941e-13 0)
(0.525 -4.94015e-14 0)
(0.525 -1.2102e-14 0)
(0.525 1.59404e-15 0)
(0.525 -3.102e-15 0)
(0.525 2.36342e-15 0)
(0.525 -2.09658e-15 0)
(0.525 1.27802e-15 0)
(0.525 -7.4938e-16 0)
(0.525 8.12628e-16 0)
(0.525 -3.95444e-16 0)
(0.525 -2.39531e-16 0)
(0.525 -5.69566e-16 0)
(0.525 -3.83002e-15 0)
(0.525 -3.61481e-14 0)
(0.525 6.04001e-14 0)
(0.525 -2.36951e-12 0)
(0.525 -2.45304e-12 0)
(0.575 -1.96906e-12 0)
(0.575 -2.26053e-12 0)
(0.575 -2.42509e-13 0)
(0.575 -3.71137e-14 0)
(0.575 -1.79716e-14 0)
(0.575 6.90642e-15 0)
(0.575 -7.22353e-15 0)
(0.575 5.58595e-15 0)
(0.575 -4.51897e-15 0)
(0.575 2.95385e-15 0)
(0.575 -1.7677e-15 0)
(0.575 1.19031e-15 0)
(0.575 -1.78784e-16 0)
(0.575 -1.03001e-15 0)
(0.575 8.59999e-16 0)
(0.575 -5.70472e-15 0)
(0.575 -3.14021e-14 0)
(0.575 5.30817e-14 0)
(0.575 -2.15984e-12 0)
(0.575 -2.2021e-12 0)
(0.625 -1.48453e-12 0)
(0.625 -1.80497e-12 0)
(0.625 -2.1479e-13 0)
(0.625 -2.36169e-14 0)
(0.625 -2.28013e-14 0)
(0.625 1.17124e-14 0)
(0.625 -1.08711e-14 0)
(0.625 8.44274e-15 0)
(0.625 -6.65263e-15 0)
(0.625 4.43285e-15 0)
(0.625 -2.67027e-15 0)
(0.625 1.50722e-15 0)
(0.625 3.14287e-17 0)
(0.625 -1.74202e-15 0)
(0.625 2.19043e-15 0)
(0.625 -7.25639e-15 0)
(0.625 -2.54273e-14 0)
(0.625 4.31838e-14 0)
(0.625 -1.86484e-12 0)
(0.625 -1.86507e-12 0)
(0.675 -9.93226e-13 0)
(0.675 -1.32696e-12 0)
(0.675 -1.80373e-13 0)
(0.675 -1.01378e-14 0)
(0.675 -2.62545e-14 0)
(0.675 1.56401e-14 0)
(0.675 -1.37694e-14 0)
(0.675 1.07157e-14 0)
(0.675 -8.32705e-15 0)
(0.675 5.60726e-15 0)
(0.675 -3.39175e-15 0)
(0.675 1.733e-15 0)
(0.675 2.23765e-16 0)
(0.675 -2.32528e-15 0)
(0.675 3.32208e-15 0)
(0.675 -8.35992e-15 0)
(0.675 -1.87462e-14 0)
(0.675 3.17049e-14 0)
(0.675 -1.51428e-12 0)
(0.675 -1.47527e-12 0)
(0.725 -5.45305e-13 0)
(0.725 -8.76156e-13 0)
(0.725 -1.43196e-13 0)
(0.725 2.01094e-15 0)
(0.725 -2.80292e-14 0)
(0.725 1.83357e-14 0)
(0.725 -1.56526e-14 0)
(0.725 1.22011e-14 0)
(0.725 -9.3926e-15 0)
(0.725 6.3737e-15 0)
(0.725 -3.87055e-15 0)
(0.725 1.85218e-15 0)
(0.725 3.74204e-16 0)
(0.725 -2.7228e-15 0)
(0.725 4.15965e-15 0)
(0.725 -8.90994e-15 0)
(0.725 -1.197e-14 0)
(0.725 1.99362e-14 0)
(0.725 -1.14244e-12 0)
(0.725 -1.07078e-12 0)
(0.775 -1.84363e-13 0)
(0.775 -4.95648e-13 0)
(0.775 -1.06932e-13 0)
(0.775 1.15469e-14 0)
(0.775 -2.78532e-14 0)
(0.775 1.94675e-14 0)
(0.775 -1.62757e-14 0)
(0.775 1.26909e-14 0)
(0.775 -9.71073e-15 0)
(0.775 6.63967e-15 0)
(0.775 -4.04279e-15 0)
(0.775 1.85265e-15 0)
(0.775 4.62449e-16 0)
(0.775 -2.87825e-15 0)
(0.775 4.59325e-15 0)
(0.775 -8.80997e-15 0)
(0.775 -5.7614e-15 0)
(0.775 9.29446e-15 0)
(0.775 -7.84037e-13 0)
(0.775 -6.90198e-13 0)
(0.825 5.58025e-14 0)
(0.825 -2.17297e-13 0)
(0.825 -7.41913e-14 0)
(0.825 1.7219e-14 0)
(0.825 -2.53966e-14 0)
(0.825 1.86543e-14 0)
(0.825 -1.53596e-14 0)
(0.825 1.19648e-14 0)
(0.825 -9.12253e-15 0)
(0.825 6.28446e-15 0)
(0.825 -3.83088e-15 0)
(0.825 1.70413e-15 0)
(0.825 4.79619e-16 0)
(0.825 -2.73248e-15 0)
(0.825 4.51044e-15 0)
(0.825 -7.96783e-15 0)
(0.825 -8.03792e-16 0)
(0.825 1.15069e-15 0)
(0.825 -4.71214e-13 0)
(0.825 -3.69703e-13 0)
(0.875 1.60229e-13 0)
(0.875 -5.19799e-14 0)
(0.875 -4.61327e-14 0)
(0.875 1.77696e-14 0)
(0.875 -2.02298e-14 0)
(0.875 1.54319e-14 0)
(0.875 -1.25598e-14 0)
(0.875 9.77681e-15 0)
(0.875 -7.44114e-15 0)
(0.875 5.15682e-15 0)
(0.875 -3.13923e-15 0)
(0.875 1.36777e-15 0)
(0.875 4.15154e-16 0)
(0.875 -2.23186e-15 0)
(0.875 3.78612e-15 0)
(0.875 -6.28299e-15 0)
(0.875 2.18654e-15 0)
(0.875 -3.4999e-15 0)
(0.875 -2.28686e-13 0)
(0.875 -1.38051e-13 0)
(0.925 1.38747e-13 0)
(0.925 1.12053e-14 0)
(0.925 -2.26909e-14 0)
(0.925 1.27772e-14 0)
(0.925 -1.23347e-14 0)
(0.925 9.69382e-15 0)
(0.925 -7.81919e-15 0)
(0.925 6.08519e-15 0)
(0.925 -4.62374e-15 0)
(0.925 3.22077e-15 0)
(0.925 -1.95927e-15 0)
(0.925 8.44032e-16 0)
(0.925 2.67702e-16 0)
(0.925 -1.38674e-15 0)
(0.925 2.3955e-15 0)
(0.925 -3.77569e-15 0)
(0.925 2.74259e-15 0)
(0.925 -3.92865e-15 0)
(0.925 -7.37283e-14 0)
(0.925 -1.40481e-14 0)
(0.975 5.1803e-14 0)
(0.975 1.15673e-14 0)
(0.975 -6.25701e-15 0)
(0.975 4.40989e-15 0)
(0.975 -3.92057e-15 0)
(0.975 3.13286e-15 0)
(0.975 -2.51716e-15 0)
(0.975 1.95856e-15 0)
(0.975 -1.48396e-15 0)
(0.975 1.03649e-15 0)
(0.975 -6.33096e-16 0)
(0.975 2.72104e-16 0)
(0.975 8.83352e-17 0)
(0.975 -4.43515e-16 0)
(0.975 7.76623e-16 0)
(0.975 -1.18622e-15 0)
(0.975 1.14118e-15 0)
(0.975 -1.78435e-15 0)
(0.975 -9.63797e-15 0)
(0.975 1.03646e-14 0)
)
;

boundaryField
{
    top
    {
        type            fixedValue;
        value           uniform (1 0 0);
    }
    bottom
    {
        type            fixedValue;
        value           uniform (0 0 0);
    }
    inlet
    {
        type            zeroGradient;
    }
    outlet
    {
        type            zeroGradient;
    }
    frontAndBack
    {
        type            empty;
    }
}


// ************************************************************************* //
