/*--------------------------------*- C++ -*----------------------------------*\
| =========                 |                                                 |
| \\      /  F ield         | OpenFOAM: The Open Source CFD Toolbox           |
|  \\    /   O peration     | Version:  4.1                                   |
|   \\  /    A nd           | Web:      www.OpenFOAM.org                      |
|    \\/     M anipulation  |                                                 |
\*---------------------------------------------------------------------------*/
FoamFile
{
    version     2.0;
    format      ascii;
    class       surfaceScalarField;
    location    "1.5";
    object      phi;
}
// * * * * * * * * * * * * * * * * * * * * * * * * * * * * * * * * * * * * * //

dimensions      [0 3 -1 0 0 0 0];

internalField   nonuniform List<scalar> 
760
(
3.16632e-05
-7.02725e-12
3.16632e-05
-1.82205e-12
3.16632e-05
-2.39487e-12
3.16632e-05
1.70471e-12
3.16632e-05
-3.44052e-12
3.16632e-05
2.83875e-12
3.16632e-05
-4.22492e-12
3.16632e-05
2.60658e-12
3.16632e-05
-5.09602e-12
3.16632e-05
1.74893e-12
3.16632e-05
-5.81662e-12
3.16632e-05
1.41123e-13
3.16632e-05
-6.53256e-12
3.16632e-05
-1.9097e-12
3.16632e-05
-7.24016e-12
3.16632e-05
-3.64928e-12
3.16632e-05
-7.13187e-12
3.16632e-05
-4.31508e-12
3.16632e-05
-5.42656e-12
-7.07535e-12
8.86567e-05
-1.90301e-11
8.86567e-05
-8.56486e-12
8.86567e-05
-5.37352e-12
8.86567e-05
3.08376e-12
8.86567e-05
-5.55503e-12
8.86567e-05
5.57977e-12
8.86567e-05
-5.76284e-12
8.86567e-05
5.7134e-12
8.86567e-05
-5.91386e-12
8.86567e-05
5.36708e-12
8.86567e-05
-5.43147e-12
8.86567e-05
4.45861e-12
8.86567e-05
-4.68519e-12
8.86567e-05
3.39551e-12
8.86567e-05
-4.09411e-12
8.86567e-05
2.34547e-12
8.86567e-05
-3.16963e-12
8.86567e-05
6.24839e-13
8.86567e-05
-7.59102e-12
-1.67482e-11
0.000139317
-3.18925e-11
0.000139317
-1.75207e-11
0.000139317
-8.53384e-12
0.000139317
3.85754e-12
0.000139317
-6.69775e-12
0.000139317
7.40962e-12
0.000139317
-5.72361e-12
0.000139317
7.8495e-12
0.000139317
-4.69727e-12
0.000139317
8.23373e-12
0.000139317
-2.71377e-12
0.000139317
8.58384e-12
0.000139317
-3.69675e-13
0.000139317
9.28966e-12
0.000139317
1.43684e-12
0.000139317
9.41792e-12
0.000139317
2.78064e-12
0.000139317
6.48916e-12
0.000139317
-1.09773e-11
-2.80343e-11
0.000183646
-4.30516e-11
0.000183646
-2.59476e-11
0.000183646
-1.13498e-11
0.000183646
4.12805e-12
0.000183646
-7.19074e-12
0.000183646
8.3497e-12
0.000183646
-4.93365e-12
0.000183646
8.92093e-12
0.000183646
-2.77225e-12
0.000183646
9.91941e-12
0.000183646
4.49715e-13
0.000183646
1.14743e-11
0.000183646
3.96662e-12
0.000183646
1.39177e-11
0.000183646
6.474e-12
0.000183646
1.51748e-11
0.000183646
7.89526e-12
0.000183646
1.11308e-11
0.000183646
-1.4842e-11
-3.81742e-11
0.000221641
-5.07487e-11
0.000221641
-3.15244e-11
0.000221641
-1.32846e-11
0.000221641
4.15019e-12
0.000221641
-7.18911e-12
0.000221641
8.56432e-12
0.000221641
-3.71889e-12
0.000221641
9.0658e-12
0.000221641
-5.92684e-13
0.000221641
1.04733e-11
0.000221641
3.49411e-12
0.000221641
1.29998e-11
0.000221641
7.65351e-12
0.000221641
1.69046e-11
0.000221641
1.02649e-11
0.000221641
1.90284e-11
0.000221641
1.14589e-11
0.000221641
1.37656e-11
0.000221641
-1.84174e-11
-4.59715e-11
0.000253304
-5.38474e-11
0.000253304
-3.28364e-11
0.000253304
-1.38508e-11
0.000253304
4.11959e-12
0.000253304
-6.68611e-12
0.000253304
8.20433e-12
0.000253304
-2.15346e-12
0.000253304
8.50541e-12
0.000253304
1.78606e-12
0.000253304
1.01987e-11
0.000253304
6.45988e-12
0.000253304
1.35417e-11
0.000253304
1.09018e-11
0.000253304
1.87158e-11
0.000253304
1.32453e-11
0.000253304
2.15422e-11
0.000253304
1.41116e-11
0.000253304
1.48688e-11
0.000253304
-2.04186e-11
-5.01219e-11
0.000278634
-5.1936e-11
0.000278634
-2.92779e-11
0.000278634
-1.28217e-11
0.000278634
4.21196e-12
0.000278634
-5.76019e-12
0.000278634
7.45464e-12
0.000278634
-3.87803e-13
0.000278634
7.47629e-12
0.000278634
4.21517e-12
0.000278634
9.3752e-12
0.000278634
9.26826e-12
0.000278634
1.34031e-11
0.000278634
1.37616e-11
0.000278634
1.9669e-11
0.000278634
1.56389e-11
0.000278634
2.30667e-11
0.000278634
1.62191e-11
0.000278634
1.47552e-11
0.000278634
-2.0236e-11
-5.00829e-11
0.000297632
-4.53093e-11
0.000297632
-2.11164e-11
0.000297632
-1.02535e-11
0.000297632
4.51757e-12
0.000297632
-4.52129e-12
0.000297632
6.47507e-12
0.000297632
1.42714e-12
0.000297632
6.17809e-12
0.000297632
6.54327e-12
0.000297632
8.22145e-12
0.000297632
1.18221e-11
0.000297632
1.28021e-11
0.000297632
1.62342e-11
0.000297632
1.9972e-11
0.000297632
1.75829e-11
0.000297632
2.3827e-11
0.000297632
1.80031e-11
0.000297632
1.37168e-11
0.000297632
-1.777e-11
-4.59433e-11
0.000310297
-3.48368e-11
0.000310297
-9.35718e-12
0.000310297
-6.48766e-12
0.000310297
5.02688e-12
0.000310297
-3.10381e-12
0.000310297
5.39057e-12
0.000310297
3.15152e-12
0.000310297
4.76504e-12
0.000310297
8.62981e-12
0.000310297
6.89155e-12
0.000310297
1.40179e-11
0.000310297
1.18754e-11
0.000310297
1.82816e-11
0.000310297
1.97328e-11
0.000310297
1.91328e-11
0.000310297
2.39375e-11
0.000310297
1.95412e-11
0.000310297
1.20305e-11
0.000310297
-1.3317e-11
-3.83247e-11
0.000316629
-2.18421e-11
0.000316629
4.42017e-12
0.000316629
-2.08982e-12
0.000316629
5.64105e-12
0.000316629
-1.65333e-12
0.000316629
4.2909e-12
0.000316629
4.66725e-12
0.000316629
3.35104e-12
0.000316629
1.03585e-11
0.000316629
5.49005e-12
0.000316629
1.57627e-11
0.000316629
1.0705e-11
0.000316629
1.98502e-11
0.000316629
1.90007e-11
0.000316629
2.02934e-11
0.000316629
2.34504e-11
0.000316629
2.08077e-11
0.000316629
9.97468e-12
0.000316629
-7.45794e-12
-2.82558e-11
0.000316629
-7.92044e-12
0.000316629
1.83142e-11
0.000316629
2.25446e-12
0.000316629
6.20467e-12
0.000316629
-3.10859e-13
0.000316629
3.23647e-12
0.000316629
5.88332e-12
0.000316629
2.01845e-12
0.000316629
1.16431e-11
0.000316629
4.08966e-12
0.000316629
1.69842e-11
0.000316629
9.34681e-12
0.000316629
2.08878e-11
0.000316629
1.78066e-11
0.000316629
2.10439e-11
0.000316629
2.24011e-11
0.000316629
2.17216e-11
0.000316629
7.83312e-12
0.000316629
-9.34003e-13
-1.70075e-11
0.000310297
5.24948e-12
0.000310297
3.03767e-11
0.000310297
5.87202e-12
0.000310297
6.5507e-12
0.000310297
8.04268e-13
0.000310297
2.26568e-12
0.000310297
6.73688e-12
0.000310297
8.25169e-13
0.000310297
1.2427e-11
0.000310297
2.74366e-12
0.000310297
1.763e-11
0.000310297
7.84819e-12
0.000310297
2.13471e-11
0.000310297
1.61857e-11
0.000310297
2.13463e-11
0.000310297
2.08286e-11
0.000310297
2.21752e-11
0.000310297
5.86481e-12
0.000310297
5.44575e-12
-5.93278e-12
0.000297632
1.61014e-11
0.000297632
3.88964e-11
0.000297632
8.23559e-12
0.000297632
6.54574e-12
0.000297632
1.6092e-12
0.000297632
1.40175e-12
0.000297632
7.19108e-12
0.000297632
-1.90447e-13
0.000297632
1.26764e-11
0.000297632
1.49268e-12
0.000297632
1.76606e-11
0.000297632
6.25469e-12
0.000297632
2.1178e-11
0.000297632
1.41835e-11
0.000297632
2.11374e-11
0.000297632
1.87744e-11
0.000297632
2.20445e-11
0.000297632
4.25358e-12
0.000297632
1.08755e-11
3.68278e-12
0.000278634
2.33914e-11
0.000278634
4.26763e-11
0.000278634
9.06918e-12
0.000278634
6.12423e-12
0.000278634
2.06613e-12
0.000278634
6.58089e-13
0.000278634
7.22971e-12
0.000278634
-1.00705e-12
0.000278634
1.23703e-11
0.000278634
3.65559e-13
0.000278634
1.70349e-11
0.000278634
4.60614e-12
0.000278634
2.03094e-11
0.000278634
1.18449e-11
0.000278634
2.03063e-11
0.000278634
1.62588e-11
0.000278634
2.11738e-11
0.000278634
3.04188e-12
0.000278634
1.4613e-11
1.07543e-11
0.000253304
2.63577e-11
0.000253304
4.12353e-11
0.000253304
8.40809e-12
0.000253304
5.30263e-12
0.000253304
2.18279e-12
0.000253304
4.0916e-14
0.000253304
6.85086e-12
0.000253304
-1.61954e-12
0.000253304
1.14907e-11
0.000253304
-6.23555e-13
0.000253304
1.56977e-11
0.000253304
2.92658e-12
0.000253304
1.86327e-11
0.000253304
9.19425e-12
0.000253304
1.86728e-11
0.000253304
1.32525e-11
0.000253304
1.93523e-11
0.000253304
2.07403e-12
0.000253304
1.60247e-11
1.44952e-11
0.000221641
2.49038e-11
0.000221641
3.498e-11
0.000221641
6.59222e-12
0.000221641
4.17265e-12
0.000221641
2.00565e-12
0.000221641
-4.47087e-13
0.000221641
6.06206e-12
0.000221641
-2.03367e-12
0.000221641
1.00173e-11
0.000221641
-1.47073e-12
0.000221641
1.35767e-11
0.000221641
1.22562e-12
0.000221641
1.60018e-11
0.000221641
6.23259e-12
0.000221641
1.59887e-11
0.000221641
9.67075e-12
0.000221641
1.63113e-11
0.000221641
9.906e-13
0.000221641
1.46885e-11
1.45273e-11
0.000183646
1.96416e-11
0.000183646
2.52183e-11
0.000183646
4.19465e-12
0.000183646
2.87009e-12
0.000183646
1.60147e-12
0.000183646
-8.4274e-13
0.000183646
4.8694e-12
0.000183646
-2.33354e-12
0.000183646
7.90518e-12
0.000183646
-2.29651e-12
0.000183646
1.05319e-11
0.000183646
-6.72135e-13
0.000183646
1.21354e-11
0.000183646
2.70979e-12
0.000183646
1.1783e-11
0.000183646
5.11468e-12
0.000183646
1.15227e-11
0.000183646
-9.84716e-13
0.000183646
1.03329e-11
1.0861e-11
0.000139317
1.20207e-11
0.000139317
1.41119e-11
0.000139317
1.93836e-12
0.000139317
1.58357e-12
0.000139317
1.0997e-12
0.000139317
-1.034e-12
0.000139317
3.37195e-12
0.000139317
-2.30201e-12
0.000139317
5.31228e-12
0.000139317
-2.70571e-12
0.000139317
6.82731e-12
0.000139317
-2.14967e-12
0.000139317
7.45738e-12
0.000139317
-5.17094e-13
0.000139317
6.6506e-12
0.000139317
5.58635e-13
0.000139317
5.76178e-12
0.000139317
-3.29286e-12
0.000139317
4.1265e-12
4.72796e-12
8.86567e-05
4.12141e-12
8.86567e-05
4.55087e-12
8.86567e-05
5.0531e-13
8.86567e-05
4.56863e-13
8.86567e-05
5.6303e-13
8.86567e-05
-1.1236e-12
8.86567e-05
1.60526e-12
8.86567e-05
-2.15551e-12
8.86567e-05
2.23112e-12
8.86567e-05
-3.03007e-12
8.86567e-05
2.35467e-12
8.86567e-05
-3.67795e-12
8.86567e-05
1.68348e-12
8.86567e-05
-4.05306e-12
8.86567e-05
5.20517e-14
8.86567e-05
-4.73383e-12
8.86567e-05
-1.5986e-12
8.86567e-05
-7.01187e-12
8.86567e-05
-3.30928e-12
-2.74673e-12
3.16632e-05
3.16632e-05
3.16632e-05
3.16632e-05
3.16632e-05
3.16632e-05
3.16632e-05
3.16632e-05
3.16632e-05
3.16632e-05
3.16632e-05
3.16632e-05
3.16632e-05
3.16632e-05
3.16632e-05
3.16632e-05
3.16632e-05
3.16632e-05
3.16632e-05
)
;

boundaryField
{
    top
    {
        type            calculated;
        value           uniform 0;
    }
    bottom
    {
        type            calculated;
        value           uniform 0;
    }
    inlet
    {
        type            calculated;
        value           nonuniform List<scalar> 
20
(
-3.16631e-05
-8.86567e-05
-0.000139317
-0.000183646
-0.000221641
-0.000253304
-0.000278634
-0.000297632
-0.000310297
-0.000316629
-0.000316629
-0.000310297
-0.000297632
-0.000278634
-0.000253304
-0.000221641
-0.000183646
-0.000139317
-8.86567e-05
-3.16631e-05
)
;
    }
    outlet
    {
        type            calculated;
        value           nonuniform List<scalar> 
20
(
3.16632e-05
8.86567e-05
0.000139317
0.000183646
0.000221641
0.000253304
0.000278634
0.000297632
0.000310297
0.000316629
0.000316629
0.000310297
0.000297632
0.000278634
0.000253304
0.000221641
0.000183646
0.000139317
8.86567e-05
3.16632e-05
)
;
    }
    frontAndBack
    {
        type            empty;
        value           nonuniform 0();
    }
}


// ************************************************************************* //
