/*--------------------------------*- C++ -*----------------------------------*\
| =========                 |                                                 |
| \\      /  F ield         | OpenFOAM: The Open Source CFD Toolbox           |
|  \\    /   O peration     | Version:  4.1                                   |
|   \\  /    A nd           | Web:      www.OpenFOAM.org                      |
|    \\/     M anipulation  |                                                 |
\*---------------------------------------------------------------------------*/
FoamFile
{
    version     2.0;
    format      ascii;
    class       volVectorField;
    location    "1.5";
    object      U;
}
// * * * * * * * * * * * * * * * * * * * * * * * * * * * * * * * * * * * * * //

dimensions      [0 1 -1 0 0 0 0];

internalField   nonuniform List<vector> 
400
(
(0.633263 -2.85446e-09 0)
(0.633263 -1.1341e-09 0)
(0.633263 -5.11863e-10 0)
(0.633263 3.48312e-10 0)
(0.633263 -5.06222e-10 0)
(0.633263 7.41891e-10 0)
(0.633263 -4.78915e-10 0)
(0.633263 9.11377e-10 0)
(0.633263 -3.14885e-10 0)
(0.633263 1.14901e-09 0)
(0.633263 3.14844e-11 0)
(0.633263 1.33724e-09 0)
(0.633263 5.37071e-10 0)
(0.633263 1.64832e-09 0)
(0.633263 1.09209e-09 0)
(0.633263 2.01666e-09 0)
(0.633263 1.57579e-09 0)
(0.633263 1.93928e-09 0)
(0.633263 1.01915e-09 0)
(0.633263 -1.41534e-09 0)
(1.77313 -1.30651e-08 0)
(1.77313 -3.98158e-09 0)
(1.77313 -4.22825e-09 0)
(1.77313 2.97133e-09 0)
(1.77313 -5.57021e-09 0)
(1.77313 4.88788e-09 0)
(1.77313 -6.41418e-09 0)
(1.77313 4.6074e-09 0)
(1.77313 -7.398e-09 0)
(1.77313 3.54526e-09 0)
(1.77313 -8.06386e-09 0)
(1.77313 1.3257e-09 0)
(1.77313 -8.73275e-09 0)
(1.77313 -1.38074e-09 0)
(1.77313 -9.53418e-09 0)
(1.77313 -3.8536e-09 0)
(1.77313 -9.39678e-09 0)
(1.77313 -5.47506e-09 0)
(1.77313 -9.27218e-09 0)
(1.77313 -1.35064e-08 0)
(2.78635 -2.50428e-08 0)
(2.78635 -1.31145e-08 0)
(2.78635 -6.49825e-09 0)
(2.78635 3.22758e-09 0)
(2.78635 -5.40452e-09 0)
(2.78635 6.19974e-09 0)
(2.78635 -4.76022e-09 0)
(2.78635 6.73795e-09 0)
(2.78635 -3.8953e-09 0)
(2.78635 7.25654e-09 0)
(2.78635 -2.10542e-09 0)
(2.78635 7.69026e-09 0)
(2.78635 1.55912e-10 0)
(2.78635 8.48243e-09 0)
(2.78635 2.1419e-09 0)
(2.78635 8.96002e-09 0)
(2.78635 3.71918e-09 0)
(2.78635 6.84707e-09 0)
(2.78635 -6.17736e-09 0)
(2.78635 -2.03671e-08 0)
(3.67291 -3.81202e-08 0)
(3.67291 -2.21211e-08 0)
(3.67291 -1.00612e-08 0)
(3.67291 4.02639e-09 0)
(3.67291 -7.08948e-09 0)
(3.67291 7.91171e-09 0)
(3.67291 -5.52932e-09 0)
(3.67291 8.35133e-09 0)
(3.67291 -4.03161e-09 0)
(3.67291 8.88684e-09 0)
(3.67291 -1.56552e-09 0)
(3.67291 9.62444e-09 0)
(3.67291 1.16801e-09 0)
(3.67291 1.09267e-08 0)
(3.67291 3.08658e-09 0)
(3.67291 1.13536e-08 0)
(3.67291 4.28386e-09 0)
(3.67291 7.76134e-09 0)
(3.67291 -1.40092e-08 0)
(3.67291 -3.4304e-08 0)
(4.43282 -4.78254e-08 0)
(4.43282 -2.97313e-08 0)
(4.43282 -1.252e-08 0)
(4.43282 4.03607e-09 0)
(4.43282 -7.16432e-09 0)
(4.43282 8.38749e-09 0)
(4.43282 -4.28884e-09 0)
(4.43282 8.90859e-09 0)
(4.43282 -1.65133e-09 0)
(4.43282 1.00747e-08 0)
(4.43282 1.97889e-09 0)
(4.43282 1.2084e-08 0)
(4.43282 5.77304e-09 0)
(4.43282 1.52206e-08 0)
(4.43282 8.27191e-09 0)
(4.43282 1.68835e-08 0)
(4.43282 9.50144e-09 0)
(4.43282 1.22918e-08 0)
(4.43282 -1.72347e-08 0)
(4.43282 -4.30018e-08 0)
(5.06607 -5.33998e-08 0)
(5.06607 -3.34161e-08 0)
(5.06608 -1.39013e-08 0)
(5.06607 4.00926e-09 0)
(5.06608 -6.9454e-09 0)
(5.06607 8.32976e-09 0)
(5.06608 -2.92419e-09 0)
(5.06607 8.71385e-09 0)
(5.06608 5.97225e-10 0)
(5.06607 1.02321e-08 0)
(5.06608 4.94351e-09 0)
(5.06607 1.31271e-08 0)
(5.06608 9.18855e-09 0)
(5.06607 1.76187e-08 0)
(5.06608 1.15913e-08 0)
(5.06607 2.0052e-08 0)
(5.06608 1.25295e-08 0)
(5.06608 1.41739e-08 0)
(5.06608 -2.0184e-08 0)
(5.06608 -4.91911e-08 0)
(5.57268 -5.39916e-08 0)
(5.57268 -3.231e-08 0)
(5.57268 -1.37208e-08 0)
(5.57268 4.03004e-09 0)
(5.57268 -6.24582e-09 0)
(5.57268 7.78337e-09 0)
(5.57268 -1.26771e-09 0)
(5.57268 7.93186e-09 0)
(5.57268 2.99163e-09 0)
(5.57268 9.69982e-09 0)
(5.57268 7.81951e-09 0)
(5.57268 1.33498e-08 0)
(5.57268 1.22316e-08 0)
(5.57268 1.90291e-08 0)
(5.57268 1.42682e-08 0)
(5.57268 2.21044e-08 0)
(5.57268 1.4905e-08 0)
(5.57268 1.47208e-08 0)
(5.57268 -2.10784e-08 0)
(5.57268 -5.12556e-08 0)
(5.95263 -4.95796e-08 0)
(5.95263 -2.62682e-08 0)
(5.95263 -1.18907e-08 0)
(5.95263 4.24256e-09 0)
(5.95263 -5.1691e-09 0)
(5.95263 6.92715e-09 0)
(5.95263 5.15945e-10 0)
(5.95263 6.77691e-09 0)
(5.95263 5.36227e-09 0)
(5.95263 8.72389e-09 0)
(5.95263 1.04912e-08 0)
(5.95263 1.29976e-08 0)
(5.95263 1.48885e-08 0)
(5.95263 1.96814e-08 0)
(5.95263 1.64291e-08 0)
(5.95263 2.32747e-08 0)
(5.95263 1.68567e-08 0)
(5.95263 1.41654e-08 0)
(5.95263 -1.96582e-08 0)
(5.95263 -4.90494e-08 0)
(6.20593 -4.07728e-08 0)
(6.20593 -1.59676e-08 0)
(6.20593 -8.61614e-09 0)
(6.20593 4.68602e-09 0)
(6.20593 -3.8365e-09 0)
(6.20593 5.90214e-09 0)
(6.20593 2.28178e-09 0)
(6.20593 5.42622e-09 0)
(6.20593 7.56313e-09 0)
(6.20593 7.4898e-09 0)
(6.20593 1.28573e-08 0)
(6.20593 1.22449e-08 0)
(6.20593 1.71387e-08 0)
(6.20593 1.9729e-08 0)
(6.20593 1.81671e-08 0)
(6.20593 2.37263e-08 0)
(6.20593 1.85293e-08 0)
(6.20593 1.27872e-08 0)
(6.20593 -1.60547e-08 0)
(6.20593 -4.29525e-08 0)
(6.33258 -2.87033e-08 0)
(6.33258 -2.75463e-09 0)
(6.33258 -4.37325e-09 0)
(6.33258 5.30032e-09 0)
(6.33258 -2.39023e-09 0)
(6.33258 4.81645e-09 0)
(6.33258 3.90034e-09 0)
(6.33258 4.01581e-09 0)
(6.33258 9.46595e-09 0)
(6.33258 6.1296e-09 0)
(6.33258 1.48207e-08 0)
(6.33258 1.12044e-08 0)
(6.33258 1.8939e-08 0)
(6.33258 1.92547e-08 0)
(6.33258 1.95165e-08 0)
(6.33258 2.35469e-08 0)
(6.33258 1.99504e-08 0)
(6.33258 1.08747e-08 0)
(6.33258 -1.07274e-08 0)
(6.33258 -3.38224e-08 0)
(6.33258 -1.48716e-08 0)
(6.33258 1.15641e-08 0)
(6.33258 1.78999e-10 0)
(6.33258 5.94746e-09 0)
(6.33258 -9.77862e-10 0)
(6.33258 3.74523e-09 0)
(6.33258 5.26582e-09 0)
(6.33258 2.64522e-09 0)
(6.33258 1.09686e-08 0)
(6.33258 4.73342e-09 0)
(6.33258 1.62981e-08 0)
(6.33258 9.94671e-09 0)
(6.33258 2.0236e-08 0)
(6.33258 1.82994e-08 0)
(6.33258 2.04685e-08 0)
(6.33258 2.27813e-08 0)
(6.33258 2.10615e-08 0)
(6.33258 8.71894e-09 0)
(6.33258 -4.36012e-09 0)
(6.33258 -2.28489e-08 0)
(6.20593 -9.58791e-10 0)
(6.20593 2.49942e-08 0)
(6.20593 4.3235e-09 0)
(6.20593 6.45309e-09 0)
(6.20593 2.65219e-10 0)
(6.20593 2.73849e-09 0)
(6.20593 6.2998e-09 0)
(6.20593 1.38646e-09 0)
(6.20593 1.19986e-08 0)
(6.20593 3.36646e-09 0)
(6.20593 1.72266e-08 0)
(6.20593 8.52565e-09 0)
(6.20593 2.09801e-08 0)
(6.20593 1.68985e-08 0)
(6.20593 2.09943e-08 0)
(6.20593 2.14699e-08 0)
(6.20593 2.1764e-08 0)
(6.20593 6.60555e-09 0)
(6.20593 2.25487e-09 0)
(6.20593 -1.1383e-08 0)
(5.95263 1.13678e-08 0)
(5.95263 3.56394e-08 0)
(5.95263 7.42591e-09 0)
(5.95263 6.65633e-09 0)
(5.95263 1.23349e-09 0)
(5.95263 1.82734e-09 0)
(5.95263 6.95167e-09 0)
(5.95263 2.8946e-10 0)
(5.95263 1.25109e-08 0)
(5.95263 2.07794e-09 0)
(5.95263 1.75615e-08 0)
(5.95263 6.99065e-09 0)
(5.95263 2.11246e-08 0)
(5.95263 1.50962e-08 0)
(5.95263 2.10459e-08 0)
(5.95263 1.96587e-08 0)
(5.95263 2.1941e-08 0)
(5.95263 4.77205e-09 0)
(5.95263 8.29523e-09 0)
(5.95263 -7.80449e-10 0)
(5.57268 2.06621e-08 0)
(5.57268 4.19891e-08 0)
(5.57268 9.06071e-09 0)
(5.57268 6.45316e-09 0)
(5.57268 1.86352e-09 0)
(5.57268 1.03041e-09 0)
(5.57268 7.1931e-09 0)
(5.57268 -6.16317e-10 0)
(5.57268 1.24761e-08 0)
(5.57268 9.01386e-10 0)
(5.57268 1.72591e-08 0)
(5.57268 5.382e-09 0)
(5.57268 2.06044e-08 0)
(5.57268 1.29338e-08 0)
(5.57268 2.05305e-08 0)
(5.57268 1.73748e-08 0)
(5.57268 2.14437e-08 0)
(5.57268 3.33766e-09 0)
(5.57268 1.29671e-08 0)
(5.57268 7.74087e-09 0)
(5.06608 2.58862e-08 0)
(5.06607 4.31621e-08 0)
(5.06608 9.09874e-09 0)
(5.06607 5.81828e-09 0)
(5.06608 2.13995e-09 0)
(5.06607 3.55999e-10 0)
(5.06608 7.01516e-09 0)
(5.06607 -1.31908e-09 0)
(5.06608 1.18748e-08 0)
(5.06607 -1.43651e-10 0)
(5.06608 1.62717e-08 0)
(5.06607 3.72971e-09 0)
(5.06608 1.93302e-08 0)
(5.06607 1.04451e-08 0)
(5.06608 1.93034e-08 0)
(5.06607 1.46153e-08 0)
(5.06608 2.00917e-08 0)
(5.06607 2.25533e-09 0)
(5.06607 1.55723e-08 0)
(5.06607 1.32271e-08 0)
(4.43282 2.65765e-08 0)
(4.43282 3.90839e-08 0)
(4.43282 7.73628e-09 0)
(4.43282 4.81114e-09 0)
(4.43282 2.0942e-09 0)
(4.43282 -1.78646e-10 0)
(4.43282 6.42486e-09 0)
(4.43282 -1.79575e-09 0)
(4.43282 1.06985e-08 0)
(4.43282 -1.00965e-09 0)
(4.43282 1.45585e-08 0)
(4.43282 2.10796e-09 0)
(4.43282 1.72168e-08 0)
(4.43282 7.72021e-09 0)
(4.43282 1.72156e-08 0)
(4.43282 1.14163e-08 0)
(4.43282 1.77237e-08 0)
(4.43282 1.35546e-09 0)
(4.43282 1.56071e-08 0)
(4.43282 1.50987e-08 0)
(3.67291 2.28997e-08 0)
(3.67291 3.06355e-08 0)
(3.67291 5.41209e-09 0)
(3.67291 3.51756e-09 0)
(3.67291 1.741e-09 0)
(3.67291 -7.61639e-10 0)
(3.67291 5.36311e-09 0)
(3.67291 -2.43377e-09 0)
(3.67291 8.75237e-09 0)
(3.67291 -2.32484e-09 0)
(3.67291 1.16643e-08 0)
(3.67291 -4.18859e-10 0)
(3.67291 1.34114e-08 0)
(3.67291 3.47978e-09 0)
(3.67291 1.29168e-08 0)
(3.67291 6.1521e-09 0)
(3.67291 1.27546e-08 0)
(3.67291 -1.26393e-09 0)
(3.67291 1.18995e-08 0)
(3.67291 1.2691e-08 0)
(2.78635 1.60633e-08 0)
(2.78635 1.93703e-08 0)
(2.78635 2.99811e-09 0)
(2.78635 2.3013e-09 0)
(2.78635 1.42127e-09 0)
(2.78635 -4.49785e-10 0)
(2.78635 4.26407e-09 0)
(2.78635 -1.36684e-09 0)
(2.78635 7.02249e-09 0)
(2.78635 -9.33135e-10 0)
(2.78635 9.62882e-09 0)
(2.78635 9.32491e-10 0)
(2.78635 1.15845e-08 0)
(2.78635 4.28629e-09 0)
(2.78635 1.20453e-08 0)
(2.78635 6.72928e-09 0)
(2.78635 1.20955e-08 0)
(2.78635 1.82083e-09 0)
(2.78635 9.84892e-09 0)
(2.78635 9.74796e-09 0)
(1.77313 7.76421e-09 0)
(1.77313 9.05139e-09 0)
(1.77313 8.46205e-10 0)
(1.77313 8.81425e-10 0)
(1.77313 7.09997e-10 0)
(1.77313 -1.67543e-09 0)
(1.77313 2.41421e-09 0)
(1.77313 -3.41482e-09 0)
(1.77313 3.47501e-09 0)
(1.77313 -4.81669e-09 0)
(1.77313 3.77403e-09 0)
(1.77313 -5.77224e-09 0)
(1.77313 2.86423e-09 0)
(1.77313 -6.0847e-09 0)
(1.77313 4.93565e-10 0)
(1.77313 -6.58899e-09 0)
(1.77313 -1.5371e-09 0)
(1.77313 -9.55148e-09 0)
(1.77313 -2.36088e-09 0)
(1.77313 -6.3651e-10 0)
(0.633263 2.05927e-09 0)
(0.633263 1.77827e-09 0)
(0.633263 2.24731e-10 0)
(0.633263 3.07555e-10 0)
(0.633263 2.96201e-10 0)
(0.633263 1.05614e-10 0)
(0.633263 7.75005e-10 0)
(0.633263 2.03989e-10 0)
(0.633263 1.30246e-09 0)
(0.633263 5.47217e-10 0)
(0.633263 1.91479e-09 0)
(0.633263 1.15529e-09 0)
(0.633263 2.54469e-09 0)
(0.633263 1.94712e-09 0)
(0.633263 3.01939e-09 0)
(0.633263 2.42789e-09 0)
(0.633263 3.08691e-09 0)
(0.633263 1.5382e-09 0)
(0.633263 1.50577e-09 0)
(0.633263 8.17698e-10 0)
)
;

boundaryField
{
    top
    {
        type            fixedValue;
        value           uniform (0 0 0);
    }
    bottom
    {
        type            fixedValue;
        value           uniform (0 0 0);
    }
    inlet
    {
        type            zeroGradient;
    }
    outlet
    {
        type            zeroGradient;
    }
    frontAndBack
    {
        type            empty;
    }
}


// ************************************************************************* //
