/*--------------------------------*- C++ -*----------------------------------*\
| =========                 |                                                 |
| \\      /  F ield         | OpenFOAM: The Open Source CFD Toolbox           |
|  \\    /   O peration     | Version:  4.1                                   |
|   \\  /    A nd           | Web:      www.OpenFOAM.org                      |
|    \\/     M anipulation  |                                                 |
\*---------------------------------------------------------------------------*/
FoamFile
{
    version     2.0;
    format      ascii;
    class       volScalarField;
    location    "2.4";
    object      p;
}
// * * * * * * * * * * * * * * * * * * * * * * * * * * * * * * * * * * * * * //

dimensions      [0 2 -2 0 0 0 0];

internalField   nonuniform List<scalar> 
400
(
2.42064e-09
2.70134e-09
2.3055e-09
2.46544e-09
2.17408e-09
2.25795e-09
2.03754e-09
2.0607e-09
1.89349e-09
1.8696e-09
1.74463e-09
1.68215e-09
1.59317e-09
1.49638e-09
1.44092e-09
1.31061e-09
1.29012e-09
1.12645e-09
1.15208e-09
1.0868e-09
2.41186e-09
2.69233e-09
2.30483e-09
2.46526e-09
2.17409e-09
2.25792e-09
2.03756e-09
2.06068e-09
1.8935e-09
1.86959e-09
1.74463e-09
1.68215e-09
1.59316e-09
1.49638e-09
1.44091e-09
1.31061e-09
1.29002e-09
1.12652e-09
1.14608e-09
1.08045e-09
2.40689e-09
2.68595e-09
2.304e-09
2.46524e-09
2.17398e-09
2.25799e-09
2.0375e-09
2.06073e-09
1.89347e-09
1.86962e-09
1.74462e-09
1.68216e-09
1.59317e-09
1.49637e-09
1.44092e-09
1.31058e-09
1.28998e-09
1.12645e-09
1.14136e-09
1.07609e-09
2.40533e-09
2.68296e-09
2.30322e-09
2.46527e-09
2.17386e-09
2.25807e-09
2.03743e-09
2.06078e-09
1.89343e-09
1.86965e-09
1.7446e-09
1.68217e-09
1.59317e-09
1.49636e-09
1.44094e-09
1.31054e-09
1.28996e-09
1.12629e-09
1.13865e-09
1.07386e-09
2.40583e-09
2.68234e-09
2.30248e-09
2.46528e-09
2.17376e-09
2.25814e-09
2.03738e-09
2.06083e-09
1.8934e-09
1.86967e-09
1.74459e-09
1.68217e-09
1.59317e-09
1.49635e-09
1.44096e-09
1.31051e-09
1.28995e-09
1.12608e-09
1.13752e-09
1.07309e-09
2.40767e-09
2.68331e-09
2.30175e-09
2.46529e-09
2.17368e-09
2.25819e-09
2.03733e-09
2.06086e-09
1.89337e-09
1.86969e-09
1.74457e-09
1.68218e-09
1.59317e-09
1.49635e-09
1.44097e-09
1.31049e-09
1.28995e-09
1.12585e-09
1.13764e-09
1.07345e-09
2.41046e-09
2.68538e-09
2.301e-09
2.46528e-09
2.17362e-09
2.25823e-09
2.0373e-09
2.06089e-09
1.89335e-09
1.8697e-09
1.74457e-09
1.68218e-09
1.59317e-09
1.49634e-09
1.44099e-09
1.31047e-09
1.28995e-09
1.12561e-09
1.13881e-09
1.07476e-09
2.41375e-09
2.68807e-09
2.30022e-09
2.46527e-09
2.17356e-09
2.25826e-09
2.03727e-09
2.06091e-09
1.89333e-09
1.86971e-09
1.74456e-09
1.68218e-09
1.59317e-09
1.49634e-09
1.44099e-09
1.31046e-09
1.28996e-09
1.12538e-09
1.14079e-09
1.07675e-09
2.41708e-09
2.6909e-09
2.29943e-09
2.46523e-09
2.17352e-09
2.25828e-09
2.03725e-09
2.06092e-09
1.89332e-09
1.86972e-09
1.74456e-09
1.68219e-09
1.59317e-09
1.49633e-09
1.441e-09
1.31045e-09
1.28997e-09
1.12518e-09
1.14326e-09
1.07911e-09
2.42001e-09
2.69343e-09
2.29861e-09
2.46518e-09
2.17349e-09
2.25829e-09
2.03725e-09
2.06093e-09
1.89332e-09
1.86972e-09
1.74455e-09
1.68219e-09
1.59317e-09
1.49633e-09
1.44101e-09
1.31045e-09
1.28997e-09
1.12503e-09
1.1459e-09
1.08153e-09
2.42218e-09
2.69529e-09
2.29778e-09
2.4651e-09
2.17347e-09
2.25829e-09
2.03725e-09
2.06093e-09
1.89332e-09
1.86972e-09
1.74455e-09
1.68219e-09
1.59318e-09
1.49633e-09
1.44101e-09
1.31045e-09
1.28997e-09
1.12493e-09
1.1484e-09
1.0837e-09
2.42333e-09
2.69618e-09
2.29696e-09
2.46499e-09
2.17347e-09
2.25827e-09
2.03726e-09
2.06092e-09
1.89333e-09
1.86972e-09
1.74456e-09
1.68218e-09
1.59318e-09
1.49633e-09
1.44101e-09
1.31046e-09
1.28995e-09
1.12488e-09
1.15045e-09
1.08533e-09
2.42326e-09
2.69595e-09
2.29617e-09
2.46486e-09
2.17348e-09
2.25825e-09
2.03728e-09
2.0609e-09
1.89334e-09
1.86971e-09
1.74456e-09
1.68218e-09
1.59318e-09
1.49633e-09
1.441e-09
1.31047e-09
1.28993e-09
1.12489e-09
1.15182e-09
1.0862e-09
2.42193e-09
2.69455e-09
2.29542e-09
2.4647e-09
2.1735e-09
2.25821e-09
2.0373e-09
2.06088e-09
1.89336e-09
1.8697e-09
1.74457e-09
1.68218e-09
1.59318e-09
1.49634e-09
1.441e-09
1.31049e-09
1.28989e-09
1.12494e-09
1.15232e-09
1.08615e-09
2.41942e-09
2.69207e-09
2.29475e-09
2.46452e-09
2.17353e-09
2.25816e-09
2.03734e-09
2.06085e-09
1.89338e-09
1.86968e-09
1.74458e-09
1.68217e-09
1.59318e-09
1.49634e-09
1.44099e-09
1.31051e-09
1.28984e-09
1.12502e-09
1.15185e-09
1.0851e-09
2.41595e-09
2.68878e-09
2.29417e-09
2.46432e-09
2.17358e-09
2.2581e-09
2.03738e-09
2.06082e-09
1.8934e-09
1.86966e-09
1.74459e-09
1.68217e-09
1.59318e-09
1.49635e-09
1.44098e-09
1.31052e-09
1.28977e-09
1.12512e-09
1.15045e-09
1.08309e-09
2.41182e-09
2.68504e-09
2.29371e-09
2.4641e-09
2.17364e-09
2.25803e-09
2.03744e-09
2.06077e-09
1.89344e-09
1.86964e-09
1.74461e-09
1.68216e-09
1.59317e-09
1.49636e-09
1.44096e-09
1.31055e-09
1.28969e-09
1.12524e-09
1.14823e-09
1.08021e-09
2.40763e-09
2.68154e-09
2.29339e-09
2.46387e-09
2.17373e-09
2.25794e-09
2.03751e-09
2.06072e-09
1.89348e-09
1.86961e-09
1.74463e-09
1.68215e-09
1.59317e-09
1.49637e-09
1.44094e-09
1.31057e-09
1.28959e-09
1.12537e-09
1.14543e-09
1.07671e-09
2.4044e-09
2.67894e-09
2.29316e-09
2.46366e-09
2.17381e-09
2.25787e-09
2.03757e-09
2.06067e-09
1.89351e-09
1.86958e-09
1.74464e-09
1.68214e-09
1.59317e-09
1.49638e-09
1.44092e-09
1.31059e-09
1.28949e-09
1.12547e-09
1.14226e-09
1.07293e-09
2.40381e-09
2.6778e-09
2.29286e-09
2.46361e-09
2.17376e-09
2.25789e-09
2.03754e-09
2.06069e-09
1.8935e-09
1.86959e-09
1.74464e-09
1.68215e-09
1.59317e-09
1.49637e-09
1.44093e-09
1.31058e-09
1.28943e-09
1.12551e-09
1.13929e-09
1.07001e-09
)
;

boundaryField
{
    top
    {
        type            zeroGradient;
    }
    bottom
    {
        type            zeroGradient;
    }
    inlet
    {
        type            fixedValue;
        value           uniform 0;
    }
    outlet
    {
        type            fixedValue;
        value           uniform 0;
    }
    frontAndBack
    {
        type            empty;
    }
}


// ************************************************************************* //
