/*--------------------------------*- C++ -*----------------------------------*\
| =========                 |                                                 |
| \\      /  F ield         | OpenFOAM: The Open Source CFD Toolbox           |
|  \\    /   O peration     | Version:  4.1                                   |
|   \\  /    A nd           | Web:      www.OpenFOAM.org                      |
|    \\/     M anipulation  |                                                 |
\*---------------------------------------------------------------------------*/
FoamFile
{
    version     2.0;
    format      ascii;
    class       surfaceScalarField;
    location    "2.4";
    object      phi;
}
// * * * * * * * * * * * * * * * * * * * * * * * * * * * * * * * * * * * * * //

dimensions      [0 3 -1 0 0 0 0];

internalField   nonuniform List<scalar> 
760
(
1.25e-06
-3.76214e-15
1.25e-06
-2.58362e-15
1.25e-06
3.19243e-17
1.25e-06
-1.82644e-16
1.25e-06
1.21622e-16
1.25e-06
-1.02865e-16
1.25e-06
8.13474e-17
1.25e-06
-6.36778e-17
1.25e-06
4.78309e-17
1.25e-06
-3.36412e-17
1.25e-06
2.06637e-17
1.25e-06
-8.53649e-18
1.25e-06
-3.02643e-18
1.25e-06
1.42766e-17
1.25e-06
-2.59894e-17
1.25e-06
3.55951e-17
1.25e-06
-6.80096e-17
1.25e-06
9.59743e-17
1.25e-06
-1.54789e-15
-2.28217e-15
3.74999e-06
-1.13708e-14
3.74999e-06
-9.04082e-15
3.74999e-06
-1.88192e-16
3.74999e-06
-4.44548e-16
3.74999e-06
2.54903e-16
3.74999e-06
-2.22904e-16
3.74999e-06
1.74661e-16
3.74999e-06
-1.369e-16
3.74999e-06
1.02666e-16
3.74999e-06
-7.20746e-17
3.74999e-06
4.40756e-17
3.74999e-06
-1.78707e-17
3.74999e-06
-7.11082e-18
3.74999e-06
3.13342e-17
3.74999e-06
-5.73104e-17
3.74999e-06
7.45436e-17
3.74999e-06
-1.78793e-16
3.74999e-06
2.53378e-16
3.74999e-06
-5.70143e-15
-7.36857e-15
6.24998e-06
-2.05714e-14
6.24998e-06
-1.7826e-14
6.24998e-06
-6.97025e-16
6.24998e-06
-6.82138e-16
6.24998e-06
3.27945e-16
6.24998e-06
-2.99753e-16
6.24998e-06
2.321e-16
6.24998e-06
-1.82241e-16
6.24998e-06
1.36388e-16
6.24998e-06
-9.55278e-17
6.24998e-06
5.809e-17
6.24998e-06
-2.29872e-17
6.24998e-06
-1.04703e-17
6.24998e-06
4.27702e-17
6.24998e-06
-7.86975e-17
6.24998e-06
9.59557e-17
6.24998e-06
-2.95079e-16
6.24998e-06
4.25153e-16
6.24998e-06
-1.17093e-14
-1.40883e-14
8.74997e-06
-2.9976e-14
8.74997e-06
-2.74229e-14
8.74997e-06
-1.39871e-15
8.74997e-06
-8.85393e-16
8.74997e-06
3.48269e-16
8.74997e-06
-3.37452e-16
8.74997e-06
2.57379e-16
8.74997e-06
-2.02568e-16
8.74997e-06
1.51219e-16
8.74997e-06
-1.05631e-16
8.74997e-06
6.38073e-17
8.74997e-06
-2.4502e-17
8.74997e-06
-1.29482e-17
8.74997e-06
4.89022e-17
8.74997e-06
-9.07115e-17
8.74997e-06
1.0197e-16
8.74997e-06
-4.09033e-16
8.74997e-06
5.99566e-16
8.74997e-06
-1.86852e-14
-2.15567e-14
1.125e-05
-3.83881e-14
1.125e-05
-3.64962e-14
1.125e-05
-2.19047e-15
1.125e-05
-1.04357e-15
1.125e-05
3.24151e-16
1.125e-05
-3.40438e-16
1.125e-05
2.54579e-16
1.125e-05
-2.01012e-16
1.125e-05
1.49577e-16
1.125e-05
-1.04147e-16
1.125e-05
6.23885e-17
1.125e-05
-2.30325e-17
1.125e-05
-1.44468e-17
1.125e-05
5.01663e-17
1.125e-05
-9.40705e-17
1.125e-05
9.48917e-17
1.125e-05
-5.12317e-16
1.125e-05
7.65369e-16
1.125e-05
-2.57777e-14
-2.89276e-14
1.375e-05
-4.48911e-14
1.375e-05
-4.39865e-14
1.375e-05
-2.97135e-15
1.375e-05
-1.1471e-15
1.375e-05
2.64409e-16
1.375e-05
-3.13587e-16
1.375e-05
2.28094e-16
1.375e-05
-1.8097e-16
1.375e-05
1.34071e-16
1.375e-05
-9.29493e-17
1.375e-05
5.50558e-17
1.375e-05
-1.91965e-17
1.375e-05
-1.49223e-17
1.375e-05
4.71034e-17
1.375e-05
-8.96854e-17
1.375e-05
7.71641e-17
1.375e-05
-5.97033e-16
1.375e-05
9.10836e-16
1.375e-05
-3.2218e-14
-3.54397e-14
1.625e-05
-4.88521e-14
1.625e-05
-4.91225e-14
1.625e-05
-3.65095e-15
1.625e-05
-1.1889e-15
1.625e-05
1.78135e-16
1.625e-05
-2.62156e-16
1.625e-05
1.82607e-16
1.625e-05
-1.46033e-16
1.625e-05
1.07439e-16
1.625e-05
-7.39952e-17
1.625e-05
4.30565e-17
1.625e-05
-1.35961e-17
1.625e-05
-1.43868e-17
1.625e-05
4.03551e-17
1.625e-05
-7.86332e-17
1.625e-05
5.12989e-17
1.625e-05
-6.56447e-16
1.625e-05
1.02397e-15
1.625e-05
-3.73721e-14
-4.04705e-14
1.87499e-05
-4.99555e-14
1.87499e-05
-5.14624e-14
1.87499e-05
-4.15712e-15
1.87499e-05
-1.16565e-15
1.87499e-05
7.43874e-17
1.87499e-05
-1.9173e-16
1.87499e-05
1.22972e-16
1.87499e-05
-9.99381e-17
1.87499e-05
7.25272e-17
1.87499e-05
-4.93152e-17
1.87499e-05
2.76769e-17
1.87499e-05
-6.81547e-18
1.87499e-05
-1.29338e-17
1.87499e-05
3.06802e-17
1.87499e-05
-6.21642e-17
1.87499e-05
1.98461e-17
1.87499e-05
-6.85639e-16
1.87499e-05
1.0935e-15
1.87499e-05
-4.07759e-14
-4.35718e-14
2.12499e-05
-4.81881e-14
2.12499e-05
-5.08847e-14
2.12499e-05
-4.44214e-15
2.12499e-05
-1.07863e-15
2.12499e-05
-3.80256e-17
2.12499e-05
-1.08178e-16
2.12499e-05
5.41904e-17
2.12499e-05
-4.65506e-17
2.12499e-05
3.22453e-17
2.12499e-05
-2.09506e-17
2.12499e-05
1.01848e-17
2.12499e-05
5.86228e-19
2.12499e-05
-1.06935e-17
2.12499e-05
1.89029e-17
2.12499e-05
-4.16799e-17
2.12499e-05
-1.46436e-17
2.12499e-05
-6.81978e-16
2.12499e-05
1.11039e-15
2.12499e-05
-4.21586e-14
-4.4495e-14
2.37499e-05
-4.38237e-14
2.37499e-05
-4.75768e-14
2.37499e-05
-4.48617e-15
2.37499e-05
-9.342e-16
2.37499e-05
-1.50794e-16
2.37499e-05
-1.75678e-17
2.37499e-05
-1.87365e-17
2.37499e-05
1.02615e-17
2.37499e-05
-1.04591e-17
2.37499e-05
9.02087e-18
2.37499e-05
-8.16947e-18
2.37499e-05
8.09732e-18
2.37499e-05
-7.85007e-18
2.37499e-05
5.8949e-18
2.37499e-05
-1.8712e-17
2.37499e-05
-4.96491e-17
2.37499e-05
-6.45472e-16
2.37499e-05
1.06971e-15
2.37499e-05
-4.14519e-14
-4.32017e-14
2.62499e-05
-3.73806e-14
2.62499e-05
-4.19944e-14
2.62499e-05
-4.29768e-15
2.62499e-05
-7.43822e-16
2.62499e-05
-2.56211e-16
2.62499e-05
7.38736e-17
2.62499e-05
-9.07801e-17
2.62499e-05
6.65834e-17
2.62499e-05
-5.26832e-17
2.62499e-05
3.85763e-17
2.62499e-05
-2.61341e-17
2.62499e-05
1.52311e-17
2.62499e-05
-4.64324e-18
2.62499e-05
-7.39838e-18
2.62499e-05
5.10668e-18
2.62499e-05
-8.27344e-17
2.62499e-05
-5.7889e-16
2.62499e-05
9.72101e-16
2.62499e-05
-3.87844e-14
-3.98597e-14
2.87499e-05
-2.95649e-14
2.87499e-05
-3.48023e-14
2.87499e-05
-3.91064e-15
2.87499e-05
-5.23513e-16
2.87499e-05
-3.47322e-16
2.87499e-05
1.59833e-16
2.87499e-05
-1.57003e-16
2.87499e-05
1.18585e-16
2.87499e-05
-9.15593e-17
2.87499e-05
6.57068e-17
2.87499e-05
-4.25064e-17
2.87499e-05
2.1534e-17
2.87499e-05
-1.33577e-18
2.87499e-05
-2.00122e-17
2.87499e-05
2.80706e-17
2.87499e-05
-1.11555e-16
2.87499e-05
-4.87698e-16
2.87499e-05
8.24884e-16
2.87499e-05
-3.44606e-14
-3.48218e-14
3.12499e-05
-2.12039e-14
3.12499e-05
-2.6804e-14
3.12499e-05
-3.37839e-15
3.12499e-05
-2.9286e-16
3.12499e-05
-4.17864e-16
3.12499e-05
2.34007e-16
3.12499e-05
-2.12631e-16
3.12499e-05
1.62486e-16
3.12499e-05
-1.24236e-16
3.12499e-05
8.84366e-17
3.12499e-05
-5.61357e-17
3.12499e-05
2.65874e-17
3.12499e-05
1.78233e-18
3.12499e-05
-3.09864e-17
3.12499e-05
4.84379e-17
3.12499e-05
-1.33886e-16
3.12499e-05
-3.79737e-16
3.12499e-05
6.42e-16
3.12499e-05
-2.89305e-14
-2.85952e-14
3.375e-05
-1.31535e-14
3.375e-05
-1.88428e-14
3.375e-05
-2.76544e-15
3.375e-05
-7.3639e-17
3.375e-05
-4.62278e-16
3.375e-05
2.90211e-16
3.375e-05
-2.53024e-16
3.375e-05
1.94634e-16
3.375e-05
-1.48025e-16
3.375e-05
1.04926e-16
3.375e-05
-6.59071e-17
3.375e-05
2.99965e-17
3.375e-05
4.42416e-18
3.375e-05
-3.93795e-17
3.375e-05
6.44733e-17
3.375e-05
-1.47705e-16
3.375e-05
-2.64749e-16
3.375e-05
4.43163e-16
3.375e-05
-2.27395e-14
-2.17886e-14
3.625e-05
-6.22556e-15
3.625e-05
-1.17205e-14
3.625e-05
-2.13645e-15
3.625e-05
1.11807e-16
3.625e-05
-4.75538e-16
3.625e-05
3.22375e-16
3.625e-05
-2.73796e-16
3.625e-05
2.11553e-16
3.625e-05
-1.6034e-16
3.625e-05
1.13358e-16
3.625e-05
-7.07414e-17
3.625e-05
3.13603e-17
3.625e-05
6.34844e-18
3.625e-05
-4.42683e-17
3.625e-05
7.45021e-17
3.625e-05
-1.51245e-16
3.625e-05
-1.5371e-16
3.625e-05
2.51422e-16
3.625e-05
-1.64835e-14
-1.50646e-14
3.875e-05
-1.06029e-15
3.875e-05
-6.06186e-15
3.875e-05
-1.54663e-15
3.875e-05
2.42316e-16
3.875e-05
-4.53075e-16
3.875e-05
3.24799e-16
3.875e-05
-2.70801e-16
3.875e-05
2.09915e-16
3.875e-05
-1.58732e-16
3.875e-05
1.12051e-16
3.875e-05
-6.96208e-17
3.875e-05
3.03204e-17
3.875e-05
7.2818e-18
3.875e-05
-4.4839e-17
3.875e-05
7.69184e-17
3.875e-05
-1.43015e-16
3.875e-05
-5.80022e-17
3.875e-05
9.04934e-17
3.875e-05
-1.07295e-14
-9.05529e-15
4.125e-05
1.91471e-15
4.125e-05
-2.26485e-15
4.125e-05
-1.03059e-15
4.125e-05
2.9935e-16
4.125e-05
-3.90603e-16
4.125e-05
2.92083e-16
4.125e-05
-2.40204e-16
4.125e-05
1.86654e-16
4.125e-05
-1.40918e-16
4.125e-05
9.94039e-17
4.125e-05
-6.1596e-17
4.125e-05
2.64957e-17
4.125e-05
7.04482e-18
4.125e-05
-4.03518e-17
4.125e-05
7.02851e-17
4.125e-05
-1.2193e-16
4.125e-05
1.12994e-17
4.125e-05
-1.96927e-17
4.125e-05
-5.98011e-15
-4.32189e-15
4.375e-05
2.66613e-15
4.375e-05
-3.16112e-16
4.375e-05
-5.98001e-16
4.375e-05
2.68262e-16
4.375e-05
-2.83949e-16
4.375e-05
2.19303e-16
4.375e-05
-1.78449e-16
4.375e-05
1.38949e-16
4.375e-05
-1.04791e-16
4.375e-05
7.38817e-17
4.375e-05
-4.57023e-17
4.375e-05
1.95031e-17
4.375e-05
5.50463e-18
4.375e-05
-3.02067e-17
4.375e-05
5.33057e-17
4.375e-05
-8.73047e-17
4.375e-05
4.42622e-17
4.375e-05
-6.5889e-17
4.375e-05
-2.55331e-15
-1.22946e-15
4.625e-05
1.49743e-15
4.625e-05
1.56068e-16
4.625e-05
-2.2912e-16
4.625e-05
1.38474e-16
4.625e-05
-1.28897e-16
4.625e-05
1.01952e-16
4.625e-05
-8.2323e-17
4.625e-05
6.42044e-17
4.625e-05
-4.83839e-17
4.625e-05
3.40979e-17
4.625e-05
-2.10799e-17
4.625e-05
8.96445e-18
4.625e-05
2.60743e-18
4.625e-05
-1.39913e-17
4.625e-05
2.49457e-17
4.625e-05
-3.89691e-17
4.625e-05
3.26251e-17
4.625e-05
-4.61116e-17
4.625e-05
-5.97959e-16
4.23415e-17
4.875e-05
4.875e-05
4.875e-05
4.875e-05
4.875e-05
4.875e-05
4.875e-05
4.875e-05
4.875e-05
4.875e-05
4.875e-05
4.875e-05
4.875e-05
4.875e-05
4.875e-05
4.875e-05
4.875e-05
4.875e-05
4.875e-05
)
;

boundaryField
{
    top
    {
        type            calculated;
        value           uniform 0;
    }
    bottom
    {
        type            calculated;
        value           uniform 0;
    }
    inlet
    {
        type            calculated;
        value           nonuniform List<scalar> 
20
(
-1.25e-06
-3.74999e-06
-6.24998e-06
-8.74997e-06
-1.125e-05
-1.375e-05
-1.625e-05
-1.87499e-05
-2.12499e-05
-2.37499e-05
-2.62499e-05
-2.87499e-05
-3.12499e-05
-3.375e-05
-3.625e-05
-3.875e-05
-4.125e-05
-4.375e-05
-4.625e-05
-4.875e-05
)
;
    }
    outlet
    {
        type            calculated;
        value           nonuniform List<scalar> 
20
(
1.25e-06
3.74999e-06
6.24998e-06
8.74997e-06
1.125e-05
1.375e-05
1.625e-05
1.87499e-05
2.12499e-05
2.37499e-05
2.62499e-05
2.87499e-05
3.12499e-05
3.375e-05
3.625e-05
3.875e-05
4.125e-05
4.375e-05
4.625e-05
4.875e-05
)
;
    }
    frontAndBack
    {
        type            empty;
        value           nonuniform 0();
    }
}


// ************************************************************************* //
