/*--------------------------------*- C++ -*----------------------------------*\
| =========                 |                                                 |
| \\      /  F ield         | OpenFOAM: The Open Source CFD Toolbox           |
|  \\    /   O peration     | Version:  4.1                                   |
|   \\  /    A nd           | Web:      www.OpenFOAM.org                      |
|    \\/     M anipulation  |                                                 |
\*---------------------------------------------------------------------------*/
FoamFile
{
    version     2.0;
    format      ascii;
    class       volVectorField;
    location    "2.4";
    object      U;
}
// * * * * * * * * * * * * * * * * * * * * * * * * * * * * * * * * * * * * * //

dimensions      [0 1 -1 0 0 0 0];

internalField   nonuniform List<vector> 
400
(
(0.0249999 -1.6688e-12 0)
(0.0249999 -1.0364e-12 0)
(0.0249999 3.83691e-14 0)
(0.0249999 -9.11904e-14 0)
(0.0249999 6.40483e-14 0)
(0.0249999 -5.3604e-14 0)
(0.0249999 4.25288e-14 0)
(0.0249999 -3.32766e-14 0)
(0.0249999 2.50116e-14 0)
(0.0249999 -1.76048e-14 0)
(0.0249999 1.08329e-14 0)
(0.0249999 -4.50822e-15 0)
(0.0249999 -1.5227e-15 0)
(0.0249999 7.39839e-15 0)
(0.0249999 -1.34503e-14 0)
(0.0249999 1.87066e-14 0)
(0.0249999 -3.28818e-14 0)
(0.0249999 4.24872e-14 0)
(0.0249999 -5.83926e-13 0)
(0.0249999 -9.55073e-13 0)
(0.0749997 -7.04493e-12 0)
(0.0749997 -5.19328e-12 0)
(0.0749997 -1.41855e-14 0)
(0.0749997 -3.08839e-13 0)
(0.0749997 1.94858e-13 0)
(0.0749997 -1.66713e-13 0)
(0.0749997 1.31403e-13 0)
(0.0749997 -1.02907e-13 0)
(0.0749997 7.72501e-14 0)
(0.0749997 -5.4293e-14 0)
(0.0749997 3.32914e-14 0)
(0.0749997 -1.36535e-14 0)
(0.0749997 -5.06949e-15 0)
(0.0749997 2.32616e-14 0)
(0.0749997 -4.24178e-14 0)
(0.0749997 5.69943e-14 0)
(0.0749997 -1.18617e-13 0)
(0.0749997 1.70902e-13 0)
(0.0749997 -3.1678e-12 0)
(0.0749997 -4.3795e-12 0)
(0.125 -1.5646e-11 0)
(0.125 -1.29845e-11 0)
(0.125 -3.8633e-13 0)
(0.125 -5.65099e-13 0)
(0.125 3.01181e-13 0)
(0.125 -2.68039e-13 0)
(0.125 2.09032e-13 0)
(0.125 -1.63952e-13 0)
(0.125 1.2285e-13 0)
(0.125 -8.61617e-14 0)
(0.125 5.25683e-14 0)
(0.125 -2.11049e-14 0)
(0.125 -8.88792e-15 0)
(0.125 3.79199e-14 0)
(0.125 -6.95193e-14 0)
(0.125 8.8061e-14 0)
(0.125 -2.34748e-13 0)
(0.125 3.31841e-13 0)
(0.125 -8.32598e-12 0)
(0.125 -1.03759e-11 0)
(0.174999 -2.53266e-11 0)
(0.174999 -2.25384e-11 0)
(0.174999 -1.00843e-12 0)
(0.174999 -7.9314e-13 0)
(0.174999 3.5044e-13 0)
(0.174999 -3.27887e-13 0)
(0.174999 2.52331e-13 0)
(0.174999 -1.98312e-13 0)
(0.174999 1.4826e-13 0)
(0.174999 -1.03724e-13 0)
(0.174999 6.28973e-14 0)
(0.174999 -2.45807e-14 0)
(0.174999 -1.19358e-14 0)
(0.174999 4.71084e-14 0)
(0.174999 -8.69595e-14 0)
(0.174999 1.02562e-13 0)
(0.174999 -3.5339e-13 0)
(0.174999 5.11843e-13 0)
(0.174999 -1.50373e-11 0)
(0.174999 -1.77153e-11 0)
(0.224999 -3.45375e-11 0)
(0.224999 -3.22091e-11 0)
(0.224999 -1.78344e-12 0)
(0.224999 -9.7743e-13 0)
(0.224999 3.46742e-13 0)
(0.224999 -3.47418e-13 0)
(0.224999 2.62777e-13 0)
(0.224999 -2.07092e-13 0)
(0.224999 1.54384e-13 0)
(0.224999 -1.07689e-13 0)
(0.224999 6.48141e-14 0)
(0.224999 -2.44724e-14 0)
(0.224999 -1.3958e-14 0)
(0.224999 5.0739e-14 0)
(0.224999 -9.45409e-14 0)
(0.224999 1.01533e-13 0)
(0.224999 -4.64496e-13 0)
(0.224999 6.84816e-13 0)
(0.224999 -2.22936e-11 0)
(0.224999 -2.53583e-11 0)
(0.274999 -4.21886e-11 0)
(0.274999 -4.07242e-11 0)
(0.274999 -2.59521e-12 0)
(0.274999 -1.10992e-12 0)
(0.274999 3.02146e-13 0)
(0.274999 -3.33883e-13 0)
(0.274999 2.46729e-13 0)
(0.274999 -1.95209e-13 0)
(0.274999 1.44982e-13 0)
(0.274999 -1.00755e-13 0)
(0.274999 6.00581e-14 0)
(0.274999 -2.16356e-14 0)
(0.274999 -1.49413e-14 0)
(0.274999 4.96463e-14 0)
(0.274999 -9.36988e-14 0)
(0.274999 8.83915e-14 0)
(0.274999 -5.60163e-13 0)
(0.274999 8.43423e-13 0)
(0.274999 -2.92363e-11 0)
(0.274999 -3.24722e-11 0)
(0.324999 -4.75364e-11 0)
(0.324999 -4.71879e-11 0)
(0.324999 -3.34661e-12 0)
(0.324999 -1.18377e-12 0)
(0.324999 2.26738e-13 0)
(0.324999 -2.93287e-13 0)
(0.324999 2.09471e-13 0)
(0.324999 -1.66739e-13 0)
(0.324999 1.23167e-13 0)
(0.324999 -8.51479e-14 0)
(0.324999 5.00551e-14 0)
(0.324999 -1.67601e-14 0)
(0.324999 -1.48968e-14 0)
(0.324999 4.45541e-14 0)
(0.324999 -8.56644e-14 0)
(0.324999 6.59317e-14 0)
(0.324999 -6.33612e-13 0)
(0.324999 9.75776e-13 0)
(0.324999 -3.51683e-11 0)
(0.324999 -3.83749e-11 0)
(0.374999 -5.011e-11 0)
(0.374999 -5.0997e-11 0)
(0.374999 -3.95509e-12 0)
(0.374999 -1.19337e-12 0)
(0.374999 1.29499e-13 0)
(0.374999 -2.30943e-13 0)
(0.374999 1.55692e-13 0)
(0.374999 -1.25283e-13 0)
(0.374999 9.16808e-14 0)
(0.374999 -6.28256e-14 0)
(0.374999 3.60504e-14 0)
(0.374999 -1.04287e-14 0)
(0.374999 -1.38758e-14 0)
(0.374999 3.61488e-14 0)
(0.374999 -7.15754e-14 0)
(0.374999 3.66461e-14 0)
(0.374999 -6.78854e-13 0)
(0.374999 1.07001e-12 0)
(0.374999 -3.95379e-11 0)
(0.374999 -4.25275e-11 0)
(0.424999 -4.97471e-11 0)
(0.424999 -5.18718e-11 0)
(0.424999 -4.35967e-12 0)
(0.424999 -1.13738e-12 0)
(0.424999 1.92795e-14 0)
(0.424999 -1.52476e-13 0)
(0.424999 9.02406e-14 0)
(0.424999 -7.45825e-14 0)
(0.424999 5.33599e-14 0)
(0.424999 -3.57928e-14 0)
(0.424999 1.92996e-14 0)
(0.424999 -3.20464e-15 0)
(0.424999 -1.19884e-14 0)
(0.424999 2.52109e-14 0)
(0.424999 -5.27355e-14 0)
(0.424999 3.05303e-15 0)
(0.424999 -6.91959e-13 0)
(0.424999 1.11539e-12 0)
(0.424999 -4.19732e-11 0)
(0.424999 -4.45759e-11 0)
(0.474999 -4.65837e-11 0)
(0.474999 -4.98508e-11 0)
(0.474999 -4.52594e-12 0)
(0.474999 -1.01949e-12 0)
(0.474999 -9.53243e-14 0)
(0.474999 -6.38583e-14 0)
(0.474999 1.81311e-14 0)
(0.474999 -1.85097e-14 0)
(0.474999 1.11353e-14 0)
(0.474999 -6.11254e-15 0)
(0.474999 1.06456e-15 0)
(0.474999 4.37703e-15 0)
(0.474999 -9.39385e-15 0)
(0.474999 1.25906e-14 0)
(0.474999 -3.06127e-14 0)
(0.474999 -3.23088e-14 0)
(0.474999 -6.71544e-13 0)
(0.474999 1.10445e-12 0)
(0.474999 -4.23039e-11 0)
(0.474999 -4.43753e-11 0)
(0.524999 -4.10288e-11 0)
(0.524999 -4.52678e-11 0)
(0.524999 -4.44844e-12 0)
(0.524999 -8.48706e-13 0)
(0.524999 -2.06262e-13 0)
(0.524999 2.87341e-14 0)
(0.524999 -5.55987e-14 0)
(0.524999 3.90263e-14 0)
(0.524999 -3.2056e-14 0)
(0.524999 2.41583e-14 0)
(0.524999 -1.73993e-14 0)
(0.524999 1.1816e-14 0)
(0.524999 -6.30548e-15 0)
(0.524999 -7.98517e-16 0)
(0.524999 -6.7998e-15 0)
(0.524999 -6.69506e-14 0)
(0.524999 -6.1899e-13 0)
(0.524999 1.03466e-12 0)
(0.524999 -4.05632e-11 0)
(0.524999 -4.19934e-11 0)
(0.574999 -3.37099e-11 0)
(0.574999 -3.86993e-11 0)
(0.574999 -4.14949e-12 0)
(0.574999 -6.38941e-13 0)
(0.574999 -3.06181e-13 0)
(0.574999 1.19008e-13 0)
(0.574999 -1.25947e-13 0)
(0.574999 9.41394e-14 0)
(0.574999 -7.33155e-14 0)
(0.574999 5.29935e-14 0)
(0.574999 -3.48633e-14 0)
(0.574999 1.86437e-14 0)
(0.574999 -2.97921e-15 0)
(0.574999 -1.39948e-14 0)
(0.574999 1.70235e-14 0)
(0.574999 -9.8469e-14 0)
(0.574999 -5.38465e-13 0)
(0.574999 9.09859e-13 0)
(0.574999 -3.69744e-11 0)
(0.574999 -3.76971e-11 0)
(0.624999 -2.5414e-11 0)
(0.624999 -3.09009e-11 0)
(0.624999 -3.67457e-12 0)
(0.624999 -4.0831e-13 0)
(0.624999 -3.88468e-13 0)
(0.624999 2.00624e-13 0)
(0.624999 -1.88038e-13 0)
(0.624999 1.43008e-13 0)
(0.624999 -1.09775e-13 0)
(0.624999 7.83966e-14 0)
(0.624999 -5.01443e-14 0)
(0.624999 2.44215e-14 0)
(0.624999 3.04883e-16 0)
(0.624999 -2.60273e-14 0)
(0.624999 3.91221e-14 0)
(0.624999 -1.24569e-13 0)
(0.624999 -4.3672e-13 0)
(0.624999 7.40738e-13 0)
(0.624999 -3.19248e-11 0)
(0.624999 -3.1927e-11 0)
(0.674999 -1.70025e-11 0)
(0.674999 -2.27179e-11 0)
(0.674999 -3.08509e-12 0)
(0.674999 -1.77868e-13 0)
(0.674999 -4.47243e-13 0)
(0.674999 2.67324e-13 0)
(0.674999 -2.37161e-13 0)
(0.674999 1.81915e-13 0)
(0.674999 -1.38662e-13 0)
(0.674999 9.84581e-14 0)
(0.674999 -6.21132e-14 0)
(0.674999 2.87482e-14 0)
(0.674999 3.25627e-15 0)
(0.674999 -3.59422e-14 0)
(0.674999 5.77477e-14 0)
(0.674999 -1.43116e-13 0)
(0.674999 -3.22693e-13 0)
(0.674999 5.44516e-13 0)
(0.674999 -2.59239e-11 0)
(0.674999 -2.52534e-11 0)
(0.724999 -9.33382e-12 0)
(0.724999 -1.50008e-11 0)
(0.724999 -2.4485e-12 0)
(0.724999 3.00811e-14 0)
(0.724999 -4.77387e-13 0)
(0.724999 3.13074e-13 0)
(0.724999 -2.68886e-13 0)
(0.724999 2.07357e-13 0)
(0.724999 -1.57386e-13 0)
(0.724999 1.11385e-13 0)
(0.724999 -6.96955e-14 0)
(0.724999 3.12368e-14 0)
(0.724999 5.60625e-15 0)
(0.724999 -4.28147e-14 0)
(0.724999 7.12153e-14 0)
(0.724999 -1.52243e-13 0)
(0.724999 -2.06863e-13 0)
(0.724999 3.43193e-13 0)
(0.724999 -1.95585e-11 0)
(0.724999 -1.83285e-11 0)
(0.774999 -3.15427e-12 0)
(0.774999 -8.48689e-12 0)
(0.774999 -1.82775e-12 0)
(0.774999 1.93581e-13 0)
(0.774999 -4.74288e-13 0)
(0.774999 3.32091e-13 0)
(0.774999 -2.79036e-13 0)
(0.774999 2.15999e-13 0)
(0.774999 -1.63485e-13 0)
(0.774999 1.1547e-13 0)
(0.774999 -7.18669e-14 0)
(0.774999 3.15172e-14 0)
(0.774999 7.10135e-15 0)
(0.774999 -4.57862e-14 0)
(0.774999 7.79024e-14 0)
(0.774999 -1.50343e-13 0)
(0.774999 -1.00518e-13 0)
(0.774999 1.60967e-13 0)
(0.774999 -1.3423e-11 0)
(0.774999 -1.18132e-11 0)
(0.824999 9.57533e-13 0)
(0.824999 -3.72162e-12 0)
(0.824999 -1.26757e-12 0)
(0.824999 2.91322e-13 0)
(0.824999 -4.32371e-13 0)
(0.824999 3.17893e-13 0)
(0.824999 -2.62873e-13 0)
(0.824999 2.04064e-13 0)
(0.824999 -1.54154e-13 0)
(0.824999 1.0876e-13 0)
(0.824999 -6.74552e-14 0)
(0.824999 2.91453e-14 0)
(0.824999 7.48493e-15 0)
(0.824999 -4.39483e-14 0)
(0.824999 7.60541e-14 0)
(0.824999 -1.35751e-13 0)
(0.824999 -1.5301e-14 0)
(0.824999 2.13619e-14 0)
(0.824999 -8.06797e-12 0)
(0.824999 -6.3267e-12 0)
(0.875 2.74512e-12 0)
(0.875 -8.91258e-13 0)
(0.875 -7.87785e-13 0)
(0.875 3.01772e-13 0)
(0.875 -3.44403e-13 0)
(0.875 2.62662e-13 0)
(0.875 -2.14621e-13 0)
(0.875 1.66976e-13 0)
(0.875 -1.25972e-13 0)
(0.875 8.88244e-14 0)
(0.875 -5.49719e-14 0)
(0.875 2.35154e-14 0)
(0.875 6.52648e-15 0)
(0.875 -3.62697e-14 0)
(0.875 6.36425e-14 0)
(0.875 -1.0673e-13 0)
(0.875 3.62999e-14 0)
(0.875 -5.86439e-14 0)
(0.875 -3.91591e-12 0)
(0.875 -2.36117e-12 0)
(0.925 2.37588e-12 0)
(0.925 1.90558e-13 0)
(0.925 -3.87231e-13 0)
(0.925 2.17497e-13 0)
(0.925 -2.09895e-13 0)
(0.925 1.6482e-13 0)
(0.925 -1.33426e-13 0)
(0.925 1.03998e-13 0)
(0.925 -7.83912e-14 0)
(0.925 5.52541e-14 0)
(0.925 -3.41566e-14 0)
(0.925 1.45293e-14 0)
(0.925 4.20588e-15 0)
(0.925 -2.26682e-14 0)
(0.925 4.02447e-14 0)
(0.925 -6.40348e-14 0)
(0.925 4.6283e-14 0)
(0.925 -6.65558e-14 0)
(0.925 -1.26195e-12 0)
(0.925 -2.38512e-13 0)
(0.975 8.86523e-13 0)
(0.975 1.97461e-13 0)
(0.975 -1.06726e-13 0)
(0.975 7.51524e-14 0)
(0.975 -6.67398e-14 0)
(0.975 5.32546e-14 0)
(0.975 -4.28745e-14 0)
(0.975 3.34597e-14 0)
(0.975 -2.52077e-14 0)
(0.975 1.77639e-14 0)
(0.975 -1.09773e-14 0)
(0.975 4.65864e-15 0)
(0.975 1.37429e-15 0)
(0.975 -7.30066e-15 0)
(0.975 1.30615e-14 0)
(0.975 -2.01219e-14 0)
(0.975 1.93298e-14 0)
(0.975 -3.03034e-14 0)
(0.975 -1.6447e-13 0)
(0.975 1.78319e-13 0)
)
;

boundaryField
{
    top
    {
        type            fixedValue;
        value           uniform (1 0 0);
    }
    bottom
    {
        type            fixedValue;
        value           uniform (0 0 0);
    }
    inlet
    {
        type            zeroGradient;
    }
    outlet
    {
        type            zeroGradient;
    }
    frontAndBack
    {
        type            empty;
    }
}


// ************************************************************************* //
