/*--------------------------------*- C++ -*----------------------------------*\
| =========                 |                                                 |
| \\      /  F ield         | OpenFOAM: The Open Source CFD Toolbox           |
|  \\    /   O peration     | Version:  4.1                                   |
|   \\  /    A nd           | Web:      www.OpenFOAM.org                      |
|    \\/     M anipulation  |                                                 |
\*---------------------------------------------------------------------------*/
FoamFile
{
    version     2.0;
    format      ascii;
    class       volScalarField;
    location    "2.7";
    object      p;
}
// * * * * * * * * * * * * * * * * * * * * * * * * * * * * * * * * * * * * * //

dimensions      [0 2 -2 0 0 0 0];

internalField   nonuniform List<scalar> 
400
(
8.34257e-10
9.31259e-10
7.94591e-10
8.49931e-10
7.49315e-10
7.78374e-10
7.02273e-10
7.10344e-10
6.52658e-10
6.44435e-10
6.01375e-10
5.79785e-10
5.49202e-10
5.15725e-10
4.96751e-10
4.51671e-10
4.44787e-10
3.88186e-10
3.97215e-10
3.7452e-10
8.31236e-10
9.2816e-10
7.94359e-10
8.4987e-10
7.49319e-10
7.78364e-10
7.0228e-10
7.10339e-10
6.52662e-10
6.44432e-10
6.01377e-10
5.79785e-10
5.49201e-10
5.15726e-10
4.96747e-10
4.51672e-10
4.44753e-10
3.88208e-10
3.9515e-10
3.72335e-10
8.29522e-10
9.25958e-10
7.94074e-10
8.49864e-10
7.49281e-10
7.78388e-10
7.02259e-10
7.10355e-10
6.5265e-10
6.44441e-10
6.01371e-10
5.79787e-10
5.49201e-10
5.15723e-10
4.96753e-10
4.51661e-10
4.44739e-10
3.88186e-10
3.93522e-10
3.7083e-10
8.28983e-10
9.24929e-10
7.93803e-10
8.49872e-10
7.49239e-10
7.78417e-10
7.02235e-10
7.10373e-10
6.52636e-10
6.44451e-10
6.01365e-10
5.7979e-10
5.49202e-10
5.15719e-10
4.9676e-10
4.51649e-10
4.44733e-10
3.8813e-10
3.92589e-10
3.70062e-10
8.29153e-10
9.24715e-10
7.93549e-10
8.49877e-10
7.49205e-10
7.7844e-10
7.02216e-10
7.10388e-10
6.52625e-10
6.44459e-10
6.0136e-10
5.79792e-10
5.49203e-10
5.15716e-10
4.96765e-10
4.51639e-10
4.44729e-10
3.88058e-10
3.92198e-10
3.69795e-10
8.29788e-10
9.25047e-10
7.93296e-10
8.49879e-10
7.49178e-10
7.78458e-10
7.02201e-10
7.104e-10
6.52616e-10
6.44465e-10
6.01356e-10
5.79794e-10
5.49203e-10
5.15713e-10
4.9677e-10
4.51631e-10
4.44728e-10
3.87977e-10
3.92239e-10
3.69921e-10
8.30751e-10
9.2576e-10
7.93037e-10
8.49878e-10
7.49155e-10
7.78472e-10
7.02189e-10
7.10409e-10
6.52609e-10
6.4447e-10
6.01353e-10
5.79795e-10
5.49204e-10
5.15711e-10
4.96774e-10
4.51625e-10
4.44729e-10
3.87894e-10
3.92643e-10
3.70371e-10
8.31885e-10
9.26689e-10
7.92771e-10
8.49872e-10
7.49136e-10
7.78483e-10
7.0218e-10
7.10416e-10
6.52604e-10
6.44473e-10
6.01351e-10
5.79796e-10
5.49204e-10
5.1571e-10
4.96777e-10
4.51621e-10
4.44731e-10
3.87815e-10
3.93324e-10
3.71056e-10
8.33031e-10
9.27666e-10
7.92496e-10
8.49861e-10
7.49121e-10
7.7849e-10
7.02174e-10
7.10421e-10
6.52601e-10
6.44476e-10
6.01349e-10
5.79796e-10
5.49205e-10
5.15708e-10
4.96779e-10
4.51618e-10
4.44734e-10
3.87748e-10
3.94175e-10
3.71871e-10
8.34041e-10
9.28538e-10
7.92214e-10
8.49842e-10
7.49111e-10
7.78493e-10
7.02171e-10
7.10423e-10
6.52599e-10
6.44477e-10
6.01349e-10
5.79796e-10
5.49205e-10
5.15708e-10
4.96781e-10
4.51618e-10
4.44735e-10
3.87696e-10
3.95087e-10
3.72705e-10
8.34791e-10
9.29176e-10
7.91929e-10
8.49814e-10
7.49105e-10
7.78492e-10
7.02172e-10
7.10422e-10
6.526e-10
6.44477e-10
6.01349e-10
5.79796e-10
5.49205e-10
5.15708e-10
4.96781e-10
4.51619e-10
4.44734e-10
3.87661e-10
3.95947e-10
3.73451e-10
8.35185e-10
9.29484e-10
7.91646e-10
8.49777e-10
7.49104e-10
7.78487e-10
7.02175e-10
7.1042e-10
6.52602e-10
6.44475e-10
6.0135e-10
5.79796e-10
5.49205e-10
5.15708e-10
4.96781e-10
4.51621e-10
4.4473e-10
3.87645e-10
3.96655e-10
3.74014e-10
8.35162e-10
9.29403e-10
7.91372e-10
8.4973e-10
7.49107e-10
7.78478e-10
7.02181e-10
7.10414e-10
6.52606e-10
6.44472e-10
6.01351e-10
5.79795e-10
5.49206e-10
5.15709e-10
4.9678e-10
4.51625e-10
4.44721e-10
3.87646e-10
3.97126e-10
3.74314e-10
8.34705e-10
9.2892e-10
7.91116e-10
8.49676e-10
7.49114e-10
7.78465e-10
7.02191e-10
7.10407e-10
6.52612e-10
6.44468e-10
6.01354e-10
5.79793e-10
5.49206e-10
5.1571e-10
4.96778e-10
4.5163e-10
4.44708e-10
3.87663e-10
3.97299e-10
3.74297e-10
8.33838e-10
9.28066e-10
7.90884e-10
8.49613e-10
7.49126e-10
7.78448e-10
7.02203e-10
7.10397e-10
6.52619e-10
6.44463e-10
6.01357e-10
5.79792e-10
5.49205e-10
5.15712e-10
4.96775e-10
4.51636e-10
4.44689e-10
3.87691e-10
3.97139e-10
3.73935e-10
8.32642e-10
9.26931e-10
7.90685e-10
8.49545e-10
7.49142e-10
7.78428e-10
7.02218e-10
7.10385e-10
6.52629e-10
6.44456e-10
6.01361e-10
5.7979e-10
5.49205e-10
5.15714e-10
4.96771e-10
4.51643e-10
4.44665e-10
3.87728e-10
3.96655e-10
3.73241e-10
8.31218e-10
9.25644e-10
7.90527e-10
8.49471e-10
7.49165e-10
7.78403e-10
7.02237e-10
7.1037e-10
6.5264e-10
6.44448e-10
6.01366e-10
5.79788e-10
5.49205e-10
5.15717e-10
4.96765e-10
4.51651e-10
4.44637e-10
3.8777e-10
3.95888e-10
3.7225e-10
8.29775e-10
9.24437e-10
7.90417e-10
8.4939e-10
7.49195e-10
7.78372e-10
7.02261e-10
7.10351e-10
6.52654e-10
6.44438e-10
6.01373e-10
5.79785e-10
5.49204e-10
5.15721e-10
4.96758e-10
4.5166e-10
4.44603e-10
3.87812e-10
3.94925e-10
3.71042e-10
8.28662e-10
9.23541e-10
7.90338e-10
8.49318e-10
7.4922e-10
7.78346e-10
7.02281e-10
7.10335e-10
6.52666e-10
6.4443e-10
6.01378e-10
5.79783e-10
5.49204e-10
5.15724e-10
4.96752e-10
4.51667e-10
4.44568e-10
3.87849e-10
3.93832e-10
3.69739e-10
8.28458e-10
9.23146e-10
7.90232e-10
8.49302e-10
7.49204e-10
7.78354e-10
7.02274e-10
7.10341e-10
6.52662e-10
6.44433e-10
6.01376e-10
5.79784e-10
5.49204e-10
5.15722e-10
4.96754e-10
4.5166e-10
4.44548e-10
3.87862e-10
3.92807e-10
3.68735e-10
)
;

boundaryField
{
    top
    {
        type            zeroGradient;
    }
    bottom
    {
        type            zeroGradient;
    }
    inlet
    {
        type            fixedValue;
        value           uniform 0;
    }
    outlet
    {
        type            fixedValue;
        value           uniform 0;
    }
    frontAndBack
    {
        type            empty;
    }
}


// ************************************************************************* //
