/*--------------------------------*- C++ -*----------------------------------*\
| =========                 |                                                 |
| \\      /  F ield         | OpenFOAM: The Open Source CFD Toolbox           |
|  \\    /   O peration     | Version:  4.1                                   |
|   \\  /    A nd           | Web:      www.OpenFOAM.org                      |
|    \\/     M anipulation  |                                                 |
\*---------------------------------------------------------------------------*/
FoamFile
{
    version     2.0;
    format      ascii;
    class       surfaceScalarField;
    location    "2.7";
    object      phi;
}
// * * * * * * * * * * * * * * * * * * * * * * * * * * * * * * * * * * * * * //

dimensions      [0 3 -1 0 0 0 0];

internalField   nonuniform List<scalar> 
760
(
1.25e-06
-1.29662e-15
1.25e-06
-8.90735e-16
1.25e-06
1.11531e-17
1.25e-06
-6.30924e-17
1.25e-06
4.20396e-17
1.25e-06
-3.55548e-17
1.25e-06
2.81172e-17
1.25e-06
-2.19964e-17
1.25e-06
1.65049e-17
1.25e-06
-1.15944e-17
1.25e-06
7.10082e-18
1.25e-06
-2.88853e-18
1.25e-06
-1.11618e-18
1.25e-06
5.00661e-18
1.25e-06
-9.06781e-18
1.25e-06
1.23891e-17
1.25e-06
-2.35689e-17
1.25e-06
3.32133e-17
1.25e-06
-5.33693e-16
-7.8653e-16
3.75e-06
-3.91908e-15
3.75e-06
-3.11673e-15
3.75e-06
-6.45421e-17
3.75e-06
-1.53528e-16
3.75e-06
8.81209e-17
3.75e-06
-7.70516e-17
3.75e-06
6.03782e-17
3.75e-06
-4.72897e-17
3.75e-06
3.54211e-17
3.75e-06
-2.48415e-17
3.75e-06
1.51517e-17
3.75e-06
-6.03531e-18
3.75e-06
-2.61546e-18
3.75e-06
1.09839e-17
3.75e-06
-2.00015e-17
3.75e-06
2.59597e-17
3.75e-06
-6.19069e-17
3.75e-06
8.76281e-17
3.75e-06
-1.96558e-15
-2.53967e-15
6.24999e-06
-7.09036e-15
6.24999e-06
-6.14509e-15
6.24999e-06
-2.39823e-16
6.24999e-06
-2.35524e-16
6.24999e-06
1.13392e-16
6.24999e-06
-1.03625e-16
6.24999e-06
8.02443e-17
6.24999e-06
-6.29527e-17
6.24999e-06
4.70458e-17
6.24999e-06
-3.29249e-17
6.24999e-06
1.99769e-17
6.24999e-06
-7.74682e-18
6.24999e-06
-3.83599e-18
6.24999e-06
1.49816e-17
6.24999e-06
-2.74705e-17
6.24999e-06
3.34416e-17
6.24999e-06
-1.02093e-16
6.24999e-06
1.46942e-16
6.24999e-06
-4.03661e-15
-4.85585e-15
8.74999e-06
-1.0332e-14
8.74999e-06
-9.45319e-15
8.74999e-06
-4.81644e-16
8.74999e-06
-3.05628e-16
8.74999e-06
1.20445e-16
8.74999e-06
-1.16667e-16
8.74999e-06
8.89978e-17
8.74999e-06
-6.99702e-17
8.74999e-06
5.2143e-17
8.74999e-06
-3.64095e-17
8.74999e-06
2.19573e-17
8.74999e-06
-8.23334e-18
8.74999e-06
-4.72586e-18
8.74999e-06
1.71154e-17
8.74999e-06
-3.16716e-17
8.74999e-06
3.55732e-17
8.74999e-06
-1.41429e-16
8.74999e-06
2.07112e-16
8.74999e-06
-6.44123e-15
-7.43017e-15
1.125e-05
-1.32316e-14
1.125e-05
-1.25808e-14
1.125e-05
-7.54572e-16
1.125e-05
-3.60141e-16
1.125e-05
1.12137e-16
1.125e-05
-1.17712e-16
1.125e-05
8.80488e-17
1.125e-05
-6.9427e-17
1.125e-05
5.15519e-17
1.125e-05
-3.59028e-17
1.125e-05
2.14893e-17
1.125e-05
-7.7113e-18
1.125e-05
-5.24922e-18
1.125e-05
1.75364e-17
1.125e-05
-3.28548e-17
1.125e-05
3.31511e-17
1.125e-05
-1.77041e-16
1.125e-05
2.64265e-16
1.125e-05
-8.88604e-15
-9.97092e-15
1.375e-05
-1.54732e-14
1.375e-05
-1.51626e-14
1.375e-05
-1.0238e-15
1.375e-05
-3.95773e-16
1.375e-05
9.15122e-17
1.375e-05
-1.08436e-16
1.375e-05
7.89116e-17
1.375e-05
-6.24967e-17
1.375e-05
4.61738e-17
1.375e-05
-3.20516e-17
1.375e-05
1.89974e-17
1.375e-05
-6.3891e-18
1.375e-05
-5.39873e-18
1.375e-05
1.6439e-17
1.375e-05
-3.13334e-17
1.375e-05
2.70172e-17
1.375e-05
-2.06211e-16
1.375e-05
3.14366e-16
1.375e-05
-1.1106e-14
-1.22157e-14
1.625e-05
-1.68386e-14
1.625e-05
-1.69329e-14
1.625e-05
-1.25815e-15
1.625e-05
-4.10087e-16
1.625e-05
6.17095e-17
1.625e-05
-9.06626e-17
1.625e-05
6.32063e-17
1.625e-05
-5.04183e-17
1.625e-05
3.69584e-17
1.625e-05
-2.5526e-17
1.625e-05
1.48975e-17
1.625e-05
-4.47598e-18
1.625e-05
-5.17772e-18
1.625e-05
1.40533e-17
1.625e-05
-2.74809e-17
1.625e-05
1.80447e-17
1.625e-05
-2.26625e-16
1.625e-05
3.53286e-16
1.625e-05
-1.28825e-14
-1.39499e-14
1.875e-05
-1.72191e-14
1.875e-05
-1.77394e-14
1.875e-05
-1.43275e-15
1.875e-05
-4.01948e-16
1.875e-05
2.58567e-17
1.875e-05
-6.63157e-17
1.875e-05
4.26075e-17
1.875e-05
-3.44924e-17
1.875e-05
2.48856e-17
1.875e-05
-1.70271e-17
1.875e-05
9.63749e-18
1.875e-05
-2.16737e-18
1.875e-05
-4.62298e-18
1.875e-05
1.06427e-17
1.875e-05
-2.17429e-17
1.875e-05
7.11829e-18
1.875e-05
-2.36584e-16
1.875e-05
3.77148e-16
1.875e-05
-1.40557e-14
-1.5019e-14
2.125e-05
-1.661e-14
2.125e-05
-1.75401e-14
2.125e-05
-1.53114e-15
2.125e-05
-3.71816e-16
2.125e-05
-1.29995e-17
2.125e-05
-3.7431e-17
2.125e-05
1.88397e-17
2.125e-05
-1.6048e-17
2.125e-05
1.09602e-17
2.125e-05
-7.259e-18
2.125e-05
3.65609e-18
2.125e-05
3.37857e-19
2.125e-05
-3.77899e-18
2.125e-05
6.49437e-18
2.125e-05
-1.45953e-17
2.125e-05
-4.88074e-18
2.125e-05
-2.35209e-16
2.125e-05
3.82851e-16
2.125e-05
-1.45322e-14
-1.53373e-14
2.375e-05
-1.51058e-14
2.375e-05
-1.63997e-14
2.375e-05
-1.54647e-15
2.375e-05
-3.21895e-16
2.375e-05
-5.19825e-17
2.375e-05
-6.10215e-18
2.375e-05
-6.36892e-18
2.375e-05
3.57884e-18
2.375e-05
-3.78869e-18
2.375e-05
3.06481e-18
2.375e-05
-2.63746e-18
2.375e-05
2.87652e-18
2.375e-05
-2.72095e-18
2.375e-05
1.91341e-18
2.375e-05
-6.57995e-18
2.375e-05
-1.70628e-17
2.375e-05
-2.22504e-16
2.375e-05
3.68704e-16
2.375e-05
-1.42885e-14
-1.48917e-14
2.625e-05
-1.28851e-14
2.625e-05
-1.44753e-14
2.625e-05
-1.48163e-15
2.625e-05
-2.56134e-16
2.625e-05
-8.84368e-17
2.625e-05
2.55163e-17
2.625e-05
-3.12805e-17
2.625e-05
2.30314e-17
2.625e-05
-1.8361e-17
2.625e-05
1.32421e-17
2.625e-05
-8.79825e-18
2.625e-05
5.28765e-18
2.625e-05
-1.54385e-18
2.625e-05
-2.7674e-18
2.625e-05
1.73931e-18
2.625e-05
-2.85823e-17
2.625e-05
-1.99426e-16
2.625e-05
3.34933e-16
2.625e-05
-1.33688e-14
-1.37398e-14
2.875e-05
-1.01912e-14
2.875e-05
-1.1996e-14
2.875e-05
-1.34835e-15
2.875e-05
-1.80075e-16
2.875e-05
-1.1995e-16
2.875e-05
5.52435e-17
2.875e-05
-5.41741e-17
2.875e-05
4.09865e-17
2.875e-05
-3.17713e-17
2.875e-05
2.25869e-17
2.875e-05
-1.44184e-17
2.875e-05
7.40774e-18
2.875e-05
-3.37904e-19
2.875e-05
-7.19898e-18
2.875e-05
9.77048e-18
2.875e-05
-3.86266e-17
2.875e-05
-1.67884e-16
2.875e-05
2.84076e-16
2.875e-05
-1.18783e-14
-1.20033e-14
3.125e-05
-7.30934e-15
3.125e-05
-9.2389e-15
3.125e-05
-1.16498e-15
3.125e-05
-1.00476e-16
3.125e-05
-1.44366e-16
3.125e-05
8.08947e-17
3.125e-05
-7.3404e-17
3.125e-05
5.61477e-17
3.125e-05
-4.30403e-17
3.125e-05
3.04078e-17
3.125e-05
-1.91107e-17
3.125e-05
9.10451e-18
3.125e-05
7.91669e-19
3.125e-05
-1.10442e-17
3.125e-05
1.689e-17
3.125e-05
-4.64159e-17
3.125e-05
-1.30575e-16
3.125e-05
2.20946e-16
3.125e-05
-9.97199e-15
-9.85712e-15
3.375e-05
-4.53447e-15
3.375e-05
-6.49461e-15
3.375e-05
-9.53775e-16
3.375e-05
-2.48418e-17
3.375e-05
-1.59733e-16
3.375e-05
1.00324e-16
3.375e-05
-8.73777e-17
3.375e-05
6.72494e-17
3.375e-05
-5.12283e-17
3.375e-05
3.60931e-17
3.375e-05
-2.24925e-17
3.375e-05
1.02348e-17
3.375e-05
1.75547e-18
3.375e-05
-1.39669e-17
3.375e-05
2.25138e-17
3.375e-05
-5.12641e-17
3.375e-05
-9.08775e-17
3.375e-05
1.52344e-16
3.375e-05
-7.83787e-15
-7.51096e-15
3.625e-05
-2.14651e-15
3.625e-05
-4.03951e-15
3.625e-05
-7.36983e-16
3.625e-05
3.91004e-17
3.625e-05
-1.64332e-16
3.625e-05
1.11444e-16
3.625e-05
-9.45732e-17
3.625e-05
7.308e-17
3.625e-05
-5.54398e-17
3.625e-05
3.8993e-17
3.625e-05
-2.4184e-17
3.625e-05
1.06892e-17
3.625e-05
2.44229e-18
3.625e-05
-1.56573e-17
3.625e-05
2.6016e-17
3.625e-05
-5.252e-17
3.625e-05
-5.25583e-17
3.625e-05
8.6218e-17
3.625e-05
-5.68141e-15
-5.19322e-15
3.875e-05
-3.66051e-16
3.875e-05
-2.08897e-15
3.875e-05
-5.33657e-16
3.875e-05
8.40634e-17
3.875e-05
-1.56583e-16
3.875e-05
1.12283e-16
3.875e-05
-9.35639e-17
3.875e-05
7.2507e-17
3.875e-05
-5.48521e-17
3.875e-05
3.85569e-17
3.875e-05
-2.38277e-17
3.875e-05
1.03091e-17
3.875e-05
2.75879e-18
3.875e-05
-1.5828e-17
3.875e-05
2.68735e-17
3.875e-05
-4.96791e-17
3.875e-05
-1.95834e-17
3.875e-05
3.07462e-17
3.875e-05
-3.69798e-15
-3.12181e-15
4.125e-05
6.5949e-16
4.125e-05
-7.80193e-16
4.125e-05
-3.55716e-16
4.125e-05
1.03634e-16
4.125e-05
-1.34986e-16
4.125e-05
1.00974e-16
4.125e-05
-8.29951e-17
4.125e-05
6.44652e-17
4.125e-05
-4.86766e-17
4.125e-05
3.42129e-17
4.125e-05
-2.10946e-17
4.125e-05
9.00188e-18
4.125e-05
2.6499e-18
4.125e-05
-1.42284e-17
4.125e-05
2.45488e-17
4.125e-05
-4.23706e-17
4.125e-05
4.26152e-18
4.125e-05
-7.19072e-18
4.125e-05
-2.06093e-15
-1.49015e-15
4.375e-05
9.18632e-16
4.375e-05
-1.08574e-16
4.375e-05
-2.06483e-16
4.375e-05
9.27866e-17
4.375e-05
-9.81314e-17
4.375e-05
7.58199e-17
4.375e-05
-6.16588e-17
4.375e-05
4.79838e-17
4.375e-05
-3.61884e-17
4.375e-05
2.54448e-17
4.375e-05
-1.56647e-17
4.375e-05
6.62266e-18
4.375e-05
2.05714e-18
4.375e-05
-1.06371e-17
4.375e-05
1.86202e-17
4.375e-05
-3.0361e-17
4.375e-05
1.5525e-17
4.375e-05
-2.29936e-17
4.375e-05
-8.79829e-16
-4.24088e-16
4.625e-05
5.15994e-16
4.625e-05
5.39768e-17
4.625e-05
-7.9144e-17
4.625e-05
4.78764e-17
4.625e-05
-4.45461e-17
4.625e-05
3.52469e-17
4.625e-05
-2.84486e-17
4.625e-05
2.21743e-17
4.625e-05
-1.66972e-17
4.625e-05
1.17455e-17
4.625e-05
-7.22663e-18
4.625e-05
3.04078e-18
4.625e-05
9.74897e-19
4.625e-05
-4.92192e-18
4.625e-05
8.70504e-18
4.625e-05
-1.35534e-17
4.625e-05
1.13735e-17
4.625e-05
-1.60233e-17
4.625e-05
-2.05981e-16
1.4449e-17
4.875e-05
4.875e-05
4.875e-05
4.875e-05
4.875e-05
4.875e-05
4.875e-05
4.875e-05
4.875e-05
4.875e-05
4.875e-05
4.875e-05
4.875e-05
4.875e-05
4.875e-05
4.875e-05
4.875e-05
4.875e-05
4.875e-05
)
;

boundaryField
{
    top
    {
        type            calculated;
        value           uniform 0;
    }
    bottom
    {
        type            calculated;
        value           uniform 0;
    }
    inlet
    {
        type            calculated;
        value           nonuniform List<scalar> 
20
(
-1.25e-06
-3.75e-06
-6.24999e-06
-8.74999e-06
-1.125e-05
-1.375e-05
-1.625e-05
-1.875e-05
-2.125e-05
-2.375e-05
-2.625e-05
-2.875e-05
-3.125e-05
-3.375e-05
-3.625e-05
-3.875e-05
-4.125e-05
-4.375e-05
-4.625e-05
-4.875e-05
)
;
    }
    outlet
    {
        type            calculated;
        value           nonuniform List<scalar> 
20
(
1.25e-06
3.75e-06
6.24999e-06
8.74999e-06
1.125e-05
1.375e-05
1.625e-05
1.875e-05
2.125e-05
2.375e-05
2.625e-05
2.875e-05
3.125e-05
3.375e-05
3.625e-05
3.875e-05
4.125e-05
4.375e-05
4.625e-05
4.875e-05
)
;
    }
    frontAndBack
    {
        type            empty;
        value           nonuniform 0();
    }
}


// ************************************************************************* //
