/*--------------------------------*- C++ -*----------------------------------*\
| =========                 |                                                 |
| \\      /  F ield         | OpenFOAM: The Open Source CFD Toolbox           |
|  \\    /   O peration     | Version:  4.1                                   |
|   \\  /    A nd           | Web:      www.OpenFOAM.org                      |
|    \\/     M anipulation  |                                                 |
\*---------------------------------------------------------------------------*/
FoamFile
{
    version     2.0;
    format      ascii;
    class       volVectorField;
    location    "2.7";
    object      U;
}
// * * * * * * * * * * * * * * * * * * * * * * * * * * * * * * * * * * * * * //

dimensions      [0 1 -1 0 0 0 0];

internalField   nonuniform List<vector> 
400
(
(0.025 -5.75896e-13 0)
(0.025 -3.58307e-13 0)
(0.025 1.32934e-14 0)
(0.025 -3.15095e-14 0)
(0.025 2.21392e-14 0)
(0.025 -1.85289e-14 0)
(0.025 1.46996e-14 0)
(0.025 -1.14951e-14 0)
(0.025 8.63147e-15 0)
(0.025 -6.06744e-15 0)
(0.025 3.72219e-15 0)
(0.025 -1.52615e-15 0)
(0.025 -5.62584e-16 0)
(0.025 2.59507e-15 0)
(0.025 -4.69268e-15 0)
(0.025 6.50991e-15 0)
(0.025 -1.14011e-14 0)
(0.025 1.47156e-14 0)
(0.025 -2.02002e-13 0)
(0.025 -3.29742e-13 0)
(0.0749999 -2.42897e-12 0)
(0.0749999 -1.79155e-12 0)
(0.0749999 -4.661e-15 0)
(0.0749999 -1.06682e-13 0)
(0.0749999 6.73578e-14 0)
(0.0749999 -5.76259e-14 0)
(0.0749999 4.54222e-14 0)
(0.0749999 -3.55478e-14 0)
(0.0749999 2.66553e-14 0)
(0.0749999 -1.87129e-14 0)
(0.0749999 1.14419e-14 0)
(0.0749999 -4.61651e-15 0)
(0.0749999 -1.86792e-15 0)
(0.0749999 8.15648e-15 0)
(0.0749999 -1.48018e-14 0)
(0.0749999 1.98414e-14 0)
(0.0749999 -4.10939e-14 0)
(0.0749999 5.91268e-14 0)
(0.0749999 -1.09294e-12 0)
(0.0749999 -1.51011e-12 0)
(0.125 -5.39272e-12 0)
(0.125 -4.4763e-12 0)
(0.125 -1.32777e-13 0)
(0.125 -1.95141e-13 0)
(0.125 1.04126e-13 0)
(0.125 -9.26565e-14 0)
(0.125 7.22627e-14 0)
(0.125 -5.66346e-14 0)
(0.125 4.23816e-14 0)
(0.125 -2.96962e-14 0)
(0.125 1.80737e-14 0)
(0.125 -7.1215e-15 0)
(0.125 -3.26384e-15 0)
(0.125 1.32887e-14 0)
(0.125 -2.42643e-14 0)
(0.125 3.06765e-14 0)
(0.125 -8.12538e-14 0)
(0.125 1.14735e-13 0)
(0.125 -2.8704e-12 0)
(0.125 -3.57632e-12 0)
(0.175 -8.72933e-12 0)
(0.175 -7.76941e-12 0)
(0.175 -3.47124e-13 0)
(0.175 -2.7382e-13 0)
(0.175 1.2118e-13 0)
(0.175 -1.13355e-13 0)
(0.175 8.72444e-14 0)
(0.175 -6.85026e-14 0)
(0.175 5.11335e-14 0)
(0.175 -3.57506e-14 0)
(0.175 2.16355e-14 0)
(0.175 -8.27365e-15 0)
(0.175 -4.36591e-15 0)
(0.175 1.64957e-14 0)
(0.175 -3.03577e-14 0)
(0.175 3.57588e-14 0)
(0.175 -1.22232e-13 0)
(0.175 1.76862e-13 0)
(0.175 -5.18375e-12 0)
(0.175 -6.10599e-12 0)
(0.225 -1.19043e-11 0)
(0.225 -1.1103e-11 0)
(0.225 -6.14251e-13 0)
(0.225 -3.3736e-13 0)
(0.225 1.19932e-13 0)
(0.225 -1.20118e-13 0)
(0.225 9.0873e-14 0)
(0.225 -7.15309e-14 0)
(0.225 5.32235e-14 0)
(0.225 -3.71204e-14 0)
(0.225 2.23119e-14 0)
(0.225 -8.21054e-15 0)
(0.225 -5.08416e-15 0)
(0.225 1.7749e-14 0)
(0.225 -3.30136e-14 0)
(0.225 3.5442e-14 0)
(0.225 -1.60564e-13 0)
(0.225 2.3651e-13 0)
(0.225 -7.68504e-12 0)
(0.225 -8.74058e-12 0)
(0.275 -1.45416e-11 0)
(0.275 -1.40381e-11 0)
(0.275 -8.94102e-13 0)
(0.275 -3.82995e-13 0)
(0.275 1.04546e-13 0)
(0.275 -1.1545e-13 0)
(0.275 8.5344e-14 0)
(0.275 -6.74187e-14 0)
(0.275 4.99528e-14 0)
(0.275 -3.47372e-14 0)
(0.275 2.07016e-14 0)
(0.275 -7.22542e-15 0)
(0.275 -5.41833e-15 0)
(0.275 1.73427e-14 0)
(0.275 -3.273e-14 0)
(0.275 3.09084e-14 0)
(0.275 -1.93529e-13 0)
(0.275 2.91159e-13 0)
(0.275 -1.00782e-11 0)
(0.275 -1.11928e-11 0)
(0.325 -1.63851e-11 0)
(0.325 -1.62661e-11 0)
(0.325 -1.15319e-12 0)
(0.325 -4.08373e-13 0)
(0.325 7.85025e-14 0)
(0.325 -1.01423e-13 0)
(0.325 7.24838e-14 0)
(0.325 -5.75757e-14 0)
(0.325 4.2398e-14 0)
(0.325 -2.93663e-14 0)
(0.325 1.72905e-14 0)
(0.325 -5.55396e-15 0)
(0.325 -5.37686e-15 0)
(0.325 1.55348e-14 0)
(0.325 -2.99328e-14 0)
(0.325 2.31251e-14 0)
(0.325 -2.18795e-13 0)
(0.325 3.36719e-13 0)
(0.325 -1.21229e-11 0)
(0.325 -1.32275e-11 0)
(0.375 -1.72723e-11 0)
(0.375 -1.7579e-11 0)
(0.375 -1.36305e-12 0)
(0.375 -4.11573e-13 0)
(0.375 4.49049e-14 0)
(0.375 -7.98732e-14 0)
(0.375 5.3911e-14 0)
(0.375 -4.32481e-14 0)
(0.375 3.15067e-14 0)
(0.375 -2.16795e-14 0)
(0.375 1.25025e-14 0)
(0.375 -3.39568e-15 0)
(0.375 -4.97839e-15 0)
(0.375 1.25693e-14 0)
(0.375 -2.50231e-14 0)
(0.375 1.29575e-14 0)
(0.375 -2.34303e-13 0)
(0.375 3.6911e-13 0)
(0.375 -1.3629e-11 0)
(0.375 -1.4659e-11 0)
(0.425 -1.71473e-11 0)
(0.425 -1.78804e-11 0)
(0.425 -1.50264e-12 0)
(0.425 -3.92138e-13 0)
(0.425 6.81059e-15 0)
(0.425 -5.27465e-14 0)
(0.425 3.12986e-14 0)
(0.425 -2.5732e-14 0)
(0.425 1.82574e-14 0)
(0.425 -1.23705e-14 0)
(0.425 6.77476e-15 0)
(0.425 -9.43625e-16 0)
(0.425 -4.26322e-15 0)
(0.425 8.71478e-15 0)
(0.425 -1.8454e-14 0)
(0.425 1.27875e-15 0)
(0.425 -2.38709e-13 0)
(0.425 3.84637e-13 0)
(0.425 -1.44684e-11 0)
(0.425 -1.53652e-11 0)
(0.475 -1.60571e-11 0)
(0.475 -1.71836e-11 0)
(0.475 -1.5601e-12 0)
(0.475 -3.51364e-13 0)
(0.475 -3.28047e-14 0)
(0.475 -2.21082e-14 0)
(0.475 6.37643e-15 0)
(0.475 -6.36051e-15 0)
(0.475 3.6679e-15 0)
(0.475 -2.14764e-15 0)
(0.475 5.30392e-16 0)
(0.475 1.62003e-15 0)
(0.475 -3.29302e-15 0)
(0.475 4.27026e-15 0)
(0.475 -1.07339e-14 0)
(0.475 -1.10265e-14 0)
(0.475 -2.31552e-13 0)
(0.475 3.8074e-13 0)
(0.475 -1.45822e-11 0)
(0.475 -1.52962e-11 0)
(0.525 -1.41425e-11 0)
(0.525 -1.56037e-11 0)
(0.525 -1.53353e-12 0)
(0.525 -2.92354e-13 0)
(0.525 -7.11625e-14 0)
(0.525 9.90745e-15 0)
(0.525 -1.91137e-14 0)
(0.525 1.35137e-14 0)
(0.525 -1.12438e-14 0)
(0.525 8.27769e-15 0)
(0.525 -5.8015e-15 0)
(0.525 4.13479e-15 0)
(0.525 -2.15125e-15 0)
(0.525 -4.44613e-16 0)
(0.525 -2.4204e-15 0)
(0.525 -2.30848e-14 0)
(0.525 -2.13311e-13 0)
(0.525 3.56559e-13 0)
(0.525 -1.39821e-11 0)
(0.525 -1.44752e-11 0)
(0.575 -1.16199e-11 0)
(0.575 -1.33394e-11 0)
(0.575 -1.43062e-12 0)
(0.575 -2.19917e-13 0)
(0.575 -1.05719e-13 0)
(0.575 4.11254e-14 0)
(0.575 -4.34375e-14 0)
(0.575 3.25464e-14 0)
(0.575 -2.54804e-14 0)
(0.575 1.82082e-14 0)
(0.575 -1.17923e-14 0)
(0.575 6.43655e-15 0)
(0.575 -9.3481e-16 0)
(0.575 -5.08676e-15 0)
(0.575 5.90565e-15 0)
(0.575 -3.4064e-14 0)
(0.575 -1.85434e-13 0)
(0.575 3.13418e-13 0)
(0.575 -1.27449e-11 0)
(0.575 -1.29944e-11 0)
(0.625 -8.76047e-12 0)
(0.625 -1.06512e-11 0)
(0.625 -1.26703e-12 0)
(0.625 -1.40311e-13 0)
(0.625 -1.34188e-13 0)
(0.625 6.93499e-14 0)
(0.625 -6.49015e-14 0)
(0.625 4.94221e-14 0)
(0.625 -3.80554e-14 0)
(0.625 2.69534e-14 0)
(0.625 -1.7046e-14 0)
(0.625 8.3791e-15 0)
(0.625 2.58654e-16 0)
(0.625 -9.30919e-15 0)
(0.625 1.36328e-14 0)
(0.625 -4.31639e-14 0)
(0.625 -1.50258e-13 0)
(0.625 2.5502e-13 0)
(0.625 -1.10041e-11 0)
(0.625 -1.10055e-11 0)
(0.675 -5.86118e-12 0)
(0.675 -7.83037e-12 0)
(0.675 -1.06393e-12 0)
(0.675 -6.07946e-14 0)
(0.675 -1.54529e-13 0)
(0.675 9.24129e-14 0)
(0.675 -8.18881e-14 0)
(0.675 6.28582e-14 0)
(0.675 -4.801e-14 0)
(0.675 3.38614e-14 0)
(0.675 -2.11749e-14 0)
(0.675 9.825e-15 0)
(0.675 1.33057e-15 0)
(0.675 -1.27743e-14 0)
(0.675 2.01531e-14 0)
(0.675 -4.96473e-14 0)
(0.675 -1.10873e-13 0)
(0.675 1.87305e-13 0)
(0.675 -8.93555e-12 0)
(0.675 -8.70525e-12 0)
(0.725 -3.2179e-12 0)
(0.725 -5.17021e-12 0)
(0.725 -8.44548e-13 0)
(0.725 1.0932e-14 0)
(0.725 -1.64964e-13 0)
(0.725 1.0823e-13 0)
(0.725 -9.28685e-14 0)
(0.725 7.16384e-14 0)
(0.725 -5.444e-14 0)
(0.725 3.83144e-14 0)
(0.725 -2.38085e-14 0)
(0.725 1.06509e-14 0)
(0.725 2.18012e-15 0)
(0.725 -1.51614e-14 0)
(0.725 2.48683e-14 0)
(0.725 -5.28546e-14 0)
(0.725 -7.08928e-14 0)
(0.725 1.17859e-13 0)
(0.725 -6.74134e-12 0)
(0.725 -6.31829e-12 0)
(0.775 -1.08788e-12 0)
(0.775 -2.92487e-12 0)
(0.775 -6.3058e-13 0)
(0.775 6.72894e-14 0)
(0.775 -1.63908e-13 0)
(0.775 1.14803e-13 0)
(0.775 -9.63976e-14 0)
(0.775 7.46124e-14 0)
(0.775 -5.65089e-14 0)
(0.775 3.97258e-14 0)
(0.775 -2.45846e-14 0)
(0.775 1.07287e-14 0)
(0.775 2.70561e-15 0)
(0.775 -1.61768e-14 0)
(0.775 2.72115e-14 0)
(0.775 -5.22166e-14 0)
(0.775 -3.42198e-14 0)
(0.775 5.5026e-14 0)
(0.775 -4.62644e-12 0)
(0.775 -4.07246e-12 0)
(0.825 3.29448e-13 0)
(0.825 -1.28232e-12 0)
(0.825 -4.3745e-13 0)
(0.825 1.00923e-13 0)
(0.825 -1.49426e-13 0)
(0.825 1.09896e-13 0)
(0.825 -9.0827e-14 0)
(0.825 7.04811e-14 0)
(0.825 -5.32577e-14 0)
(0.825 3.74295e-14 0)
(0.825 -2.30957e-14 0)
(0.825 9.90448e-15 0)
(0.825 2.82187e-15 0)
(0.825 -1.55028e-14 0)
(0.825 2.65686e-14 0)
(0.825 -4.71662e-14 0)
(0.825 -4.87551e-15 0)
(0.825 6.92637e-15 0)
(0.825 -2.78056e-12 0)
(0.825 -2.18124e-12 0)
(0.875 9.45725e-13 0)
(0.875 -3.06789e-13 0)
(0.875 -2.71971e-13 0)
(0.875 1.04409e-13 0)
(0.875 -1.19023e-13 0)
(0.875 9.08062e-14 0)
(0.875 -7.41576e-14 0)
(0.875 5.76647e-14 0)
(0.875 -4.35059e-14 0)
(0.875 3.05814e-14 0)
(0.875 -1.88341e-14 0)
(0.875 7.98639e-15 0)
(0.875 2.44397e-15 0)
(0.875 -1.27787e-14 0)
(0.875 2.22298e-14 0)
(0.875 -3.71024e-14 0)
(0.875 1.28371e-14 0)
(0.875 -2.05641e-14 0)
(0.875 -1.34948e-12 0)
(0.875 -8.14309e-13 0)
(0.925 8.18771e-13 0)
(0.925 6.59884e-14 0)
(0.925 -1.33749e-13 0)
(0.925 7.52044e-14 0)
(0.925 -7.25388e-14 0)
(0.925 5.69828e-14 0)
(0.925 -4.61044e-14 0)
(0.925 3.59146e-14 0)
(0.925 -2.70642e-14 0)
(0.925 1.90316e-14 0)
(0.925 -1.17099e-14 0)
(0.925 4.93135e-15 0)
(0.925 1.571e-15 0)
(0.925 -7.97797e-15 0)
(0.925 1.40534e-14 0)
(0.925 -2.22716e-14 0)
(0.925 1.61555e-14 0)
(0.925 -2.31517e-14 0)
(0.925 -4.34975e-13 0)
(0.925 -8.26291e-14 0)
(0.975 3.05606e-13 0)
(0.975 6.81854e-14 0)
(0.975 -3.68799e-14 0)
(0.975 2.59796e-14 0)
(0.975 -2.30683e-14 0)
(0.975 1.8412e-14 0)
(0.975 -1.48172e-14 0)
(0.975 1.1555e-14 0)
(0.975 -8.69842e-15 0)
(0.975 6.12076e-15 0)
(0.975 -3.76363e-15 0)
(0.975 1.5811e-15 0)
(0.975 5.10596e-16 0)
(0.975 -2.56685e-15 0)
(0.975 4.55905e-15 0)
(0.975 -7.00143e-15 0)
(0.975 6.7289e-15 0)
(0.975 -1.05099e-14 0)
(0.975 -5.67904e-14 0)
(0.975 6.12635e-14 0)
)
;

boundaryField
{
    top
    {
        type            fixedValue;
        value           uniform (1 0 0);
    }
    bottom
    {
        type            fixedValue;
        value           uniform (0 0 0);
    }
    inlet
    {
        type            zeroGradient;
    }
    outlet
    {
        type            zeroGradient;
    }
    frontAndBack
    {
        type            empty;
    }
}


// ************************************************************************* //
