/*--------------------------------*- C++ -*----------------------------------*\
| =========                 |                                                 |
| \\      /  F ield         | OpenFOAM: The Open Source CFD Toolbox           |
|  \\    /   O peration     | Version:  4.1                                   |
|   \\  /    A nd           | Web:      www.OpenFOAM.org                      |
|    \\/     M anipulation  |                                                 |
\*---------------------------------------------------------------------------*/
FoamFile
{
    version     2.0;
    format      ascii;
    class       surfaceScalarField;
    location    "0.8";
    object      phi;
}
// * * * * * * * * * * * * * * * * * * * * * * * * * * * * * * * * * * * * * //

dimensions      [0 3 -1 0 0 0 0];

internalField   nonuniform List<scalar> 
760
(
-1.91606e-05
1.05767e-11
-1.91606e-05
1.05972e-11
-1.91606e-05
1.09776e-11
-1.91606e-05
1.38979e-11
-1.91606e-05
1.30608e-11
-1.91606e-05
8.23401e-12
-1.91606e-05
1.52388e-11
-1.91606e-05
1.02638e-11
-1.91606e-05
1.37421e-11
-1.91606e-05
1.18663e-11
-1.91606e-05
1.12959e-11
-1.91606e-05
1.35173e-11
-1.91606e-05
7.64009e-12
-1.91606e-05
1.31426e-11
-1.91606e-05
5.54407e-12
-1.91606e-05
1.29737e-11
-1.91606e-05
-8.8366e-13
-1.91606e-05
9.92648e-12
-1.91606e-05
-4.37003e-13
6.15358e-12
-5.11491e-05
3.20164e-11
-5.11492e-05
3.87133e-11
-5.11492e-05
3.4078e-11
-5.11492e-05
2.91978e-11
-5.11492e-05
3.02105e-11
-5.11492e-05
1.42863e-11
-5.11492e-05
3.26457e-11
-5.11492e-05
1.79756e-11
-5.11492e-05
2.91883e-11
-5.11492e-05
2.14286e-11
-5.11492e-05
2.38155e-11
-5.11492e-05
2.51021e-11
-5.11492e-05
1.61463e-11
-5.11492e-05
2.50406e-11
-5.11492e-05
1.10033e-11
-5.11492e-05
2.51278e-11
-5.11492e-05
4.21563e-14
-5.11492e-05
1.39239e-11
-5.11492e-05
5.75207e-13
2.24423e-11
-7.68051e-05
6.47845e-11
-7.68051e-05
8.59831e-11
-7.68052e-05
6.46936e-11
-7.68052e-05
4.96721e-11
-7.68052e-05
5.0315e-11
-7.68052e-05
2.30573e-11
-7.68052e-05
5.21558e-11
-7.68052e-05
2.79176e-11
-7.68052e-05
4.69235e-11
-7.68052e-05
3.27595e-11
-7.68052e-05
3.87779e-11
-7.68052e-05
3.77676e-11
-7.68052e-05
2.74033e-11
-7.68052e-05
3.72852e-11
-7.68052e-05
1.89121e-11
-7.68052e-05
3.67637e-11
-7.68052e-05
5.52006e-12
-7.68052e-05
1.1051e-11
-7.68052e-05
1.18456e-11
4.5102e-11
-9.61287e-05
1.07904e-10
-9.61287e-05
1.49424e-10
-9.61288e-05
9.96894e-11
-9.61288e-05
7.31123e-11
-9.61288e-05
7.14279e-11
-9.61288e-05
3.4255e-11
-9.61288e-05
7.16727e-11
-9.61288e-05
3.98125e-11
-9.61288e-05
6.49617e-11
-9.61288e-05
4.54655e-11
-9.61288e-05
5.43909e-11
-9.61288e-05
5.09495e-11
-9.61288e-05
3.99613e-11
-9.61288e-05
4.92928e-11
-9.61288e-05
2.80426e-11
-9.61288e-05
4.73698e-11
-9.61288e-05
1.4429e-11
-9.61288e-05
2.62518e-12
-9.61288e-05
3.41886e-11
7.46387e-11
-0.00010912
1.58794e-10
-0.00010912
2.24238e-10
-0.00010912
1.34905e-10
-0.00010912
9.79334e-11
-0.00010912
9.13386e-11
-0.00010912
4.73245e-11
-0.00010912
8.9306e-11
-0.00010912
5.32688e-11
-0.00010912
8.15027e-11
-0.00010912
5.92263e-11
-0.00010912
6.90158e-11
-0.00010912
6.44357e-11
-0.00010912
5.2384e-11
-0.00010912
6.08893e-11
-0.00010912
3.74082e-11
-0.00010912
5.68942e-11
-0.00010912
2.54983e-11
-0.00010912
-9.52136e-12
-0.00010912
6.74521e-11
1.09809e-10
-0.000115779
2.13397e-10
-0.000115779
3.04458e-10
-0.000115779
1.67052e-10
-0.000115779
1.21527e-10
-0.000115779
1.07906e-10
-0.000115779
6.08115e-11
-0.000115779
1.0297e-10
-0.000115779
6.68234e-11
-0.000115779
9.45221e-11
-0.000115779
7.26171e-11
-0.000115779
8.07809e-11
-0.000115779
7.69018e-11
-0.000115779
6.30209e-11
-0.000115779
7.10111e-11
-0.000115779
4.57002e-11
-0.000115779
6.44582e-11
-0.000115779
3.75735e-11
-0.000115779
-2.43327e-11
-0.000115779
1.09149e-10
1.4871e-10
-0.000116106
2.66946e-10
-0.000116107
3.83672e-10
-0.000116107
1.93775e-10
-0.000116107
1.42097e-10
-0.000116107
1.20018e-10
-0.000116107
7.37233e-11
-0.000116107
1.11795e-10
-0.000116107
7.95243e-11
-0.000116107
1.03178e-10
-0.000116107
8.47543e-11
-0.000116107
8.88813e-11
-0.000116107
8.75739e-11
-0.000116107
7.11101e-11
-0.000116107
7.90832e-11
-0.000116107
5.22982e-11
-0.000116107
6.95887e-11
-0.000116107
4.98873e-11
-0.000116107
-4.06661e-11
-0.000116107
1.55556e-10
1.88409e-10
-0.000110102
3.1435e-10
-0.000110102
4.55357e-10
-0.000110102
2.13676e-10
-0.000110102
1.58437e-10
-0.000110102
1.27343e-10
-0.000110102
8.55107e-11
-0.000110102
1.15799e-10
-0.000110102
9.08558e-11
-0.000110102
1.07498e-10
-0.000110102
9.51893e-11
-0.000110102
9.33261e-11
-0.000110102
9.60897e-11
-0.000110102
7.65694e-11
-0.000110102
8.4903e-11
-0.000110102
5.71227e-11
-0.000110102
7.21162e-11
-0.000110102
6.20021e-11
-0.000110102
-5.72934e-11
-0.000110102
2.02035e-10
2.25467e-10
-9.77654e-05
3.50616e-10
-9.77654e-05
5.131e-10
-9.77654e-05
2.25834e-10
-9.77654e-05
1.69626e-10
-9.77654e-05
1.29859e-10
-9.77654e-05
9.55931e-11
-9.77654e-05
1.15369e-10
-9.77654e-05
1.00261e-10
-9.77654e-05
1.07832e-10
-9.77654e-05
1.03446e-10
-9.77654e-05
9.44066e-11
-9.77654e-05
1.02092e-10
-9.77654e-05
7.95194e-11
-9.77654e-05
8.83078e-11
-9.77654e-05
6.02501e-11
-9.77654e-05
7.1934e-11
-9.77654e-05
7.34565e-11
-9.77654e-05
-7.3008e-11
-9.77655e-05
2.43523e-10
2.56113e-10
-7.90971e-05
3.71446e-10
-7.90972e-05
5.51148e-10
-7.90972e-05
2.29689e-10
-7.90972e-05
1.75032e-10
-7.90972e-05
1.27738e-10
-7.90972e-05
1.03388e-10
-7.90972e-05
1.11091e-10
-7.90972e-05
1.07187e-10
-7.90972e-05
1.04707e-10
-7.90972e-05
1.09064e-10
-7.90972e-05
9.25645e-11
-7.90972e-05
1.05267e-10
-7.90972e-05
8.01826e-11
-7.90972e-05
8.9179e-11
-7.90972e-05
6.18376e-11
-7.90972e-05
6.90422e-11
-7.90972e-05
8.37099e-11
-7.90972e-05
-8.6571e-11
-7.90972e-05
2.75245e-10
2.76759e-10
-5.40972e-05
3.73814e-10
-5.40972e-05
5.64996e-10
-5.40972e-05
2.24943e-10
-5.40972e-05
1.74294e-10
-5.40972e-05
1.21289e-10
-5.40972e-05
1.08289e-10
-5.40972e-05
1.0362e-10
-5.40972e-05
1.11073e-10
-5.40972e-05
9.86874e-11
-5.40972e-05
1.1158e-10
-5.40972e-05
8.82651e-11
-5.40972e-05
1.05333e-10
-5.40972e-05
7.87783e-11
-5.40972e-05
8.74251e-11
-5.40972e-05
6.20325e-11
-5.40972e-05
6.35605e-11
-5.40972e-05
9.20882e-11
-5.40972e-05
-9.67522e-11
-5.40972e-05
2.93351e-10
2.84462e-10
-2.27655e-05
3.56484e-10
-2.27655e-05
5.52024e-10
-2.27654e-05
2.11598e-10
-2.27654e-05
1.67343e-10
-2.27654e-05
1.10952e-10
-2.27654e-05
1.09703e-10
-2.27654e-05
9.36172e-11
-2.27654e-05
1.1139e-10
-2.27654e-05
9.03212e-11
-2.27654e-05
1.1057e-10
-2.27654e-05
8.19339e-11
-2.27654e-05
1.02074e-10
-2.27654e-05
7.54781e-11
-2.27654e-05
8.29983e-11
-2.27654e-05
6.09215e-11
-2.27654e-05
5.57587e-11
-2.27654e-05
9.78001e-11
-2.27654e-05
-1.02439e-10
-2.27654e-05
2.95478e-10
2.7741e-10
1.4898e-05
3.20336e-10
1.4898e-05
5.12034e-10
1.48981e-05
1.90089e-10
1.48981e-05
1.54425e-10
1.48981e-05
9.73247e-11
1.48981e-05
1.07116e-10
1.48981e-05
8.17074e-11
1.48981e-05
1.07708e-10
1.48981e-05
8.00985e-11
1.48981e-05
1.057e-10
1.48981e-05
7.39197e-11
1.48981e-05
9.53746e-11
1.48981e-05
7.03873e-11
1.48981e-05
7.59192e-11
1.48981e-05
5.84974e-11
1.48981e-05
4.60754e-11
1.48981e-05
1.00005e-10
1.48981e-05
-1.02813e-10
1.48981e-05
2.81059e-10
2.55314e-10
5.88933e-05
2.68556e-10
5.88934e-05
4.47686e-10
5.88934e-05
1.61505e-10
5.88934e-05
1.36148e-10
5.88934e-05
8.12165e-11
5.88934e-05
1.00193e-10
5.88934e-05
6.85014e-11
5.88934e-05
9.9786e-11
5.88934e-05
6.8479e-11
5.88934e-05
9.68143e-11
5.88934e-05
6.45174e-11
5.88934e-05
8.52984e-11
5.88934e-05
6.35778e-11
5.88934e-05
6.63392e-11
5.88934e-05
5.46654e-11
5.88934e-05
3.51427e-11
5.88934e-05
9.79398e-11
5.88934e-05
-9.75318e-11
5.88934e-05
2.51434e-10
2.19703e-10
0.000109221
2.06315e-10
0.000109221
3.64523e-10
0.000109221
1.27747e-10
0.000109221
1.13457e-10
0.000109221
6.35909e-11
0.000109221
8.88278e-11
0.000109221
5.45218e-11
0.000109221
8.75977e-11
0.000109221
5.58269e-11
0.000109221
8.39789e-11
0.000109221
5.39112e-11
0.000109221
7.20973e-11
0.000109221
5.50565e-11
0.000109221
5.45576e-11
0.000109221
4.92192e-11
0.000109221
2.3729e-11
0.000109221
9.10678e-11
0.000109221
-8.69503e-11
0.000109221
2.09627e-10
1.73974e-10
0.00016588
1.40776e-10
0.00016588
2.70943e-10
0.00016588
9.1852e-11
0.00016588
8.7974e-11
0.00016588
4.59252e-11
0.00016588
7.35994e-11
0.00016588
4.06595e-11
0.00016588
7.18214e-11
0.00016588
4.28817e-11
0.00016588
6.79436e-11
0.00016588
4.26332e-11
0.00016588
5.66473e-11
0.00016588
4.51689e-11
0.00016588
4.14133e-11
0.00016588
4.21557e-11
0.00016588
1.3021e-11
0.00016588
7.93493e-11
0.00016588
-7.18841e-11
0.00016588
1.60171e-10
1.23324e-10
0.000228871
7.98044e-11
0.000228871
1.77583e-10
0.000228871
5.79927e-11
0.000228871
6.20048e-11
0.000228871
3.02219e-11
0.000228871
5.59627e-11
0.000228871
2.82825e-11
0.000228871
5.40088e-11
0.000228871
3.09003e-11
0.000228871
5.03362e-11
0.000228871
3.17215e-11
0.000228871
4.05907e-11
0.000228871
3.47852e-11
0.000228871
2.83938e-11
0.000228871
3.38783e-11
0.000228871
4.46545e-12
0.000228871
6.37334e-11
0.000228871
-5.38523e-11
0.000228871
1.08573e-10
7.43579e-11
0.000298195
3.19991e-11
0.000298195
9.45592e-11
0.000298195
2.96049e-11
0.000298195
3.71923e-11
0.000298195
1.72826e-11
0.000298195
3.66187e-11
0.000298195
1.7567e-11
0.000298195
3.50108e-11
0.000298195
1.99247e-11
0.000298195
3.21575e-11
0.000298195
2.10879e-11
0.000298195
2.50594e-11
0.000298195
2.37295e-11
0.000298195
1.66735e-11
0.000298195
2.39523e-11
0.000298195
-4.7381e-13
0.000298195
4.40736e-11
0.000298195
-3.38471e-11
0.000298195
6.05428e-11
3.39755e-11
0.000373851
3.91377e-12
0.000373851
3.31508e-11
0.000373851
1.11863e-11
0.000373851
1.61047e-11
0.000373851
9.06439e-12
0.000373851
1.78942e-11
0.000373851
1.00572e-11
0.000373851
1.71513e-11
0.000373851
1.14505e-11
0.000373851
1.57205e-11
0.000373851
1.20465e-11
0.000373851
1.2095e-11
0.000373851
1.32705e-11
0.000373851
7.96041e-12
0.000373851
1.32732e-11
0.000373851
-9.47337e-13
0.000373851
2.2807e-11
0.000373851
-1.43542e-11
0.000373851
2.17801e-11
9.17142e-12
0.000455839
0.000455839
0.000455839
0.000455839
0.000455839
0.000455839
0.000455839
0.000455839
0.000455839
0.000455839
0.000455839
0.000455839
0.000455839
0.000455839
0.000455839
0.000455839
0.000455839
0.000455839
0.000455839
)
;

boundaryField
{
    top
    {
        type            calculated;
        value           uniform 0;
    }
    bottom
    {
        type            calculated;
        value           uniform 0;
    }
    inlet
    {
        type            calculated;
        value           nonuniform List<scalar> 
20
(
1.91606e-05
5.11491e-05
7.68051e-05
9.61286e-05
0.00010912
0.000115779
0.000116106
0.000110102
9.77653e-05
7.90971e-05
5.40972e-05
2.27655e-05
-1.4898e-05
-5.88933e-05
-0.00010922
-0.00016588
-0.000228871
-0.000298195
-0.000373851
-0.000455839
)
;
    }
    outlet
    {
        type            calculated;
        value           nonuniform List<scalar> 
20
(
-1.91606e-05
-5.11492e-05
-7.68052e-05
-9.61288e-05
-0.00010912
-0.000115779
-0.000116107
-0.000110102
-9.77655e-05
-7.90972e-05
-5.40972e-05
-2.27654e-05
1.48981e-05
5.88935e-05
0.000109221
0.00016588
0.000228871
0.000298195
0.000373851
0.000455839
)
;
    }
    frontAndBack
    {
        type            empty;
        value           nonuniform 0();
    }
}


// ************************************************************************* //
