/*--------------------------------*- C++ -*----------------------------------*\
| =========                 |                                                 |
| \\      /  F ield         | OpenFOAM: The Open Source CFD Toolbox           |
|  \\    /   O peration     | Version:  4.1                                   |
|   \\  /    A nd           | Web:      www.OpenFOAM.org                      |
|    \\/     M anipulation  |                                                 |
\*---------------------------------------------------------------------------*/
FoamFile
{
    version     2.0;
    format      ascii;
    class       volVectorField;
    location    "0.8";
    object      U;
}
// * * * * * * * * * * * * * * * * * * * * * * * * * * * * * * * * * * * * * //

dimensions      [0 1 -1 0 0 0 0];

internalField   nonuniform List<vector> 
400
(
(-0.383212 4.06356e-09 0)
(-0.383212 3.42408e-09 0)
(-0.383213 4.64211e-09 0)
(-0.383213 5.76583e-09 0)
(-0.383213 5.77182e-09 0)
(-0.383213 3.4086e-09 0)
(-0.383213 6.74616e-09 0)
(-0.383213 4.39167e-09 0)
(-0.383213 6.02217e-09 0)
(-0.383213 5.19991e-09 0)
(-0.383213 4.88521e-09 0)
(-0.383212 6.02139e-09 0)
(-0.383213 3.21607e-09 0)
(-0.383212 5.89988e-09 0)
(-0.383213 2.2216e-09 0)
(-0.383213 5.93848e-09 0)
(-0.383213 -8.96563e-10 0)
(-0.383213 5.07863e-09 0)
(-0.383213 -1.29354e-09 0)
(-0.383213 2.55671e-09 0)
(-1.02298 1.92178e-08 0)
(-1.02298 2.15191e-08 0)
(-1.02298 2.13802e-08 0)
(-1.02298 2.18587e-08 0)
(-1.02298 2.23107e-08 0)
(-1.02298 1.2113e-08 0)
(-1.02298 2.51263e-08 0)
(-1.02298 1.51502e-08 0)
(-1.02298 2.26713e-08 0)
(-1.02298 1.77548e-08 0)
(-1.02298 1.86914e-08 0)
(-1.02298 2.04054e-08 0)
(-1.02298 1.28446e-08 0)
(-1.02298 2.0025e-08 0)
(-1.02298 9.01802e-09 0)
(-1.02298 1.98986e-08 0)
(-1.02298 -3.46901e-10 0)
(-1.02298 1.34576e-08 0)
(-1.02298 -8.21621e-10 0)
(-1.02298 1.24866e-08 0)
(-1.5361 4.58932e-08 0)
(-1.5361 5.8649e-08 0)
(-1.5361 4.80544e-08 0)
(-1.5361 3.90779e-08 0)
(-1.5361 4.03947e-08 0)
(-1.5361 1.8685e-08 0)
(-1.5361 4.28499e-08 0)
(-1.5361 2.30998e-08 0)
(-1.5361 3.84809e-08 0)
(-1.5361 2.73391e-08 0)
(-1.5361 3.16338e-08 0)
(-1.5361 3.17783e-08 0)
(-1.5361 2.19335e-08 0)
(-1.5361 3.15423e-08 0)
(-1.5361 1.50197e-08 0)
(-1.5361 3.1405e-08 0)
(-1.5361 2.34266e-09 0)
(-1.5361 1.37715e-08 0)
(-1.5361 4.3818e-09 0)
(-1.5361 3.18583e-08 0)
(-1.92257 8.41651e-08 0)
(-1.92257 1.14774e-07 0)
(-1.92258 8.18896e-08 0)
(-1.92258 6.06112e-08 0)
(-1.92258 6.10599e-08 0)
(-1.92258 2.82021e-08 0)
(-1.92258 6.20776e-08 0)
(-1.92258 3.34844e-08 0)
(-1.92258 5.6075e-08 0)
(-1.92257 3.88232e-08 0)
(-1.92258 4.66097e-08 0)
(-1.92257 4.41883e-08 0)
(-1.92258 3.35811e-08 0)
(-1.92257 4.32585e-08 0)
(-1.92258 2.32417e-08 0)
(-1.92257 4.22246e-08 0)
(-1.92258 9.52313e-09 0)
(-1.92258 7.55833e-09 0)
(-1.92258 2.04229e-08 0)
(-1.92258 5.87751e-08 0)
(-2.1824 1.31904e-07 0)
(-2.1824 1.85087e-07 0)
(-2.1824 1.17583e-07 0)
(-2.1824 8.5064e-08 0)
(-2.1824 8.16736e-08 0)
(-2.1824 4.03531e-08 0)
(-2.1824 8.0665e-08 0)
(-2.1824 4.61772e-08 0)
(-2.1824 7.33533e-08 0)
(-2.1824 5.20818e-08 0)
(-2.1824 6.17195e-08 0)
(-2.1824 5.75607e-08 0)
(-2.1824 4.60721e-08 0)
(-2.1824 5.50764e-08 0)
(-2.1824 3.25102e-08 0)
(-2.1824 5.23057e-08 0)
(-2.1824 1.95895e-08 0)
(-2.1824 -3.1148e-09 0)
(-2.1824 4.84769e-08 0)
(-2.1824 9.15607e-08 0)
(-2.31558 1.8556e-07 0)
(-2.31559 2.63902e-07 0)
(-2.31559 1.51742e-07 0)
(-2.31559 1.09523e-07 0)
(-2.31559 9.9936e-08 0)
(-2.31559 5.37028e-08 0)
(-2.31559 9.62779e-08 0)
(-2.31559 5.9736e-08 0)
(-2.31559 8.80683e-08 0)
(-2.31559 6.5697e-08 0)
(-2.31559 7.48693e-08 0)
(-2.31559 7.05581e-08 0)
(-2.31559 5.75806e-08 0)
(-2.31559 6.59588e-08 0)
(-2.31559 4.13423e-08 0)
(-2.31559 6.08142e-08 0)
(-2.31559 3.1268e-08 0)
(-2.31559 -1.69308e-08 0)
(-2.31559 8.6555e-08 0)
(-2.31559 1.29216e-07 0)
(-2.32213 2.40706e-07 0)
(-2.32213 3.44983e-07 0)
(-2.32213 1.81541e-07 0)
(-2.32213 1.31821e-07 0)
(-2.32213 1.14272e-07 0)
(-2.32213 6.69529e-08 0)
(-2.32213 1.0746e-07 0)
(-2.32213 7.28965e-08 0)
(-2.32213 9.88335e-08 0)
(-2.32213 7.84798e-08 0)
(-2.32213 8.4744e-08 0)
(-2.32213 8.21299e-08 0)
(-2.32213 6.69108e-08 0)
(-2.32213 7.50479e-08 0)
(-2.32213 4.87785e-08 0)
(-2.32213 6.71153e-08 0)
(-2.32213 4.35465e-08 0)
(-2.32213 -3.27597e-08 0)
(-2.32213 1.31471e-07 0)
(-2.32213 1.69263e-07 0)
(-2.20204 2.92319e-07 0)
(-2.20204 4.21807e-07 0)
(-2.20204 2.05167e-07 0)
(-2.20204 1.50496e-07 0)
(-2.20204 1.23994e-07 0)
(-2.20204 7.93987e-08 0)
(-2.20204 1.13825e-07 0)
(-2.20204 8.49865e-08 0)
(-2.20204 1.0528e-07 0)
(-2.20204 8.98226e-08 0)
(-2.20204 9.09927e-08 0)
(-2.20204 9.17575e-08 0)
(-2.20204 7.36853e-08 0)
(-2.20204 8.2001e-08 0)
(-2.20204 5.4511e-08 0)
(-2.20204 7.09163e-08 0)
(-2.20204 5.5867e-08 0)
(-2.20204 -4.94174e-08 0)
(-2.20204 1.78934e-07 0)
(-2.20204 2.08468e-07 0)
(-1.95531 3.35215e-07 0)
(-1.95531 4.87775e-07 0)
(-1.95531 2.21424e-07 0)
(-1.95531 1.64454e-07 0)
(-1.95531 1.28886e-07 0)
(-1.95531 9.04222e-08 0)
(-1.95531 1.15547e-07 0)
(-1.95531 9.54157e-08 0)
(-1.95531 1.07553e-07 0)
(-1.95531 9.921e-08 0)
(-1.95531 9.3721e-08 0)
(-1.95531 9.90336e-08 0)
(-1.95531 7.78818e-08 0)
(-1.95531 8.66062e-08 0)
(-1.95531 5.85045e-08 0)
(-1.95531 7.20439e-08 0)
(-1.95531 6.77501e-08 0)
(-1.95531 -6.57333e-08 0)
(-1.95531 2.23949e-07 0)
(-1.95531 2.43091e-07 0)
(-1.58194 3.64622e-07 0)
(-1.58194 5.36686e-07 0)
(-1.58194 2.29578e-07 0)
(-1.58194 1.7292e-07 0)
(-1.58194 1.29033e-07 0)
(-1.58194 9.94515e-08 0)
(-1.58194 1.13126e-07 0)
(-1.58194 1.03642e-07 0)
(-1.58194 1.06105e-07 0)
(-1.58194 1.06186e-07 0)
(-1.58195 9.33091e-08 0)
(-1.58194 1.03635e-07 0)
(-1.58195 7.9684e-08 0)
(-1.58194 8.87309e-08 0)
(-1.58195 6.08848e-08 0)
(-1.58194 7.04544e-08 0)
(-1.58194 7.86976e-08 0)
(-1.58194 -8.04965e-08 0)
(-1.58194 2.61462e-07 0)
(-1.58194 2.69356e-07 0)
(-1.08194 3.76762e-07 0)
(-1.08194 5.63295e-07 0)
(-1.08194 2.29188e-07 0)
(-1.08194 1.75388e-07 0)
(-1.08194 1.2468e-07 0)
(-1.08194 1.05887e-07 0)
(-1.08194 1.07188e-07 0)
(-1.08194 1.09107e-07 0)
(-1.08195 1.01487e-07 0)
(-1.08194 1.10288e-07 0)
(-1.08195 9.02142e-08 0)
(-1.08194 1.05263e-07 0)
(-1.08195 7.93151e-08 0)
(-1.08194 8.82705e-08 0)
(-1.08195 6.1805e-08 0)
(-1.08194 6.62117e-08 0)
(-1.08194 8.8097e-08 0)
(-1.08194 -9.24804e-08 0)
(-1.08194 2.87039e-07 0)
(-1.08194 2.83902e-07 0)
(-0.45531 3.69412e-07 0)
(-0.455309 5.63931e-07 0)
(-0.455309 2.2008e-07 0)
(-0.455308 1.71629e-07 0)
(-0.455309 1.16203e-07 0)
(-0.455308 1.09124e-07 0)
(-0.45531 9.83934e-08 0)
(-0.455307 1.11262e-07 0)
(-0.45531 9.42578e-08 0)
(-0.455307 1.11071e-07 0)
(-0.45531 8.48845e-08 0)
(-0.455307 1.03669e-07 0)
(-0.45531 7.69726e-08 0)
(-0.455307 8.51551e-08 0)
(-0.45531 6.13819e-08 0)
(-0.455307 5.95146e-08 0)
(-0.45531 9.5209e-08 0)
(-0.455308 -1.00508e-07 0)
(-0.455309 2.97488e-07 0)
(-0.455308 2.84271e-07 0)
(0.29796 3.42345e-07 0)
(0.297961 5.37109e-07 0)
(0.297961 2.02435e-07 0)
(0.297962 1.61709e-07 0)
(0.297961 1.04119e-07 0)
(0.297963 1.08599e-07 0)
(0.29796 8.73885e-08 0)
(0.297963 1.09617e-07 0)
(0.29796 8.49384e-08 0)
(0.297963 1.08152e-07 0)
(0.29796 7.7708e-08 0)
(0.297963 9.86851e-08 0)
(0.29796 7.27949e-08 0)
(0.297963 7.93718e-08 0)
(0.29796 5.96537e-08 0)
(0.297963 5.07217e-08 0)
(0.29796 9.92112e-08 0)
(0.297963 -1.03593e-07 0)
(0.297961 2.91307e-07 0)
(0.297962 2.69367e-07 0)
(1.17787 2.97569e-07 0)
(1.17787 4.84018e-07 0)
(1.17787 1.76971e-07 0)
(1.17787 1.46027e-07 0)
(1.17787 8.91185e-08 0)
(1.17787 1.03871e-07 0)
(1.17787 7.4775e-08 0)
(1.17787 1.03814e-07 0)
(1.17787 7.39873e-08 0)
(1.17787 1.01273e-07 0)
(1.17787 6.89907e-08 0)
(1.17787 9.02737e-08 0)
(1.17787 6.68571e-08 0)
(1.17787 7.09962e-08 0)
(1.17787 5.65582e-08 0)
(1.17787 4.03609e-08 0)
(1.17787 9.92938e-08 0)
(1.17787 -1.0114e-07 0)
(1.17787 2.68889e-07 0)
(1.17787 2.39797e-07 0)
(2.18441 2.39362e-07 0)
(2.18441 4.08819e-07 0)
(2.18441 1.45197e-07 0)
(2.18441 1.25399e-07 0)
(2.18441 7.21344e-08 0)
(2.18441 9.47692e-08 0)
(2.18441 6.11728e-08 0)
(2.18441 9.38046e-08 0)
(2.18441 6.18711e-08 0)
(2.18441 9.04387e-08 0)
(2.18441 5.90247e-08 0)
(2.18441 7.86415e-08 0)
(2.18441 5.92442e-08 0)
(2.18441 6.02967e-08 0)
(2.18441 5.19787e-08 0)
(2.18441 2.91701e-08 0)
(2.18441 9.48221e-08 0)
(2.18441 -9.30978e-08 0)
(2.18441 2.32498e-07 0)
(2.18441 1.98065e-07 0)
(3.31759 1.73855e-07 0)
(3.3176 3.18501e-07 0)
(3.3176 1.09538e-07 0)
(3.3176 1.01057e-07 0)
(3.3176 5.43178e-08 0)
(3.3176 8.14716e-08 0)
(3.3176 4.7211e-08 0)
(3.3176 7.98496e-08 0)
(3.3176 4.9065e-08 0)
(3.3176 7.59978e-08 0)
(3.3176 4.80974e-08 0)
(3.3176 6.42899e-08 0)
(3.3176 5.00752e-08 0)
(3.3176 4.77869e-08 0)
(3.3176 4.57787e-08 0)
(3.3176 1.80652e-08 0)
(3.3176 8.55064e-08 0)
(3.3176 -8.00925e-08 0)
(3.3176 1.8595e-07 0)
(3.3176 1.48508e-07 0)
(4.57742 1.08798e-07 0)
(4.57742 2.22476e-07 0)
(4.57742 7.36059e-08 0)
(4.57742 7.49215e-08 0)
(4.57742 3.74278e-08 0)
(4.57742 6.49255e-08 0)
(4.57742 3.40329e-08 0)
(4.57743 6.29967e-08 0)
(4.57742 3.65666e-08 0)
(4.57743 5.91234e-08 0)
(4.57742 3.69837e-08 0)
(4.57743 4.84761e-08 0)
(4.57742 3.99215e-08 0)
(4.57743 3.46498e-08 0)
(4.57742 3.81272e-08 0)
(4.57742 8.46368e-09 0)
(4.57742 7.1603e-08 0)
(4.57742 -6.3045e-08 0)
(4.57742 1.34237e-07 0)
(4.57743 9.70893e-08 0)
(5.96389 5.21815e-08 0)
(5.9639 1.32398e-07 0)
(5.9639 4.19707e-08 0)
(5.9639 4.93285e-08 0)
(5.9639 2.35348e-08 0)
(5.9639 4.67126e-08 0)
(5.9639 2.30666e-08 0)
(5.9639 4.49268e-08 0)
(5.9639 2.56926e-08 0)
(5.9639 4.15917e-08 0)
(5.9639 2.67676e-08 0)
(5.9639 3.3005e-08 0)
(5.9639 2.97169e-08 0)
(5.9639 2.2542e-08 0)
(5.9639 2.9444e-08 0)
(5.9639 1.75143e-09 0)
(5.9639 5.45322e-08 0)
(5.9639 -4.38349e-08 0)
(5.9639 8.32376e-08 0)
(5.9639 5.12776e-08 0)
(7.47701 1.40449e-08 0)
(7.47702 5.97235e-08 0)
(7.47702 1.87624e-08 0)
(7.47702 2.6719e-08 0)
(7.47702 1.37127e-08 0)
(7.47702 2.82842e-08 0)
(7.47702 1.48488e-08 0)
(7.47702 2.72383e-08 0)
(7.47702 1.68692e-08 0)
(7.47702 2.50824e-08 0)
(7.47702 1.77819e-08 0)
(7.47702 1.96065e-08 0)
(7.47702 1.96696e-08 0)
(7.47702 1.31411e-08 0)
(7.47702 1.96458e-08 0)
(7.47702 -2.84625e-10 0)
(7.47702 3.43733e-08 0)
(7.47702 -2.33054e-08 0)
(7.47702 3.96777e-08 0)
(7.47702 1.85349e-08 0)
(9.11679 5.48328e-10 0)
(9.11679 1.35097e-08 0)
(9.11679 3.77861e-09 0)
(9.11679 6.90462e-09 0)
(9.11679 3.51246e-09 0)
(9.11679 7.94799e-09 0)
(9.11679 4.10436e-09 0)
(9.11679 7.56348e-09 0)
(9.11679 4.86093e-09 0)
(9.11679 6.85149e-09 0)
(9.11679 5.26457e-09 0)
(9.11679 5.19474e-09 0)
(9.11679 5.93957e-09 0)
(9.11679 3.28153e-09 0)
(9.11679 5.99961e-09 0)
(9.11679 -7.17165e-10 0)
(9.11679 1.03477e-08 0)
(9.11679 -6.68163e-09 0)
(9.11679 9.81715e-09 0)
(9.11679 2.75138e-09 0)
)
;

boundaryField
{
    top
    {
        type            fixedValue;
        value           uniform (10 0 0);
    }
    bottom
    {
        type            fixedValue;
        value           uniform (0 0 0);
    }
    inlet
    {
        type            zeroGradient;
    }
    outlet
    {
        type            zeroGradient;
    }
    frontAndBack
    {
        type            empty;
    }
}


// ************************************************************************* //
