/*--------------------------------*- C++ -*----------------------------------*\
| =========                 |                                                 |
| \\      /  F ield         | OpenFOAM: The Open Source CFD Toolbox           |
|  \\    /   O peration     | Version:  4.1                                   |
|   \\  /    A nd           | Web:      www.OpenFOAM.org                      |
|    \\/     M anipulation  |                                                 |
\*---------------------------------------------------------------------------*/
FoamFile
{
    version     2.0;
    format      ascii;
    class       volScalarField;
    location    "3";
    object      p;
}
// * * * * * * * * * * * * * * * * * * * * * * * * * * * * * * * * * * * * * //

dimensions      [0 2 -2 0 0 0 0];

internalField   nonuniform List<scalar> 
400
(
2.87548e-10
3.21023e-10
2.73883e-10
2.92989e-10
2.58282e-10
2.68323e-10
2.42072e-10
2.44867e-10
2.24974e-10
2.22143e-10
2.07304e-10
1.99854e-10
1.89329e-10
1.77774e-10
1.71256e-10
1.55689e-10
1.5334e-10
1.338e-10
1.36938e-10
1.29085e-10
2.86509e-10
3.19958e-10
2.73803e-10
2.92967e-10
2.58284e-10
2.6832e-10
2.42075e-10
2.44865e-10
2.24975e-10
2.22142e-10
2.07304e-10
1.99854e-10
1.89329e-10
1.77774e-10
1.71254e-10
1.5569e-10
1.53328e-10
1.33808e-10
1.36228e-10
1.28333e-10
2.85917e-10
3.19198e-10
2.73705e-10
2.92966e-10
2.58271e-10
2.68328e-10
2.42067e-10
2.44871e-10
2.24971e-10
2.22145e-10
2.07302e-10
1.99855e-10
1.89329e-10
1.77773e-10
1.71256e-10
1.55686e-10
1.53323e-10
1.338e-10
1.35666e-10
1.27814e-10
2.85731e-10
3.18843e-10
2.73612e-10
2.92968e-10
2.58256e-10
2.68338e-10
2.42059e-10
2.44877e-10
2.24966e-10
2.22148e-10
2.073e-10
1.99856e-10
1.89329e-10
1.77772e-10
1.71259e-10
1.55682e-10
1.53321e-10
1.33781e-10
1.35344e-10
1.27549e-10
2.85789e-10
3.18769e-10
2.73524e-10
2.9297e-10
2.58244e-10
2.68346e-10
2.42053e-10
2.44882e-10
2.24962e-10
2.22151e-10
2.07299e-10
1.99857e-10
1.89329e-10
1.77771e-10
1.71261e-10
1.55678e-10
1.5332e-10
1.33756e-10
1.35209e-10
1.27457e-10
2.86008e-10
3.18883e-10
2.73437e-10
2.92971e-10
2.58235e-10
2.68352e-10
2.42047e-10
2.44886e-10
2.24959e-10
2.22153e-10
2.07297e-10
1.99857e-10
1.8933e-10
1.7777e-10
1.71262e-10
1.55676e-10
1.5332e-10
1.33728e-10
1.35224e-10
1.275e-10
2.8634e-10
3.19129e-10
2.73347e-10
2.9297e-10
2.58227e-10
2.68357e-10
2.42043e-10
2.4489e-10
2.24957e-10
2.22155e-10
2.07296e-10
1.99858e-10
1.8933e-10
1.77769e-10
1.71263e-10
1.55674e-10
1.5332e-10
1.33699e-10
1.35363e-10
1.27655e-10
2.86731e-10
3.19449e-10
2.73256e-10
2.92968e-10
2.5822e-10
2.68361e-10
2.4204e-10
2.44892e-10
2.24955e-10
2.22156e-10
2.07296e-10
1.99858e-10
1.8933e-10
1.77769e-10
1.71265e-10
1.55672e-10
1.53321e-10
1.33672e-10
1.35597e-10
1.27891e-10
2.87126e-10
3.19786e-10
2.73161e-10
2.92964e-10
2.58215e-10
2.68363e-10
2.42038e-10
2.44894e-10
2.24954e-10
2.22157e-10
2.07295e-10
1.99858e-10
1.8933e-10
1.77768e-10
1.71265e-10
1.55671e-10
1.53322e-10
1.33649e-10
1.35891e-10
1.28172e-10
2.87474e-10
3.20087e-10
2.73064e-10
2.92958e-10
2.58212e-10
2.68364e-10
2.42037e-10
2.44895e-10
2.24954e-10
2.22157e-10
2.07295e-10
1.99859e-10
1.8933e-10
1.77768e-10
1.71266e-10
1.55671e-10
1.53322e-10
1.33631e-10
1.36205e-10
1.2846e-10
2.87733e-10
3.20307e-10
2.72965e-10
2.92948e-10
2.5821e-10
2.68364e-10
2.42037e-10
2.44894e-10
2.24954e-10
2.22157e-10
2.07295e-10
1.99858e-10
1.8933e-10
1.77768e-10
1.71266e-10
1.55671e-10
1.53322e-10
1.33619e-10
1.36502e-10
1.28717e-10
2.87869e-10
3.20413e-10
2.72868e-10
2.92935e-10
2.58209e-10
2.68362e-10
2.42038e-10
2.44894e-10
2.24954e-10
2.22156e-10
2.07295e-10
1.99858e-10
1.8933e-10
1.77768e-10
1.71266e-10
1.55672e-10
1.5332e-10
1.33613e-10
1.36746e-10
1.28911e-10
2.87861e-10
3.20385e-10
2.72773e-10
2.92919e-10
2.5821e-10
2.68359e-10
2.4204e-10
2.44892e-10
2.24956e-10
2.22155e-10
2.07296e-10
1.99858e-10
1.8933e-10
1.77769e-10
1.71266e-10
1.55673e-10
1.53317e-10
1.33614e-10
1.36908e-10
1.29014e-10
2.87703e-10
3.20219e-10
2.72685e-10
2.929e-10
2.58213e-10
2.68355e-10
2.42043e-10
2.44889e-10
2.24958e-10
2.22154e-10
2.07297e-10
1.99858e-10
1.8933e-10
1.77769e-10
1.71265e-10
1.55675e-10
1.53313e-10
1.3362e-10
1.36968e-10
1.29008e-10
2.87405e-10
3.19925e-10
2.72605e-10
2.92879e-10
2.58217e-10
2.68349e-10
2.42048e-10
2.44886e-10
2.24961e-10
2.22152e-10
2.07298e-10
1.99857e-10
1.8933e-10
1.7777e-10
1.71264e-10
1.55677e-10
1.53306e-10
1.3363e-10
1.36913e-10
1.28883e-10
2.86992e-10
3.19533e-10
2.72537e-10
2.92855e-10
2.58223e-10
2.68342e-10
2.42053e-10
2.44881e-10
2.24964e-10
2.2215e-10
2.07299e-10
1.99857e-10
1.8933e-10
1.77771e-10
1.71262e-10
1.5568e-10
1.53298e-10
1.33642e-10
1.36746e-10
1.28644e-10
2.86501e-10
3.19089e-10
2.72482e-10
2.9283e-10
2.58231e-10
2.68334e-10
2.42059e-10
2.44876e-10
2.24968e-10
2.22147e-10
2.07301e-10
1.99856e-10
1.8933e-10
1.77772e-10
1.7126e-10
1.55683e-10
1.53288e-10
1.33657e-10
1.36481e-10
1.28302e-10
2.86004e-10
3.18674e-10
2.72444e-10
2.92802e-10
2.58241e-10
2.68323e-10
2.42068e-10
2.4487e-10
2.24973e-10
2.22144e-10
2.07303e-10
1.99855e-10
1.89329e-10
1.77773e-10
1.71258e-10
1.55686e-10
1.53276e-10
1.33671e-10
1.36149e-10
1.27886e-10
2.8562e-10
3.18365e-10
2.72417e-10
2.92777e-10
2.5825e-10
2.68314e-10
2.42074e-10
2.44864e-10
2.24977e-10
2.22141e-10
2.07305e-10
1.99854e-10
1.89329e-10
1.77774e-10
1.71256e-10
1.55688e-10
1.53264e-10
1.33684e-10
1.35773e-10
1.27437e-10
2.8555e-10
3.18228e-10
2.72381e-10
2.92771e-10
2.58244e-10
2.68317e-10
2.42072e-10
2.44866e-10
2.24975e-10
2.22142e-10
2.07304e-10
1.99854e-10
1.89329e-10
1.77774e-10
1.71256e-10
1.55686e-10
1.53257e-10
1.33689e-10
1.35419e-10
1.27091e-10
)
;

boundaryField
{
    top
    {
        type            zeroGradient;
    }
    bottom
    {
        type            zeroGradient;
    }
    inlet
    {
        type            fixedValue;
        value           uniform 0;
    }
    outlet
    {
        type            fixedValue;
        value           uniform 0;
    }
    frontAndBack
    {
        type            empty;
    }
}


// ************************************************************************* //
