/*--------------------------------*- C++ -*----------------------------------*\
| =========                 |                                                 |
| \\      /  F ield         | OpenFOAM: The Open Source CFD Toolbox           |
|  \\    /   O peration     | Version:  4.1                                   |
|   \\  /    A nd           | Web:      www.OpenFOAM.org                      |
|    \\/     M anipulation  |                                                 |
\*---------------------------------------------------------------------------*/
FoamFile
{
    version     2.0;
    format      ascii;
    class       surfaceScalarField;
    location    "3";
    object      phi;
}
// * * * * * * * * * * * * * * * * * * * * * * * * * * * * * * * * * * * * * //

dimensions      [0 3 -1 0 0 0 0];

internalField   nonuniform List<scalar> 
760
(
1.25e-06
-4.46913e-16
1.25e-06
-3.07059e-16
1.25e-06
3.86403e-18
1.25e-06
-2.17656e-17
1.25e-06
1.45079e-17
1.25e-06
-1.22726e-17
1.25e-06
9.70493e-18
1.25e-06
-7.5882e-18
1.25e-06
5.69094e-18
1.25e-06
-3.99758e-18
1.25e-06
2.44779e-18
1.25e-06
-9.84412e-19
1.25e-06
-3.9852e-19
1.25e-06
1.73476e-18
1.25e-06
-3.1459e-18
1.25e-06
4.28939e-18
1.25e-06
-8.14241e-18
1.25e-06
1.14679e-17
1.25e-06
-1.83983e-16
-2.71099e-16
3.75e-06
-1.35084e-15
3.75e-06
-1.07438e-15
3.75e-06
-2.22047e-17
3.75e-06
-5.29579e-17
3.75e-06
3.04115e-17
3.75e-06
-2.66003e-17
3.75e-06
2.08451e-17
3.75e-06
-1.63128e-17
3.75e-06
1.22105e-17
3.75e-06
-8.56851e-18
3.75e-06
5.22887e-18
3.75e-06
-2.05011e-18
3.75e-06
-9.34754e-19
3.75e-06
3.80061e-18
3.75e-06
-6.9434e-18
3.75e-06
8.99096e-18
3.75e-06
-2.1379e-17
3.75e-06
3.02464e-17
3.75e-06
-6.77577e-16
-8.75385e-16
6.25e-06
-2.44394e-15
6.25e-06
-2.11827e-15
6.25e-06
-8.26131e-17
6.25e-06
-8.12291e-17
6.25e-06
3.91344e-17
6.25e-06
-3.57801e-17
6.25e-06
2.77103e-17
6.25e-06
-2.17131e-17
6.25e-06
1.62103e-17
6.25e-06
-1.13591e-17
6.25e-06
6.90469e-18
6.25e-06
-2.62259e-18
6.25e-06
-1.37251e-18
6.25e-06
5.17469e-18
6.25e-06
-9.54737e-18
6.25e-06
1.15894e-17
6.25e-06
-3.52451e-17
6.25e-06
5.07059e-17
6.25e-06
-1.39148e-15
-1.67376e-15
8.75e-06
-3.56131e-15
8.75e-06
-3.25858e-15
8.75e-06
-1.65968e-16
8.75e-06
-1.05388e-16
8.75e-06
4.15703e-17
8.75e-06
-4.029e-17
8.75e-06
3.07422e-17
8.75e-06
-2.41287e-17
8.75e-06
1.79555e-17
8.75e-06
-1.257e-17
8.75e-06
7.60535e-18
8.75e-06
-2.77487e-18
8.75e-06
-1.68786e-18
8.75e-06
5.89693e-18
8.75e-06
-1.10204e-17
8.75e-06
1.23411e-17
8.75e-06
-4.88149e-17
8.75e-06
7.14522e-17
8.75e-06
-2.22036e-15
-2.56113e-15
1.125e-05
-4.56079e-15
1.125e-05
-4.33665e-15
1.125e-05
-2.60055e-16
1.125e-05
-1.24169e-16
1.125e-05
3.87026e-17
1.125e-05
-4.06637e-17
1.125e-05
3.04322e-17
1.125e-05
-2.39315e-17
1.125e-05
1.77341e-17
1.125e-05
-1.2407e-17
1.125e-05
7.4647e-18
1.125e-05
-2.58278e-18
1.125e-05
-1.86983e-18
1.125e-05
6.02312e-18
1.125e-05
-1.14471e-17
1.125e-05
1.15146e-17
1.125e-05
-6.10956e-17
1.125e-05
9.11522e-17
1.125e-05
-3.06308e-15
-3.43692e-15
1.375e-05
-5.33346e-15
1.375e-05
-5.22661e-15
1.375e-05
-3.52869e-16
1.375e-05
-1.36436e-16
1.375e-05
3.1587e-17
1.375e-05
-3.74742e-17
1.375e-05
2.72957e-17
1.375e-05
-2.1531e-17
1.375e-05
1.58584e-17
1.375e-05
-1.10949e-17
1.375e-05
6.62603e-18
1.375e-05
-2.11568e-18
1.375e-05
-1.91593e-18
1.375e-05
5.62671e-18
1.375e-05
-1.0941e-17
1.375e-05
9.40337e-18
1.375e-05
-7.11479e-17
1.375e-05
1.08409e-16
1.375e-05
-3.82829e-15
-4.21071e-15
1.625e-05
-5.80413e-15
1.625e-05
-5.83682e-15
1.625e-05
-4.33671e-16
1.625e-05
-1.41353e-16
1.625e-05
2.12976e-17
1.625e-05
-3.13498e-17
1.625e-05
2.1899e-17
1.625e-05
-1.7358e-17
1.625e-05
1.2657e-17
1.625e-05
-8.85079e-18
1.625e-05
5.23148e-18
1.625e-05
-1.46049e-18
1.625e-05
-1.82036e-18
1.625e-05
4.78453e-18
1.625e-05
-9.62558e-18
1.625e-05
6.31283e-18
1.625e-05
-7.81751e-17
1.625e-05
1.21811e-16
1.625e-05
-4.44067e-15
-4.80849e-15
1.875e-05
-5.93529e-15
1.875e-05
-6.11478e-15
1.875e-05
-4.93881e-16
1.875e-05
-1.3853e-16
1.875e-05
8.932e-18
1.875e-05
-2.29545e-17
1.875e-05
1.48015e-17
1.875e-05
-1.18552e-17
1.875e-05
8.46886e-18
1.875e-05
-5.9243e-18
1.875e-05
3.43741e-18
1.875e-05
-6.69903e-19
1.875e-05
-1.61128e-18
1.875e-05
3.59014e-18
1.875e-05
-7.64963e-18
1.875e-05
2.53274e-18
1.875e-05
-8.1593e-17
1.875e-05
1.30019e-16
1.875e-05
-4.84506e-15
-5.17704e-15
2.125e-05
-5.72535e-15
2.125e-05
-6.04607e-15
2.125e-05
-5.27819e-16
2.125e-05
-1.28118e-16
2.125e-05
-4.48763e-18
2.125e-05
-1.29897e-17
2.125e-05
6.61778e-18
2.125e-05
-5.49418e-18
2.125e-05
3.64177e-18
2.125e-05
-2.55662e-18
2.125e-05
1.39765e-18
2.125e-05
1.81804e-19
2.125e-05
-1.30263e-18
2.125e-05
2.14943e-18
2.125e-05
-5.18817e-18
2.125e-05
-1.619e-18
2.125e-05
-8.1097e-17
2.125e-05
1.31966e-16
2.125e-05
-5.00931e-15
-5.28679e-15
2.375e-05
-5.20686e-15
2.375e-05
-5.65297e-15
2.375e-05
-5.33118e-16
2.375e-05
-1.10881e-16
2.375e-05
-1.79459e-17
2.375e-05
-2.17756e-18
2.375e-05
-2.07843e-18
2.375e-05
1.27753e-18
2.375e-05
-1.45471e-18
2.375e-05
9.94284e-19
2.375e-05
-7.57952e-19
2.375e-05
1.04545e-18
2.375e-05
-9.23384e-19
2.375e-05
5.62625e-19
2.375e-05
-2.42132e-18
2.375e-05
-5.83864e-18
2.375e-05
-7.66996e-17
2.375e-05
1.2708e-16
2.375e-05
-4.92528e-15
-5.13319e-15
2.625e-05
-4.44141e-15
2.625e-05
-4.98961e-15
2.625e-05
-5.10781e-16
2.625e-05
-8.81894e-17
2.625e-05
-3.05322e-17
2.625e-05
8.7441e-18
2.625e-05
-1.06729e-17
2.625e-05
7.99435e-18
2.625e-05
-6.48798e-18
2.625e-05
4.49999e-18
2.625e-05
-2.88105e-18
2.625e-05
1.8539e-18
2.625e-05
-4.95837e-19
2.625e-05
-1.05557e-18
2.625e-05
4.61636e-19
2.625e-05
-9.8319e-18
2.625e-05
-6.87232e-17
2.625e-05
1.15425e-16
2.625e-05
-4.60828e-15
-4.73616e-15
2.875e-05
-3.51287e-15
2.875e-05
-4.13501e-15
2.875e-05
-4.64846e-16
2.875e-05
-6.19513e-17
2.875e-05
-4.14204e-17
2.875e-05
1.90084e-17
2.875e-05
-1.85747e-17
2.875e-05
1.41916e-17
2.875e-05
-1.11237e-17
2.875e-05
7.72481e-18
2.875e-05
-4.81261e-18
2.875e-05
2.56839e-18
2.875e-05
-7.38017e-20
2.875e-05
-2.59072e-18
2.875e-05
3.25022e-18
2.875e-05
-1.33143e-17
2.875e-05
-5.78377e-17
2.875e-05
9.78917e-17
2.875e-05
-4.09447e-15
-4.13762e-15
3.125e-05
-2.51952e-15
3.125e-05
-3.18462e-15
3.125e-05
-4.0165e-16
3.125e-05
-3.4496e-17
3.125e-05
-4.98524e-17
3.125e-05
2.78732e-17
3.125e-05
-2.52262e-17
3.125e-05
1.94224e-17
3.125e-05
-1.49953e-17
3.125e-05
1.04145e-17
3.125e-05
-6.43214e-18
3.125e-05
3.143e-18
3.125e-05
3.20359e-19
3.125e-05
-3.91956e-18
3.125e-05
5.73734e-18
3.125e-05
-1.60157e-17
3.125e-05
-4.49637e-17
3.125e-05
7.61243e-17
3.125e-05
-3.43735e-15
-3.39783e-15
3.375e-05
-1.56304e-15
3.375e-05
-2.23865e-15
3.375e-05
-3.28861e-16
3.375e-05
-8.4212e-18
3.375e-05
-5.51622e-17
3.375e-05
3.46015e-17
3.375e-05
-3.00646e-17
3.375e-05
2.32402e-17
3.375e-05
-1.7809e-17
3.375e-05
1.23716e-17
3.375e-05
-7.61186e-18
3.375e-05
3.53701e-18
3.375e-05
6.37274e-19
3.375e-05
-4.92792e-18
3.375e-05
7.70323e-18
3.375e-05
-1.7698e-17
3.375e-05
-3.12733e-17
3.375e-05
5.24745e-17
3.375e-05
-2.70171e-15
-2.5891e-15
3.625e-05
-7.39938e-16
3.625e-05
-1.39238e-15
3.625e-05
-2.54133e-16
3.625e-05
1.36213e-17
3.625e-05
-5.67493e-17
3.625e-05
3.84526e-17
3.625e-05
-3.25682e-17
3.625e-05
2.52452e-17
3.625e-05
-1.92439e-17
3.625e-05
1.33695e-17
3.625e-05
-8.208e-18
3.625e-05
3.69551e-18
3.625e-05
8.7067e-19
3.625e-05
-5.51641e-18
3.625e-05
8.96021e-18
3.625e-05
-1.81453e-17
3.625e-05
-1.80674e-17
3.625e-05
2.96871e-17
3.625e-05
-1.95837e-15
-1.79019e-15
3.875e-05
-1.26227e-16
3.875e-05
-7.20011e-16
3.875e-05
-1.8405e-16
3.875e-05
2.91039e-17
3.875e-05
-5.40709e-17
3.875e-05
3.87498e-17
3.875e-05
-3.22331e-17
3.875e-05
2.50381e-17
3.875e-05
-1.90146e-17
3.875e-05
1.32386e-17
3.875e-05
-8.1168e-18
3.875e-05
3.55725e-18
3.875e-05
9.74945e-19
3.875e-05
-5.56073e-18
3.875e-05
9.2884e-18
3.875e-05
-1.71684e-17
3.875e-05
-6.71016e-18
3.875e-05
1.05555e-17
3.875e-05
-1.27467e-15
-1.07617e-15
4.125e-05
2.27277e-16
4.125e-05
-2.68889e-16
4.125e-05
-1.22699e-16
4.125e-05
3.58134e-17
4.125e-05
-4.66193e-17
4.125e-05
3.4871e-17
4.125e-05
-2.86192e-17
4.125e-05
2.2253e-17
4.125e-05
-1.68524e-17
4.125e-05
1.17656e-17
4.125e-05
-7.2055e-18
4.125e-05
3.10118e-18
4.125e-05
9.3695e-19
4.125e-05
-4.98856e-18
4.125e-05
8.5006e-18
4.125e-05
-1.46467e-17
4.125e-05
1.49556e-18
4.125e-05
-2.50946e-18
4.125e-05
-7.10376e-16
-5.13728e-16
4.375e-05
3.16613e-16
4.375e-05
-3.7388e-17
4.375e-05
-7.12435e-17
4.375e-05
3.20467e-17
4.375e-05
-3.38884e-17
4.375e-05
2.61859e-17
4.375e-05
-2.12691e-17
4.375e-05
1.65605e-17
4.375e-05
-1.25245e-17
4.375e-05
8.75277e-18
4.375e-05
-5.35137e-18
4.375e-05
2.27676e-18
4.375e-05
7.19769e-19
4.375e-05
-3.71802e-18
4.375e-05
6.46125e-18
4.375e-05
-1.05055e-17
4.375e-05
5.37144e-18
4.375e-05
-7.94607e-18
4.375e-05
-3.03257e-16
-1.46232e-16
4.625e-05
1.77849e-16
4.625e-05
1.86312e-17
4.625e-05
-2.73181e-17
4.625e-05
1.65297e-17
4.625e-05
-1.53862e-17
4.625e-05
1.21714e-17
4.625e-05
-9.81947e-18
4.625e-05
7.65441e-18
4.625e-05
-5.76868e-18
4.625e-05
4.04065e-18
4.625e-05
-2.48057e-18
4.625e-05
1.04461e-18
4.625e-05
3.37956e-19
4.625e-05
-1.71693e-18
4.625e-05
3.02339e-18
4.625e-05
-4.69021e-18
4.625e-05
3.93346e-18
4.625e-05
-5.52957e-18
4.625e-05
-7.09906e-17
4.95909e-18
4.875e-05
4.875e-05
4.875e-05
4.875e-05
4.875e-05
4.875e-05
4.875e-05
4.875e-05
4.875e-05
4.875e-05
4.875e-05
4.875e-05
4.875e-05
4.875e-05
4.875e-05
4.875e-05
4.875e-05
4.875e-05
4.875e-05
)
;

boundaryField
{
    top
    {
        type            calculated;
        value           uniform 0;
    }
    bottom
    {
        type            calculated;
        value           uniform 0;
    }
    inlet
    {
        type            calculated;
        value           nonuniform List<scalar> 
20
(
-1.25e-06
-3.75e-06
-6.25e-06
-8.75e-06
-1.125e-05
-1.375e-05
-1.625e-05
-1.875e-05
-2.125e-05
-2.375e-05
-2.625e-05
-2.875e-05
-3.125e-05
-3.375e-05
-3.625e-05
-3.875e-05
-4.125e-05
-4.375e-05
-4.625e-05
-4.875e-05
)
;
    }
    outlet
    {
        type            calculated;
        value           nonuniform List<scalar> 
20
(
1.25e-06
3.75e-06
6.25e-06
8.75e-06
1.125e-05
1.375e-05
1.625e-05
1.875e-05
2.125e-05
2.375e-05
2.625e-05
2.875e-05
3.125e-05
3.375e-05
3.625e-05
3.875e-05
4.125e-05
4.375e-05
4.625e-05
4.875e-05
)
;
    }
    frontAndBack
    {
        type            empty;
        value           nonuniform 0();
    }
}


// ************************************************************************* //
