/*--------------------------------*- C++ -*----------------------------------*\
| =========                 |                                                 |
| \\      /  F ield         | OpenFOAM: The Open Source CFD Toolbox           |
|  \\    /   O peration     | Version:  4.1                                   |
|   \\  /    A nd           | Web:      www.OpenFOAM.org                      |
|    \\/     M anipulation  |                                                 |
\*---------------------------------------------------------------------------*/
FoamFile
{
    version     2.0;
    format      ascii;
    class       volVectorField;
    location    "3";
    object      U;
}
// * * * * * * * * * * * * * * * * * * * * * * * * * * * * * * * * * * * * * //

dimensions      [0 1 -1 0 0 0 0];

internalField   nonuniform List<vector> 
400
(
(0.025 -1.98801e-13 0)
(0.025 -1.23849e-13 0)
(0.025 4.59125e-15 0)
(0.025 -1.08715e-14 0)
(0.025 7.64045e-15 0)
(0.025 -6.39546e-15 0)
(0.025 5.07365e-15 0)
(0.025 -3.96571e-15 0)
(0.025 2.97641e-15 0)
(0.025 -2.09181e-15 0)
(0.025 1.28249e-15 0)
(0.025 -5.20748e-16 0)
(0.025 -2.00684e-16 0)
(0.025 8.99813e-16 0)
(0.025 -1.62751e-15 0)
(0.025 2.25347e-15 0)
(0.025 -3.93946e-15 0)
(0.025 5.08288e-15 0)
(0.025 -6.98127e-14 0)
(0.025 -1.13841e-13 0)
(0.075 -8.3758e-13 0)
(0.075 -6.17977e-13 0)
(0.075 -1.57615e-15 0)
(0.075 -3.68027e-14 0)
(0.075 2.32453e-14 0)
(0.075 -1.98922e-14 0)
(0.075 1.56793e-14 0)
(0.075 -1.2263e-14 0)
(0.075 9.19039e-15 0)
(0.075 -6.45298e-15 0)
(0.075 3.94577e-15 0)
(0.075 -1.57085e-15 0)
(0.075 -6.67649e-16 0)
(0.075 2.82485e-15 0)
(0.075 -5.13624e-15 0)
(0.075 6.87014e-15 0)
(0.075 -1.41947e-14 0)
(0.075 2.04121e-14 0)
(0.075 -3.76974e-13 0)
(0.075 -5.20732e-13 0)
(0.125 -1.85882e-12 0)
(0.125 -1.54308e-12 0)
(0.125 -4.57185e-14 0)
(0.125 -6.73072e-14 0)
(0.125 3.59357e-14 0)
(0.125 -3.19895e-14 0)
(0.125 2.49504e-14 0)
(0.125 -1.95357e-14 0)
(0.125 1.46073e-14 0)
(0.125 -1.02433e-14 0)
(0.125 6.24104e-15 0)
(0.125 -2.41614e-15 0)
(0.125 -1.16702e-15 0)
(0.125 4.59476e-15 0)
(0.125 -8.42739e-15 0)
(0.125 1.06273e-14 0)
(0.125 -2.80557e-14 0)
(0.125 3.95986e-14 0)
(0.125 -9.89501e-13 0)
(0.125 -1.23274e-12 0)
(0.175 -3.00885e-12 0)
(0.175 -2.67815e-12 0)
(0.175 -1.19597e-13 0)
(0.175 -9.4429e-14 0)
(0.175 4.1823e-14 0)
(0.175 -3.91419e-14 0)
(0.175 3.01306e-14 0)
(0.175 -2.36256e-14 0)
(0.175 1.76146e-14 0)
(0.175 -1.23371e-14 0)
(0.175 7.48438e-15 0)
(0.175 -2.79601e-15 0)
(0.175 -1.56107e-15 0)
(0.175 5.69165e-15 0)
(0.175 -1.05558e-14 0)
(0.175 1.23977e-14 0)
(0.175 -4.2194e-14 0)
(0.175 6.1024e-14 0)
(0.175 -1.78688e-12 0)
(0.175 -2.10466e-12 0)
(0.225 -4.10326e-12 0)
(0.225 -3.82725e-12 0)
(0.225 -2.11679e-13 0)
(0.225 -1.16323e-13 0)
(0.225 4.13931e-14 0)
(0.225 -4.14878e-14 0)
(0.225 3.13974e-14 0)
(0.225 -2.46625e-14 0)
(0.225 1.83205e-14 0)
(0.225 -1.28209e-14 0)
(0.225 7.73766e-15 0)
(0.225 -2.75976e-15 0)
(0.225 -1.81448e-15 0)
(0.225 6.10674e-15 0)
(0.225 -1.14933e-14 0)
(0.225 1.23015e-14 0)
(0.225 -5.54149e-14 0)
(0.225 8.15874e-14 0)
(0.225 -2.64909e-12 0)
(0.225 -3.01282e-12 0)
(0.275 -5.01235e-12 0)
(0.275 -4.83901e-12 0)
(0.275 -3.08155e-13 0)
(0.275 -1.3204e-13 0)
(0.275 3.6084e-14 0)
(0.275 -3.98892e-14 0)
(0.275 2.95068e-14 0)
(0.275 -2.32342e-14 0)
(0.275 1.7173e-14 0)
(0.275 -1.20134e-14 0)
(0.275 7.20332e-15 0)
(0.275 -2.40836e-15 0)
(0.275 -1.9273e-15 0)
(0.275 5.94765e-15 0)
(0.275 -1.14146e-14 0)
(0.275 1.07446e-14 0)
(0.275 -6.6779e-14 0)
(0.275 1.00417e-13 0)
(0.275 -3.47402e-12 0)
(0.275 -3.8581e-12 0)
(0.325 -5.64778e-12 0)
(0.325 -5.60698e-12 0)
(0.325 -3.97479e-13 0)
(0.325 -1.40772e-13 0)
(0.325 2.70956e-14 0)
(0.325 -3.50593e-14 0)
(0.325 2.50896e-14 0)
(0.325 -1.98297e-14 0)
(0.325 1.45451e-14 0)
(0.325 -1.01728e-14 0)
(0.325 6.04673e-15 0)
(0.325 -1.82828e-15 0)
(0.325 -1.90019e-15 0)
(0.325 5.30482e-15 0)
(0.325 -1.04657e-14 0)
(0.325 8.06455e-15 0)
(0.325 -7.54822e-14 0)
(0.325 1.16108e-13 0)
(0.325 -4.17883e-12 0)
(0.325 -4.55948e-12 0)
(0.375 -5.95361e-12 0)
(0.375 -6.05951e-12 0)
(0.375 -4.6984e-13 0)
(0.375 -1.41857e-13 0)
(0.375 1.55024e-14 0)
(0.375 -2.76309e-14 0)
(0.375 1.86976e-14 0)
(0.375 -1.48796e-14 0)
(0.375 1.07642e-14 0)
(0.375 -7.52713e-15 0)
(0.375 4.41632e-15 0)
(0.375 -1.08896e-15 0)
(0.375 -1.74418e-15 0)
(0.375 4.26295e-15 0)
(0.375 -8.78077e-15 0)
(0.375 4.55406e-15 0)
(0.375 -8.0815e-14 0)
(0.375 1.27257e-13 0)
(0.375 -4.69798e-12 0)
(0.375 -5.05293e-12 0)
(0.425 -5.91054e-12 0)
(0.425 -6.1634e-12 0)
(0.425 -5.17984e-13 0)
(0.425 -1.35136e-13 0)
(0.425 2.35445e-15 0)
(0.425 -1.82742e-14 0)
(0.425 1.09093e-14 0)
(0.425 -8.83293e-15 0)
(0.425 6.16928e-15 0)
(0.425 -4.31976e-15 0)
(0.425 2.46238e-15 0)
(0.425 -2.52395e-16 0)
(0.425 -1.47814e-15 0)
(0.425 2.91945e-15 0)
(0.425 -6.51902e-15 0)
(0.425 5.13166e-16 0)
(0.425 -8.23151e-14 0)
(0.425 1.32591e-13 0)
(0.425 -4.98731e-12 0)
(0.425 -5.29638e-12 0)
(0.475 -5.53476e-12 0)
(0.475 -5.92319e-12 0)
(0.475 -5.37811e-13 0)
(0.475 -1.21053e-13 0)
(0.475 -1.13246e-14 0)
(0.475 -7.70271e-15 0)
(0.475 2.31958e-15 0)
(0.475 -2.15106e-15 0)
(0.475 1.12026e-15 0)
(0.475 -7.98535e-16 0)
(0.475 3.28115e-16 0)
(0.475 6.18749e-16 0)
(0.475 -1.12764e-15 0)
(0.475 1.37859e-15 0)
(0.475 -3.85666e-15 0)
(0.475 -3.74729e-15 0)
(0.475 -7.98278e-14 0)
(0.475 1.31233e-13 0)
(0.475 -5.02654e-12 0)
(0.475 -5.27261e-12 0)
(0.525 -4.87483e-12 0)
(0.525 -5.37859e-12 0)
(0.525 -5.28666e-13 0)
(0.525 -1.00685e-13 0)
(0.525 -2.45676e-14 0)
(0.525 3.35182e-15 0)
(0.525 -6.47452e-15 0)
(0.525 4.70807e-15 0)
(0.525 -4.03167e-15 0)
(0.525 2.79051e-15 0)
(0.525 -1.84675e-15 0)
(0.525 1.46791e-15 0)
(0.525 -7.15041e-16 0)
(0.525 -2.53126e-16 0)
(0.525 -9.81813e-16 0)
(0.525 -7.9259e-15 0)
(0.525 -7.352e-14 0)
(0.525 1.22886e-13 0)
(0.525 -4.81967e-12 0)
(0.525 -4.98966e-12 0)
(0.575 -4.00532e-12 0)
(0.575 -4.59807e-12 0)
(0.575 -4.93203e-13 0)
(0.575 -7.56942e-14 0)
(0.575 -3.65023e-14 0)
(0.575 1.41327e-14 0)
(0.575 -1.48673e-14 0)
(0.575 1.12788e-14 0)
(0.575 -8.95078e-15 0)
(0.575 6.21375e-15 0)
(0.575 -3.90898e-15 0)
(0.575 2.24072e-15 0)
(0.575 -2.8104e-16 0)
(0.575 -1.85896e-15 0)
(0.575 1.90638e-15 0)
(0.575 -1.17319e-14 0)
(0.575 -6.38927e-14 0)
(0.575 1.08006e-13 0)
(0.575 -4.39318e-12 0)
(0.575 -4.47923e-12 0)
(0.625 -3.01971e-12 0)
(0.625 -3.67142e-12 0)
(0.625 -4.36822e-13 0)
(0.625 -4.82339e-14 0)
(0.625 -4.63378e-14 0)
(0.625 2.38826e-14 0)
(0.625 -2.22833e-14 0)
(0.625 1.71019e-14 0)
(0.625 -1.32853e-14 0)
(0.625 9.2275e-15 0)
(0.625 -5.71748e-15 0)
(0.625 2.89638e-15 0)
(0.625 1.35248e-16 0)
(0.625 -3.32076e-15 0)
(0.625 4.59689e-15 0)
(0.625 -1.48869e-14 0)
(0.625 -5.17548e-14 0)
(0.625 8.78723e-14 0)
(0.625 -3.79314e-12 0)
(0.625 -3.79368e-12 0)
(0.675 -2.02035e-12 0)
(0.675 -2.69909e-12 0)
(0.675 -3.66824e-13 0)
(0.675 -2.0814e-14 0)
(0.675 -5.33637e-14 0)
(0.675 3.18598e-14 0)
(0.675 -2.81604e-14 0)
(0.675 2.17323e-14 0)
(0.675 -1.6706e-14 0)
(0.675 1.16025e-14 0)
(0.675 -7.14893e-15 0)
(0.675 3.39324e-15 0)
(0.675 4.99821e-16 0)
(0.675 -4.5178e-15 0)
(0.675 6.87496e-15 0)
(0.675 -1.71353e-14 0)
(0.675 -3.8168e-14 0)
(0.675 6.45261e-14 0)
(0.675 -3.08008e-12 0)
(0.675 -3.00078e-12 0)
(0.725 -1.10923e-12 0)
(0.725 -1.78213e-12 0)
(0.725 -2.9121e-13 0)
(0.725 3.91368e-15 0)
(0.725 -5.69688e-14 0)
(0.725 3.73359e-14 0)
(0.725 -3.19684e-14 0)
(0.725 2.47518e-14 0)
(0.725 -1.8909e-14 0)
(0.725 1.31342e-14 0)
(0.725 -8.07027e-15 0)
(0.725 3.68127e-15 0)
(0.725 7.82752e-16 0)
(0.725 -5.34431e-15 0)
(0.725 8.53995e-15 0)
(0.725 -1.82544e-14 0)
(0.725 -2.43834e-14 0)
(0.725 4.05895e-14 0)
(0.725 -2.32373e-12 0)
(0.725 -2.178e-12 0)
(0.775 -3.7504e-13 0)
(0.775 -1.00815e-12 0)
(0.775 -2.17459e-13 0)
(0.775 2.33328e-14 0)
(0.775 -5.66018e-14 0)
(0.775 3.96169e-14 0)
(0.775 -3.32049e-14 0)
(0.775 2.57697e-14 0)
(0.775 -1.95994e-14 0)
(0.775 1.363e-14 0)
(0.775 -8.36105e-15 0)
(0.775 3.70604e-15 0)
(0.775 9.5912e-16 0)
(0.775 -5.6901e-15 0)
(0.775 9.39039e-15 0)
(0.775 -1.80434e-14 0)
(0.775 -1.17502e-14 0)
(0.775 1.89298e-14 0)
(0.775 -1.59471e-12 0)
(0.775 -1.40386e-12 0)
(0.825 1.13494e-13 0)
(0.825 -4.41967e-13 0)
(0.825 -1.50881e-13 0)
(0.825 3.4899e-14 0)
(0.825 -5.16021e-14 0)
(0.825 3.79403e-14 0)
(0.825 -3.13061e-14 0)
(0.825 2.43331e-14 0)
(0.825 -1.8449e-14 0)
(0.825 1.28621e-14 0)
(0.825 -7.87987e-15 0)
(0.825 3.41504e-15 0)
(0.825 9.96689e-16 0)
(0.825 -5.43985e-15 0)
(0.825 9.19301e-15 0)
(0.825 -1.63024e-14 0)
(0.825 -1.64577e-15 0)
(0.825 2.35036e-15 0)
(0.825 -9.58429e-13 0)
(0.825 -7.51955e-13 0)
(0.875 3.25925e-13 0)
(0.875 -1.05714e-13 0)
(0.875 -9.38264e-14 0)
(0.875 3.60663e-14 0)
(0.875 -4.11041e-14 0)
(0.875 3.13611e-14 0)
(0.875 -2.5577e-14 0)
(0.875 1.99024e-14 0)
(0.875 -1.50574e-14 0)
(0.875 1.05183e-14 0)
(0.875 -6.43559e-15 0)
(0.875 2.74786e-15 0)
(0.875 8.59997e-16 0)
(0.875 -4.47267e-15 0)
(0.875 7.7074e-15 0)
(0.875 -1.28327e-14 0)
(0.875 4.4489e-15 0)
(0.875 -7.11503e-15 0)
(0.875 -4.65144e-13 0)
(0.875 -2.80768e-13 0)
(0.925 2.82223e-13 0)
(0.925 2.27797e-14 0)
(0.925 -4.61595e-14 0)
(0.925 2.5968e-14 0)
(0.925 -2.50519e-14 0)
(0.925 1.96804e-14 0)
(0.925 -1.59102e-14 0)
(0.925 1.23952e-14 0)
(0.925 -9.35955e-15 0)
(0.925 6.54928e-15 0)
(0.925 -4.00854e-15 0)
(0.925 1.69402e-15 0)
(0.925 5.46814e-16 0)
(0.925 -2.78571e-15 0)
(0.925 4.87959e-15 0)
(0.925 -7.7066e-15 0)
(0.925 5.58495e-15 0)
(0.925 -7.99275e-15 0)
(0.925 -1.49956e-13 0)
(0.925 -2.85475e-14 0)
(0.975 1.05361e-13 0)
(0.975 2.35217e-14 0)
(0.975 -1.27332e-14 0)
(0.975 8.96736e-15 0)
(0.975 -7.9671e-15 0)
(0.975 6.35914e-15 0)
(0.975 -5.11421e-15 0)
(0.975 3.9872e-15 0)
(0.975 -3.0048e-15 0)
(0.975 2.10584e-15 0)
(0.975 -1.2916e-15 0)
(0.975 5.4194e-16 0)
(0.975 1.78294e-16 0)
(0.975 -8.94594e-16 0)
(0.975 1.58445e-15 0)
(0.975 -2.42368e-15 0)
(0.975 2.32604e-15 0)
(0.975 -3.62673e-15 0)
(0.975 -1.95991e-14 0)
(0.975 2.10889e-14 0)
)
;

boundaryField
{
    top
    {
        type            fixedValue;
        value           uniform (1 0 0);
    }
    bottom
    {
        type            fixedValue;
        value           uniform (0 0 0);
    }
    inlet
    {
        type            zeroGradient;
    }
    outlet
    {
        type            zeroGradient;
    }
    frontAndBack
    {
        type            empty;
    }
}


// ************************************************************************* //
