/*--------------------------------*- C++ -*----------------------------------*\
| =========                 |                                                 |
| \\      /  F ield         | OpenFOAM: The Open Source CFD Toolbox           |
|  \\    /   O peration     | Version:  4.1                                   |
|   \\  /    A nd           | Web:      www.OpenFOAM.org                      |
|    \\/     M anipulation  |                                                 |
\*---------------------------------------------------------------------------*/
FoamFile
{
    version     2.0;
    format      ascii;
    class       volScalarField;
    location    "2";
    object      p;
}
// * * * * * * * * * * * * * * * * * * * * * * * * * * * * * * * * * * * * * //

dimensions      [0 2 -2 0 0 0 0];

internalField   nonuniform List<scalar> 
400
(
1.00216e-08
1.11715e-08
9.54436e-09
1.01965e-08
8.99936e-09
9.33931e-09
8.43287e-09
8.52477e-09
7.83517e-09
7.73572e-09
7.2176e-09
6.96167e-09
6.58943e-09
6.19425e-09
5.95834e-09
5.42652e-09
5.3337e-09
4.66507e-09
4.76229e-09
4.50109e-09
9.9852e-09
1.11342e-08
9.54157e-09
1.01957e-08
8.9994e-09
9.33919e-09
8.43295e-09
8.52471e-09
7.83522e-09
7.73569e-09
7.21762e-09
6.96166e-09
6.58942e-09
6.19426e-09
5.9583e-09
5.42653e-09
5.33329e-09
4.66534e-09
4.7374e-09
4.47477e-09
9.96466e-09
1.11078e-08
9.53815e-09
1.01956e-08
8.99895e-09
9.33948e-09
8.4327e-09
8.5249e-09
7.83507e-09
7.7358e-09
7.21755e-09
6.9617e-09
6.58942e-09
6.19423e-09
5.95836e-09
5.4264e-09
5.33312e-09
4.66508e-09
4.71789e-09
4.45674e-09
9.95823e-09
1.10955e-08
9.53492e-09
1.01957e-08
8.99846e-09
9.33982e-09
8.43241e-09
8.52512e-09
7.83491e-09
7.73592e-09
7.21748e-09
6.96173e-09
6.58942e-09
6.19419e-09
5.95844e-09
5.42626e-09
5.33304e-09
4.66441e-09
4.7067e-09
4.44754e-09
9.96027e-09
1.10929e-08
9.53187e-09
1.01958e-08
8.99805e-09
9.34008e-09
8.43219e-09
8.5253e-09
7.83478e-09
7.73601e-09
7.21742e-09
6.96176e-09
6.58943e-09
6.19415e-09
5.95851e-09
5.42615e-09
5.333e-09
4.66355e-09
4.702e-09
4.44434e-09
9.96789e-09
1.10969e-08
9.52883e-09
1.01958e-08
8.99772e-09
9.3403e-09
8.43201e-09
8.52544e-09
7.83467e-09
7.73608e-09
7.21737e-09
6.96178e-09
6.58943e-09
6.19412e-09
5.95856e-09
5.42606e-09
5.33298e-09
4.66258e-09
4.70249e-09
4.44585e-09
9.97946e-09
1.11054e-08
9.52573e-09
1.01958e-08
8.99745e-09
9.34047e-09
8.43187e-09
8.52555e-09
7.83459e-09
7.73614e-09
7.21733e-09
6.96179e-09
6.58944e-09
6.1941e-09
5.9586e-09
5.42599e-09
5.33299e-09
4.66158e-09
4.70734e-09
4.45125e-09
9.99307e-09
1.11166e-08
9.52253e-09
1.01957e-08
8.99722e-09
9.34059e-09
8.43176e-09
8.52563e-09
7.83453e-09
7.73619e-09
7.21731e-09
6.9618e-09
6.58944e-09
6.19408e-09
5.95864e-09
5.42594e-09
5.33301e-09
4.66065e-09
4.7155e-09
4.45949e-09
1.00068e-08
1.11283e-08
9.51923e-09
1.01956e-08
8.99705e-09
9.34068e-09
8.43169e-09
8.52568e-09
7.83448e-09
7.73622e-09
7.21729e-09
6.96181e-09
6.58945e-09
6.19407e-09
5.95866e-09
5.42591e-09
5.33304e-09
4.65984e-09
4.72572e-09
4.46927e-09
1.0019e-08
1.11388e-08
9.51585e-09
1.01954e-08
8.99693e-09
9.34071e-09
8.43166e-09
8.52571e-09
7.83447e-09
7.73623e-09
7.21728e-09
6.96181e-09
6.58945e-09
6.19406e-09
5.95868e-09
5.4259e-09
5.33306e-09
4.65921e-09
4.73666e-09
4.47928e-09
1.0028e-08
1.11464e-08
9.51242e-09
1.0195e-08
8.99686e-09
9.3407e-09
8.43166e-09
8.5257e-09
7.83447e-09
7.73622e-09
7.21728e-09
6.96181e-09
6.58945e-09
6.19406e-09
5.95869e-09
5.42592e-09
5.33305e-09
4.65879e-09
4.74699e-09
4.48824e-09
1.00327e-08
1.11501e-08
9.50903e-09
1.01946e-08
8.99684e-09
9.34064e-09
8.4317e-09
8.52567e-09
7.8345e-09
7.73621e-09
7.2173e-09
6.9618e-09
6.58945e-09
6.19407e-09
5.95868e-09
5.42594e-09
5.33299e-09
4.6586e-09
4.75549e-09
4.49499e-09
1.00324e-08
1.11492e-08
9.50574e-09
1.0194e-08
8.99687e-09
9.34054e-09
8.43178e-09
8.52561e-09
7.83454e-09
7.73617e-09
7.21732e-09
6.96179e-09
6.58946e-09
6.19408e-09
5.95867e-09
5.42599e-09
5.33289e-09
4.65861e-09
4.76115e-09
4.49859e-09
1.00269e-08
1.11434e-08
9.50266e-09
1.01934e-08
8.99696e-09
9.34039e-09
8.43189e-09
8.52552e-09
7.83461e-09
7.73612e-09
7.21735e-09
6.96177e-09
6.58946e-09
6.19409e-09
5.95864e-09
5.42605e-09
5.33273e-09
4.65881e-09
4.76322e-09
4.49838e-09
1.00165e-08
1.11331e-08
9.49987e-09
1.01926e-08
8.9971e-09
9.34019e-09
8.43204e-09
8.5254e-09
7.8347e-09
7.73606e-09
7.21739e-09
6.96175e-09
6.58946e-09
6.19411e-09
5.95861e-09
5.42612e-09
5.33251e-09
4.65916e-09
4.7613e-09
4.49404e-09
1.00022e-08
1.11195e-08
9.49748e-09
1.01918e-08
8.99729e-09
9.33995e-09
8.43222e-09
8.52526e-09
7.83481e-09
7.73598e-09
7.21744e-09
6.96173e-09
6.58946e-09
6.19414e-09
5.95856e-09
5.4262e-09
5.33223e-09
4.6596e-09
4.75551e-09
4.4857e-09
9.98505e-09
1.11041e-08
9.49558e-09
1.01909e-08
8.99756e-09
9.33965e-09
8.43245e-09
8.52508e-09
7.83495e-09
7.73588e-09
7.21751e-09
6.9617e-09
6.58946e-09
6.19417e-09
5.9585e-09
5.42629e-09
5.33189e-09
4.66009e-09
4.7463e-09
4.4738e-09
9.96772e-09
1.10896e-08
9.49425e-09
1.019e-08
8.99792e-09
9.33929e-09
8.43273e-09
8.52485e-09
7.83512e-09
7.73576e-09
7.21758e-09
6.96166e-09
6.58945e-09
6.19421e-09
5.95842e-09
5.4264e-09
5.33149e-09
4.66059e-09
4.73476e-09
4.4593e-09
9.95435e-09
1.10788e-08
9.49329e-09
1.01891e-08
8.99822e-09
9.33897e-09
8.43297e-09
8.52466e-09
7.83526e-09
7.73566e-09
7.21765e-09
6.96163e-09
6.58945e-09
6.19424e-09
5.95835e-09
5.42647e-09
5.33107e-09
4.66103e-09
4.72165e-09
4.44367e-09
9.95193e-09
1.10741e-08
9.49202e-09
1.01889e-08
8.99802e-09
9.33906e-09
8.43288e-09
8.52473e-09
7.83521e-09
7.73569e-09
7.21763e-09
6.96164e-09
6.58945e-09
6.19423e-09
5.95837e-09
5.4264e-09
5.33083e-09
4.6612e-09
4.7093e-09
4.43157e-09
)
;

boundaryField
{
    top
    {
        type            zeroGradient;
    }
    bottom
    {
        type            zeroGradient;
    }
    inlet
    {
        type            fixedValue;
        value           uniform 0;
    }
    outlet
    {
        type            fixedValue;
        value           uniform 0;
    }
    frontAndBack
    {
        type            empty;
    }
}


// ************************************************************************* //
