/*--------------------------------*- C++ -*----------------------------------*\
| =========                 |                                                 |
| \\      /  F ield         | OpenFOAM: The Open Source CFD Toolbox           |
|  \\    /   O peration     | Version:  4.1                                   |
|   \\  /    A nd           | Web:      www.OpenFOAM.org                      |
|    \\/     M anipulation  |                                                 |
\*---------------------------------------------------------------------------*/
FoamFile
{
    version     2.0;
    format      ascii;
    class       surfaceScalarField;
    location    "2";
    object      phi;
}
// * * * * * * * * * * * * * * * * * * * * * * * * * * * * * * * * * * * * * //

dimensions      [0 3 -1 0 0 0 0];

internalField   nonuniform List<scalar> 
760
(
1.24998e-06
-1.55746e-14
1.24998e-06
-1.06823e-14
1.24998e-06
1.25064e-16
1.24998e-06
-7.49456e-16
1.24998e-06
4.9787e-16
1.24998e-06
-4.21268e-16
1.24998e-06
3.33338e-16
1.24998e-06
-2.61386e-16
1.24998e-06
1.96979e-16
1.24998e-06
-1.39388e-16
1.24998e-06
8.67783e-17
1.24998e-06
-3.76823e-17
1.24998e-06
-9.22329e-18
1.24998e-06
5.4972e-17
1.24998e-06
-1.02688e-16
1.24998e-06
1.4188e-16
1.24998e-06
-2.75591e-16
1.24998e-06
3.91044e-16
1.24998e-06
-6.39833e-15
-9.44852e-15
3.74995e-06
-4.70666e-14
3.74995e-06
-3.73903e-14
3.74995e-06
-7.94088e-16
3.74995e-06
-1.82568e-15
3.74995e-06
1.04297e-15
3.74995e-06
-9.12767e-16
3.74995e-06
7.15595e-16
3.74995e-06
-5.61921e-16
3.74995e-06
4.22843e-16
3.74995e-06
-2.98697e-16
3.74995e-06
1.85207e-16
3.74995e-06
-7.92182e-17
3.74995e-06
-2.21035e-17
3.74995e-06
1.20624e-16
3.74995e-06
-2.2642e-16
3.74995e-06
2.96528e-16
3.74995e-06
-7.26989e-16
3.74995e-06
1.03502e-15
3.74995e-06
-2.35765e-14
-3.05006e-14
6.24991e-06
-8.51427e-14
6.24991e-06
-7.37335e-14
6.24991e-06
-2.90495e-15
6.24991e-06
-2.80388e-15
6.24991e-06
1.34102e-15
6.24991e-06
-1.22735e-15
6.24991e-06
9.50758e-16
6.24991e-06
-7.48003e-16
6.24991e-06
5.61811e-16
6.24991e-06
-3.95994e-16
6.24991e-06
2.4427e-16
6.24991e-06
-1.02445e-16
6.24991e-06
-3.32386e-17
6.24991e-06
1.64651e-16
6.24991e-06
-3.10929e-16
6.24991e-06
3.80733e-16
6.24991e-06
-1.20346e-15
6.24991e-06
1.7409e-15
6.24991e-06
-4.84297e-14
-5.83078e-14
8.74988e-06
-1.24059e-13
8.74988e-06
-1.13438e-13
8.74988e-06
-5.811e-15
8.74988e-06
-3.64246e-15
8.74988e-06
1.42304e-15
8.74988e-06
-1.38162e-15
8.74988e-06
1.05414e-15
8.74988e-06
-8.31436e-16
8.74988e-06
6.23037e-16
8.74988e-06
-4.3801e-16
8.74988e-06
2.68506e-16
8.74988e-06
-1.0989e-16
8.74988e-06
-4.19816e-17
8.74988e-06
1.88334e-16
8.74988e-06
-3.58501e-16
8.74988e-06
4.03281e-16
8.74988e-06
-1.67251e-15
8.74988e-06
2.46005e-15
8.74988e-06
-7.72901e-14
-8.92105e-14
1.12498e-05
-1.58867e-13
1.12498e-05
-1.5098e-13
1.12498e-05
-9.08718e-15
1.12498e-05
-4.29684e-15
1.12498e-05
1.32314e-15
1.12498e-05
-1.39384e-15
1.12498e-05
1.04249e-15
1.12498e-05
-8.25113e-16
1.12498e-05
6.16476e-16
1.12498e-05
-4.32006e-16
1.12498e-05
2.62746e-16
1.12498e-05
-1.04148e-16
1.12498e-05
-4.78563e-17
1.12498e-05
1.93353e-16
1.12498e-05
-3.72012e-16
1.12498e-05
3.73608e-16
1.12498e-05
-2.09951e-15
1.12498e-05
3.14577e-15
1.12498e-05
-1.06636e-13
-1.19708e-13
1.37498e-05
-1.85773e-13
1.37498e-05
-1.81974e-13
1.37498e-05
-1.23161e-14
1.37498e-05
-4.72709e-15
1.37498e-05
1.07754e-15
1.37498e-05
-1.28398e-15
1.37498e-05
9.33879e-16
1.37498e-05
-7.42935e-16
1.37498e-05
5.52813e-16
1.37498e-05
-3.85719e-16
1.37498e-05
2.32066e-16
1.37498e-05
-8.78331e-17
1.37498e-05
-5.05795e-17
1.37498e-05
1.81797e-16
1.37498e-05
-3.5503e-16
1.37498e-05
3.01604e-16
1.37498e-05
-2.45157e-15
1.37498e-05
3.74932e-15
1.37498e-05
-1.33285e-13
-1.4665e-13
1.62498e-05
-2.02158e-13
1.62498e-05
-2.03229e-13
1.62498e-05
-1.5124e-14
1.62498e-05
-4.90363e-15
1.62498e-05
7.23583e-16
1.62498e-05
-1.07358e-15
1.62498e-05
7.47492e-16
1.62498e-05
-5.99664e-16
1.62498e-05
4.43349e-16
1.62498e-05
-3.07268e-16
1.62498e-05
1.81709e-16
1.62498e-05
-6.35396e-17
1.62498e-05
-5.00763e-17
1.62498e-05
1.56149e-16
1.62498e-05
-3.11798e-16
1.62498e-05
1.97436e-16
1.62498e-05
-2.70054e-15
1.62498e-05
4.22076e-15
1.62498e-05
-1.54614e-13
-1.67461e-13
1.87498e-05
-2.06718e-13
1.87498e-05
-2.12916e-13
1.87498e-05
-1.72129e-14
1.87498e-05
-4.8123e-15
1.87498e-05
2.98463e-16
1.87498e-05
-7.85506e-16
1.87498e-05
5.03241e-16
1.87498e-05
-4.10644e-16
1.87498e-05
2.99787e-16
1.87498e-05
-2.05028e-16
1.87498e-05
1.17041e-16
1.87498e-05
-3.38101e-17
1.87498e-05
-4.65021e-17
1.87498e-05
1.19243e-16
1.87498e-05
-2.47213e-16
1.87498e-05
7.13483e-17
1.87498e-05
-2.82572e-15
1.87498e-05
4.51302e-15
1.87498e-05
-1.68702e-13
-1.80288e-13
2.12498e-05
-1.99398e-13
2.12498e-05
-2.10533e-13
2.12498e-05
-1.83858e-14
2.12498e-05
-4.45799e-15
2.12498e-05
-1.61773e-16
2.12498e-05
-4.43707e-16
2.12498e-05
2.21516e-16
2.12498e-05
-1.91642e-16
2.12498e-05
1.34078e-16
2.12498e-05
-8.74954e-17
2.12498e-05
4.34107e-17
2.12498e-05
-1.07344e-18
2.12498e-05
-4.01961e-17
2.12498e-05
7.42128e-17
2.12498e-05
-1.66761e-16
2.12498e-05
-6.64709e-17
2.12498e-05
-2.81583e-15
2.12498e-05
4.5884e-15
2.12498e-05
-1.74429e-13
-1.84103e-13
2.37498e-05
-1.81331e-13
2.37498e-05
-1.96854e-13
2.37498e-05
-1.85611e-14
2.37498e-05
-3.86658e-15
2.37498e-05
-6.23088e-16
2.37498e-05
-7.30439e-17
2.37498e-05
-7.71081e-17
2.37498e-05
4.14003e-17
2.37498e-05
-4.16955e-17
2.37498e-05
3.67819e-17
2.37498e-05
-3.38635e-17
2.37498e-05
3.2345e-17
2.37498e-05
-3.17058e-17
2.37498e-05
2.44338e-17
2.37498e-05
-7.64341e-17
2.37498e-05
-2.06014e-16
2.37498e-05
-2.67049e-15
2.37498e-05
4.42597e-15
2.37498e-05
-1.71511e-13
-1.78746e-13
2.62498e-05
-1.54663e-13
2.62498e-05
-1.73764e-13
2.62498e-05
-1.77744e-14
2.62498e-05
-3.08499e-15
2.62498e-05
-1.05407e-15
2.62498e-05
3.01058e-16
2.62498e-05
-3.72123e-16
2.62498e-05
2.72505e-16
2.62498e-05
-2.15523e-16
2.62498e-05
1.59337e-16
2.62498e-05
-1.09555e-16
2.62498e-05
6.42565e-17
2.62498e-05
-2.17338e-17
2.62498e-05
-2.65202e-17
2.62498e-05
1.73619e-17
2.62498e-05
-3.37578e-16
2.62498e-05
-2.40074e-15
2.62498e-05
4.02804e-15
2.62498e-05
-1.6048e-13
-1.64913e-13
2.87498e-05
-1.22317e-13
2.87498e-05
-1.44013e-13
2.87498e-05
-1.61667e-14
2.87498e-05
-2.17902e-15
2.87498e-05
-1.42624e-15
2.87498e-05
6.52815e-16
2.87498e-05
-6.43334e-16
2.87498e-05
4.85882e-16
2.87498e-05
-3.75559e-16
2.87498e-05
2.71856e-16
2.87498e-05
-1.78578e-16
2.87498e-05
9.25866e-17
2.87498e-05
-1.11154e-17
2.87498e-05
-7.49756e-17
2.87498e-05
1.07918e-16
2.87498e-05
-4.51853e-16
2.87498e-05
-2.02869e-15
2.87498e-05
3.42437e-15
2.87498e-05
-1.42595e-13
-1.44064e-13
3.12498e-05
-8.77156e-14
3.12498e-05
-1.10925e-13
3.12498e-05
-1.39593e-14
3.12498e-05
-1.22929e-15
3.12498e-05
-1.71415e-15
3.12498e-05
9.56488e-16
3.12498e-05
-8.71125e-16
3.12498e-05
6.66066e-16
3.12498e-05
-5.1021e-16
3.12498e-05
3.66215e-16
3.12498e-05
-2.35999e-16
3.12498e-05
1.15417e-16
3.12498e-05
-7.76845e-19
3.12498e-05
-1.17239e-16
3.12498e-05
1.88403e-16
3.12498e-05
-5.40097e-16
3.12498e-05
-1.58645e-15
3.12498e-05
2.67225e-15
3.12498e-05
-1.19719e-13
-1.18297e-13
3.37498e-05
-5.44006e-14
3.37498e-05
-7.7989e-14
3.37498e-05
-1.14194e-14
3.37498e-05
-3.25511e-16
3.37498e-05
-1.89507e-15
3.37498e-05
1.18668e-15
3.37498e-05
-1.03657e-15
3.37498e-05
7.98083e-16
3.37498e-05
-6.08341e-16
3.37498e-05
4.34664e-16
3.37498e-05
-2.7714e-16
3.37498e-05
1.3091e-16
3.37498e-05
8.33417e-18
3.37498e-05
-1.49652e-16
3.37498e-05
2.51963e-16
3.37498e-05
-5.94309e-16
3.37498e-05
-1.11385e-15
3.37498e-05
1.8528e-15
3.37498e-05
-9.41065e-14
-9.01315e-14
3.62498e-05
-2.57325e-14
3.62498e-05
-4.85218e-14
3.62498e-05
-8.81512e-15
3.62498e-05
4.40258e-16
3.62498e-05
-1.94861e-15
3.62498e-05
1.3187e-15
3.62498e-05
-1.12168e-15
3.62498e-05
8.67621e-16
3.62498e-05
-6.59272e-16
3.62498e-05
4.69715e-16
3.62498e-05
-2.97474e-16
3.62498e-05
1.3735e-16
3.62498e-05
1.52835e-17
3.62498e-05
-1.68747e-16
3.62498e-05
2.91956e-16
3.62498e-05
-6.07426e-16
3.62498e-05
-6.55968e-16
3.62498e-05
1.06112e-15
3.62498e-05
-6.82235e-14
-6.23091e-14
3.87498e-05
-4.36036e-15
3.87498e-05
-2.5108e-14
3.87498e-05
-6.37511e-15
3.87498e-05
9.80738e-16
3.87498e-05
-1.85607e-15
3.87498e-05
1.32897e-15
3.87498e-05
-1.10946e-15
3.87498e-05
8.61095e-16
3.87498e-05
-6.529e-16
3.87498e-05
4.64333e-16
3.87498e-05
-2.92731e-16
3.87498e-05
1.33051e-16
3.87498e-05
1.92436e-17
3.87498e-05
-1.71318e-16
3.87498e-05
3.02036e-16
3.87498e-05
-5.73584e-16
3.87498e-05
-2.59686e-16
3.87498e-05
3.94976e-16
3.87498e-05
-4.44152e-14
-3.74458e-14
4.12499e-05
7.94618e-15
4.12499e-05
-9.39426e-15
4.12499e-05
-4.24292e-15
4.12499e-05
1.2195e-15
4.12499e-05
-1.59986e-15
4.12499e-05
1.1954e-15
4.12499e-05
-9.84142e-16
4.12499e-05
7.65869e-16
4.12499e-05
-5.79821e-16
4.12499e-05
4.11864e-16
4.12499e-05
-2.58862e-16
4.12499e-05
1.16406e-16
4.12499e-05
1.95172e-17
4.12499e-05
-1.54496e-16
4.12499e-05
2.76425e-16
4.12499e-05
-4.88448e-16
4.12499e-05
2.94209e-17
4.12499e-05
-6.34026e-17
4.12499e-05
-2.47618e-14
-1.78637e-14
4.37499e-05
1.10491e-14
4.37499e-05
-1.32494e-15
4.37499e-05
-2.45878e-15
4.37499e-05
1.09602e-15
4.37499e-05
-1.16292e-15
4.37499e-05
8.97716e-16
4.37499e-05
-7.31225e-16
4.37499e-05
5.70254e-16
4.37499e-05
-4.31272e-16
4.37499e-05
3.06124e-16
4.37499e-05
-1.92011e-16
4.37499e-05
8.57347e-17
4.37499e-05
1.5675e-17
4.37499e-05
-1.15927e-16
4.37499e-05
2.09997e-16
4.37499e-05
-3.49431e-16
4.37499e-05
1.70426e-16
4.37499e-05
-2.59328e-16
4.37499e-05
-1.05782e-14
-5.07354e-15
4.62499e-05
6.20385e-15
4.62499e-05
6.38003e-16
4.62499e-05
-9.40954e-16
4.62499e-05
5.66667e-16
4.62499e-05
-5.27912e-16
4.62499e-05
4.17451e-16
4.62499e-05
-3.37361e-16
4.62499e-05
2.63535e-16
4.62499e-05
-1.99145e-16
4.62499e-05
1.41298e-16
4.62499e-05
-8.85288e-17
4.62499e-05
3.93621e-17
4.62499e-05
7.57124e-18
4.62499e-05
-5.37795e-17
4.62499e-05
9.84004e-17
4.62499e-05
-1.55855e-16
4.62499e-05
1.29212e-16
4.62499e-05
-1.84732e-16
4.62499e-05
-2.4803e-15
1.81257e-16
4.875e-05
4.875e-05
4.875e-05
4.875e-05
4.875e-05
4.875e-05
4.875e-05
4.875e-05
4.875e-05
4.875e-05
4.875e-05
4.875e-05
4.875e-05
4.875e-05
4.875e-05
4.875e-05
4.875e-05
4.875e-05
4.875e-05
)
;

boundaryField
{
    top
    {
        type            calculated;
        value           uniform 0;
    }
    bottom
    {
        type            calculated;
        value           uniform 0;
    }
    inlet
    {
        type            calculated;
        value           nonuniform List<scalar> 
20
(
-1.24998e-06
-3.74995e-06
-6.24991e-06
-8.74988e-06
-1.12498e-05
-1.37498e-05
-1.62498e-05
-1.87498e-05
-2.12498e-05
-2.37498e-05
-2.62498e-05
-2.87498e-05
-3.12498e-05
-3.37498e-05
-3.62498e-05
-3.87498e-05
-4.12499e-05
-4.37499e-05
-4.62499e-05
-4.875e-05
)
;
    }
    outlet
    {
        type            calculated;
        value           nonuniform List<scalar> 
20
(
1.24998e-06
3.74995e-06
6.24991e-06
8.74988e-06
1.12498e-05
1.37498e-05
1.62498e-05
1.87498e-05
2.12498e-05
2.37498e-05
2.62498e-05
2.87498e-05
3.12498e-05
3.37498e-05
3.62498e-05
3.87498e-05
4.12499e-05
4.37499e-05
4.62499e-05
4.875e-05
)
;
    }
    frontAndBack
    {
        type            empty;
        value           nonuniform 0();
    }
}


// ************************************************************************* //
