/*--------------------------------*- C++ -*----------------------------------*\
| =========                 |                                                 |
| \\      /  F ield         | OpenFOAM: The Open Source CFD Toolbox           |
|  \\    /   O peration     | Version:  4.1                                   |
|   \\  /    A nd           | Web:      www.OpenFOAM.org                      |
|    \\/     M anipulation  |                                                 |
\*---------------------------------------------------------------------------*/
FoamFile
{
    version     2.0;
    format      ascii;
    class       volVectorField;
    location    "2";
    object      U;
}
// * * * * * * * * * * * * * * * * * * * * * * * * * * * * * * * * * * * * * //

dimensions      [0 1 -1 0 0 0 0];

internalField   nonuniform List<vector> 
400
(
(0.0249996 -6.90324e-12 0)
(0.0249996 -4.27536e-12 0)
(0.0249996 1.55597e-13 0)
(0.0249996 -3.73858e-13 0)
(0.0249996 2.62174e-13 0)
(0.0249996 -2.19486e-13 0)
(0.0249996 1.74248e-13 0)
(0.0249996 -1.36574e-13 0)
(0.0249996 1.02986e-13 0)
(0.0249996 -7.29312e-14 0)
(0.0249996 4.54826e-14 0)
(0.0249996 -1.98721e-14 0)
(0.0249996 -4.59142e-15 0)
(0.0249996 2.84798e-14 0)
(0.0249996 -5.31348e-14 0)
(0.0249996 7.45935e-14 0)
(0.0249996 -1.32978e-13 0)
(0.0249996 1.72547e-13 0)
(0.0249996 -2.40532e-12 0)
(0.0249996 -3.94906e-12 0)
(0.0749989 -2.91559e-11 0)
(0.0749989 -2.14646e-11 0)
(0.0749989 -6.94702e-14 0)
(0.0749989 -1.26746e-12 0)
(0.0749989 7.97494e-13 0)
(0.0749989 -6.82677e-13 0)
(0.0749989 5.38399e-13 0)
(0.0749989 -4.22391e-13 0)
(0.0749989 3.18138e-13 0)
(0.0749989 -2.24972e-13 0)
(0.0749989 1.39841e-13 0)
(0.0749989 -6.03713e-14 0)
(0.0749989 -1.55737e-14 0)
(0.0749989 8.95556e-14 0)
(0.0749989 -1.67584e-13 0)
(0.0749989 2.27002e-13 0)
(0.0749989 -4.81243e-13 0)
(0.0749989 6.97104e-13 0)
(0.0749989 -1.3088e-11 0)
(0.0749989 -1.81232e-11 0)
(0.124998 -6.47591e-11 0)
(0.124998 -5.3703e-11 0)
(0.124998 -1.61696e-12 0)
(0.124998 -2.32163e-12 0)
(0.124998 1.23203e-12 0)
(0.124998 -1.09755e-12 0)
(0.124998 8.56356e-13 0)
(0.124998 -6.72948e-13 0)
(0.124998 5.06005e-13 0)
(0.124998 -3.5712e-13 0)
(0.124998 2.20967e-13 0)
(0.124998 -9.37652e-14 0)
(0.124998 -2.78728e-14 0)
(0.124998 1.45964e-13 0)
(0.124998 -2.74645e-13 0)
(0.124998 3.49927e-13 0)
(0.124998 -9.55798e-13 0)
(0.124998 1.35684e-12 0)
(0.124998 -3.4432e-11 0)
(0.124998 -4.29456e-11 0)
(0.174998 -1.04821e-10 0)
(0.174998 -9.32302e-11 0)
(0.174998 -4.19551e-12 0)
(0.174998 -3.26139e-12 0)
(0.174998 1.43256e-12 0)
(0.174998 -1.3425e-12 0)
(0.174998 1.03356e-12 0)
(0.174998 -8.13961e-13 0)
(0.174998 6.10767e-13 0)
(0.174998 -4.30029e-13 0)
(0.174998 2.64572e-13 0)
(0.174998 -1.0984e-13 0)
(0.174998 -3.82432e-14 0)
(0.174998 1.81372e-13 0)
(0.174998 -3.43598e-13 0)
(0.174998 4.06401e-13 0)
(0.174998 -1.44297e-12 0)
(0.174998 2.09778e-12 0)
(0.174998 -6.21984e-11 0)
(0.174998 -7.33168e-11 0)
(0.224997 -1.42935e-10 0)
(0.224997 -1.33241e-10 0)
(0.224997 -7.40362e-12 0)
(0.224997 -4.02267e-12 0)
(0.224997 1.41619e-12 0)
(0.224997 -1.4224e-12 0)
(0.224997 1.07615e-12 0)
(0.224997 -8.50024e-13 0)
(0.224997 6.3616e-13 0)
(0.224997 -4.4661e-13 0)
(0.224997 2.72845e-13 0)
(0.224997 -1.10148e-13 0)
(0.224997 -4.56985e-14 0)
(0.224997 1.95457e-13 0)
(0.224997 -3.73719e-13 0)
(0.224997 4.00795e-13 0)
(0.224997 -1.90131e-12 0)
(0.224997 2.81208e-12 0)
(0.224997 -9.22197e-11 0)
(0.224997 -1.04941e-10 0)
(0.274996 -1.74592e-10 0)
(0.274996 -1.68474e-10 0)
(0.274996 -1.07613e-11 0)
(0.274996 -4.57185e-12 0)
(0.274996 1.23249e-12 0)
(0.274996 -1.36702e-12 0)
(0.274996 1.01026e-12 0)
(0.274996 -8.01322e-13 0)
(0.274996 5.97643e-13 0)
(0.274996 -4.18013e-13 0)
(0.274996 2.53038e-13 0)
(0.274996 -9.8333e-14 0)
(0.274996 -5.0024e-14 0)
(0.274996 1.9145e-13 0)
(0.274996 -3.70688e-13 0)
(0.274996 3.46976e-13 0)
(0.274996 -2.29781e-12 0)
(0.274996 3.4691e-12 0)
(0.274996 -1.20946e-10 0)
(0.274996 -1.34373e-10 0)
(0.324996 -1.96717e-10 0)
(0.324996 -1.95222e-10 0)
(0.324996 -1.38672e-11 0)
(0.324996 -4.88023e-12 0)
(0.324996 9.22859e-13 0)
(0.324996 -1.20094e-12 0)
(0.324996 8.5755e-13 0)
(0.324996 -6.84581e-13 0)
(0.324996 5.08013e-13 0)
(0.324996 -3.53446e-13 0)
(0.324996 2.11108e-13 0)
(0.324996 -7.73479e-14 0)
(0.324996 -5.11192e-14 0)
(0.324996 1.72135e-13 0)
(0.324996 -3.39342e-13 0)
(0.324996 2.56218e-13 0)
(0.324996 -2.60413e-12 0)
(0.324996 4.01931e-12 0)
(0.324996 -1.45493e-10 0)
(0.324996 -1.58793e-10 0)
(0.374996 -2.0736e-10 0)
(0.374996 -2.10987e-10 0)
(0.374996 -1.638e-11 0)
(0.374996 -4.92432e-12 0)
(0.374996 5.24188e-13 0)
(0.374996 -9.45906e-13 0)
(0.374996 6.37237e-13 0)
(0.374996 -5.14582e-13 0)
(0.374996 3.78567e-13 0)
(0.374996 -2.61009e-13 0)
(0.374996 1.52268e-13 0)
(0.374996 -4.97189e-14 0)
(0.374996 -4.90215e-14 0)
(0.374996 1.40122e-13 0)
(0.374996 -2.8415e-13 0)
(0.374996 1.38584e-13 0)
(0.374996 -2.79518e-12 0)
(0.374996 4.41328e-12 0)
(0.374996 -1.63577e-10 0)
(0.374996 -1.7597e-10 0)
(0.424995 -2.05852e-10 0)
(0.424995 -2.14614e-10 0)
(0.424995 -1.8048e-11 0)
(0.424995 -4.69804e-12 0)
(0.424995 7.27513e-14 0)
(0.424995 -6.24926e-13 0)
(0.424995 3.69166e-13 0)
(0.424995 -3.06638e-13 0)
(0.424995 2.20952e-13 0)
(0.424995 -1.49009e-13 0)
(0.424995 8.17937e-14 0)
(0.424995 -1.7895e-14 0)
(0.424995 -4.39714e-14 0)
(0.424995 9.8347e-14 0)
(0.424995 -2.10207e-13 0)
(0.424995 4.14887e-15 0)
(0.424995 -2.85434e-12 0)
(0.424995 4.60617e-12 0)
(0.424995 -1.73659e-10 0)
(0.424995 -1.84441e-10 0)
(0.474995 -1.92755e-10 0)
(0.474995 -2.06259e-10 0)
(0.474995 -1.87292e-11 0)
(0.474995 -4.21636e-12 0)
(0.474995 -3.96258e-13 0)
(0.474995 -2.62416e-13 0)
(0.474995 7.3856e-14 0)
(0.474995 -7.66276e-14 0)
(0.474995 4.72008e-14 0)
(0.474995 -2.59788e-14 0)
(0.474995 5.02345e-15 0)
(0.474995 1.57467e-14 0)
(0.474995 -3.64161e-14 0)
(0.474995 5.00735e-14 0)
(0.474995 -1.23264e-13 0)
(0.474995 -1.36973e-13 0)
(0.474995 -2.77546e-12 0)
(0.474995 4.5667e-12 0)
(0.474995 -1.75033e-10 0)
(0.474995 -1.83605e-10 0)
(0.524995 -1.69762e-10 0)
(0.524995 -1.87304e-10 0)
(0.524995 -1.84015e-11 0)
(0.524995 -3.51597e-12 0)
(0.524995 -8.49938e-13 0)
(0.524995 1.16369e-13 0)
(0.524995 -2.28058e-13 0)
(0.524995 1.59422e-13 0)
(0.524995 -1.30588e-13 0)
(0.524995 9.95394e-14 0)
(0.524995 -7.27477e-14 0)
(0.524995 4.89413e-14 0)
(0.524995 -2.69902e-14 0)
(0.524995 -1.2009e-15 0)
(0.524995 -2.95571e-14 0)
(0.524995 -2.74888e-13 0)
(0.524995 -2.56385e-12 0)
(0.524995 4.28399e-12 0)
(0.524995 -1.67837e-10 0)
(0.524995 -1.73744e-10 0)
(0.574995 -1.39471e-10 0)
(0.574995 -1.60134e-10 0)
(0.574995 -1.71579e-11 0)
(0.574995 -2.65401e-12 0)
(0.574995 -1.25826e-12 0)
(0.574995 4.85729e-13 0)
(0.574995 -5.16144e-13 0)
(0.574995 3.85565e-13 0)
(0.574995 -3.00442e-13 0)
(0.574995 2.19123e-13 0)
(0.574995 -1.46352e-13 0)
(0.574995 7.95591e-14 0)
(0.574995 -1.64713e-14 0)
(0.574995 -5.18313e-14 0)
(0.574995 6.43162e-14 0)
(0.574995 -4.00048e-13 0)
(0.574995 -2.23627e-12 0)
(0.574995 3.7734e-12 0)
(0.574995 -1.52994e-10 0)
(0.574995 -1.55963e-10 0)
(0.624996 -1.05138e-10 0)
(0.624996 -1.27874e-10 0)
(0.624996 -1.5187e-11 0)
(0.624996 -1.70496e-12 0)
(0.624996 -1.59425e-12 0)
(0.624996 8.19777e-13 0)
(0.624996 -7.70415e-13 0)
(0.624996 5.86109e-13 0)
(0.624996 -4.50596e-13 0)
(0.624996 3.24526e-13 0)
(0.624996 -2.10761e-13 0)
(0.624996 1.05598e-13 0)
(0.624996 -5.75478e-15 0)
(0.624996 -9.81071e-14 0)
(0.624996 1.51541e-13 0)
(0.624996 -5.03378e-13 0)
(0.624996 -1.82026e-12 0)
(0.624996 3.07877e-12 0)
(0.624996 -1.32106e-10 0)
(0.624996 -1.32084e-10 0)
(0.674996 -7.03286e-11 0)
(0.674996 -9.40208e-11 0)
(0.674996 -1.27434e-11 0)
(0.674996 -7.55522e-13 0)
(0.674996 -1.83395e-12 0)
(0.674996 1.0929e-12 0)
(0.674996 -9.71589e-13 0)
(0.674996 7.45827e-13 0)
(0.674996 -5.69682e-13 0)
(0.674996 4.07809e-13 0)
(0.674996 -2.61175e-13 0)
(0.674996 1.25193e-13 0)
(0.674996 4.20912e-15 0)
(0.674996 -1.36332e-13 0)
(0.674996 2.25241e-13 0)
(0.674996 -5.76477e-13 0)
(0.674996 -1.35236e-12 0)
(0.674996 2.27089e-12 0)
(0.674996 -1.07281e-10 0)
(0.674996 -1.04468e-10 0)
(0.724996 -3.85942e-11 0)
(0.724996 -6.20936e-11 0)
(0.724996 -1.01066e-11 0)
(0.724996 1.02397e-13 0)
(0.724996 -1.95652e-12 0)
(0.724996 1.28043e-12 0)
(0.724996 -1.10155e-12 0)
(0.724996 8.50332e-13 0)
(0.724996 -6.46988e-13 0)
(0.724996 4.615e-13 0)
(0.724996 -2.93088e-13 0)
(0.724996 1.36615e-13 0)
(0.724996 1.24745e-14 0)
(0.724996 -1.62982e-13 0)
(0.724996 2.7874e-13 0)
(0.724996 -6.11915e-13 0)
(0.724996 -8.75554e-13 0)
(0.724996 1.44045e-12 0)
(0.724996 -8.09459e-11 0)
(0.724996 -7.5814e-11 0)
(0.774997 -1.30235e-11 0)
(0.774997 -3.51427e-11 0)
(0.774997 -7.53744e-12 0)
(0.774997 7.78284e-13 0)
(0.774997 -1.94316e-12 0)
(0.774997 1.35864e-12 0)
(0.774997 -1.14316e-12 0)
(0.774997 8.85959e-13 0)
(0.774997 -6.72344e-13 0)
(0.774997 4.78495e-13 0)
(0.774997 -3.02201e-13 0)
(0.774997 1.38216e-13 0)
(0.774997 1.81534e-14 0)
(0.774997 -1.74757e-13 0)
(0.774997 3.05625e-13 0)
(0.774997 -6.03318e-13 0)
(0.774997 -4.36261e-13 0)
(0.774997 6.87253e-13 0)
(0.774997 -5.5561e-11 0)
(0.774997 -4.88562e-11 0)
(0.824998 3.98865e-12 0)
(0.824998 -1.54238e-11 0)
(0.824998 -5.22136e-12 0)
(0.824998 1.18432e-12 0)
(0.824998 -1.77106e-12 0)
(0.824998 1.30089e-12 0)
(0.824998 -1.077e-12 0)
(0.824998 8.37209e-13 0)
(0.824998 -6.34194e-13 0)
(0.824998 4.50673e-13 0)
(0.824998 -2.83564e-13 0)
(0.824998 1.28005e-13 0)
(0.824998 2.04001e-14 0)
(0.824998 -1.68113e-13 0)
(0.824998 2.98915e-13 0)
(0.824998 -5.44074e-13 0)
(0.824998 -8.23619e-14 0)
(0.824998 1.08263e-13 0)
(0.824998 -3.34026e-11 0)
(0.824998 -2.61574e-11 0)
(0.874998 1.13801e-11 0)
(0.874998 -3.70767e-12 0)
(0.874998 -3.24073e-12 0)
(0.874998 1.23175e-12 0)
(0.874998 -1.41056e-12 0)
(0.874998 1.07514e-12 0)
(0.874998 -8.79394e-13 0)
(0.874998 6.85217e-13 0)
(0.874998 -5.184e-13 0)
(0.874998 3.6804e-13 0)
(0.874998 -2.30992e-13 0)
(0.874998 1.03363e-13 0)
(0.874998 1.84258e-14 0)
(0.874998 -1.39043e-13 0)
(0.874998 2.50531e-13 0)
(0.874998 -4.27336e-13 0)
(0.874998 1.34808e-13 0)
(0.874998 -2.26579e-13 0)
(0.874998 -1.62184e-11 0)
(0.874998 -9.75203e-12 0)
(0.924999 9.84245e-12 0)
(0.924999 7.75244e-13 0)
(0.924999 -1.59052e-12 0)
(0.924999 8.89608e-13 0)
(0.924999 -8.59556e-13 0)
(0.924999 6.74754e-13 0)
(0.924999 -5.46737e-13 0)
(0.924999 4.26841e-13 0)
(0.924999 -3.2264e-13 0)
(0.924999 2.2894e-13 0)
(0.924999 -1.43472e-13 0)
(0.924999 6.38536e-14 0)
(0.924999 1.21346e-14 0)
(0.924999 -8.70846e-14 0)
(0.924999 1.58669e-13 0)
(0.924999 -2.56165e-13 0)
(0.924999 1.82081e-13 0)
(0.924999 -2.65517e-13 0)
(0.924999 -5.22766e-12 0)
(0.924999 -9.69715e-13 0)
(0.975 3.67098e-12 0)
(0.975 8.12034e-13 0)
(0.975 -4.37746e-13 0)
(0.975 3.07649e-13 0)
(0.975 -2.73267e-13 0)
(0.975 2.18025e-13 0)
(0.975 -1.75669e-13 0)
(0.975 1.37326e-13 0)
(0.975 -1.03747e-13 0)
(0.975 7.36011e-14 0)
(0.975 -4.60941e-14 0)
(0.975 2.0461e-14 0)
(0.975 4.0123e-15 0)
(0.975 -2.80702e-14 0)
(0.975 5.15338e-14 0)
(0.975 -8.04492e-14 0)
(0.975 7.69721e-14 0)
(0.975 -1.22234e-13 0)
(0.975 -6.80525e-13 0)
(0.975 7.46632e-13 0)
)
;

boundaryField
{
    top
    {
        type            fixedValue;
        value           uniform (1 0 0);
    }
    bottom
    {
        type            fixedValue;
        value           uniform (0 0 0);
    }
    inlet
    {
        type            zeroGradient;
    }
    outlet
    {
        type            zeroGradient;
    }
    frontAndBack
    {
        type            empty;
    }
}


// ************************************************************************* //
