/*--------------------------------*- C++ -*----------------------------------*\
| =========                 |                                                 |
| \\      /  F ield         | OpenFOAM: The Open Source CFD Toolbox           |
|  \\    /   O peration     | Version:  4.1                                   |
|   \\  /    A nd           | Web:      www.OpenFOAM.org                      |
|    \\/     M anipulation  |                                                 |
\*---------------------------------------------------------------------------*/
FoamFile
{
    version     2.0;
    format      ascii;
    class       volScalarField;
    location    "0.8";
    object      p;
}
// * * * * * * * * * * * * * * * * * * * * * * * * * * * * * * * * * * * * * //

dimensions      [0 2 -2 0 0 0 0];

internalField   nonuniform List<scalar> 
400
(
1.08499e-06
9.03566e-07
5.88959e-07
6.61351e-07
5.09773e-07
5.74464e-07
4.70579e-07
5.05447e-07
4.31622e-07
4.4077e-07
3.90548e-07
3.78194e-07
3.48067e-07
3.1682e-07
3.05395e-07
2.57249e-07
2.68806e-07
2.19993e-07
3.12348e-07
4.56634e-07
1.08018e-06
8.98459e-07
5.88363e-07
6.61184e-07
5.09757e-07
5.74438e-07
4.70588e-07
5.05436e-07
4.31629e-07
4.40765e-07
3.90551e-07
3.78193e-07
3.48066e-07
3.16822e-07
3.05387e-07
2.57239e-07
2.68703e-07
2.19865e-07
3.08338e-07
4.52562e-07
1.0769e-06
8.94207e-07
5.8769e-07
6.61125e-07
5.0968e-07
5.74471e-07
4.70553e-07
5.05462e-07
4.31609e-07
4.40779e-07
3.90541e-07
3.78198e-07
3.48065e-07
3.16817e-07
3.05394e-07
2.57217e-07
2.68636e-07
2.19613e-07
3.04658e-07
4.49246e-07
1.07475e-06
8.91037e-07
5.87008e-07
6.61097e-07
5.09601e-07
5.7451e-07
4.70513e-07
5.05491e-07
4.31586e-07
4.40796e-07
3.9053e-07
3.78203e-07
3.48065e-07
3.16812e-07
3.05404e-07
2.57199e-07
2.68585e-07
2.19224e-07
3.01576e-07
4.46673e-07
1.07325e-06
8.88664e-07
5.86348e-07
6.61074e-07
5.0954e-07
5.74541e-07
4.70481e-07
5.05513e-07
4.31568e-07
4.40808e-07
3.90522e-07
3.78207e-07
3.48065e-07
3.16808e-07
3.05413e-07
2.57191e-07
2.68541e-07
2.18751e-07
2.98938e-07
4.44535e-07
1.07215e-06
8.86802e-07
5.85692e-07
6.61051e-07
5.09492e-07
5.74566e-07
4.70457e-07
5.05531e-07
4.31554e-07
4.40818e-07
3.90516e-07
3.7821e-07
3.48065e-07
3.16805e-07
3.05422e-07
2.57189e-07
2.68503e-07
2.18205e-07
2.96603e-07
4.42691e-07
1.0714e-06
8.85378e-07
5.85054e-07
6.61031e-07
5.09454e-07
5.74585e-07
4.70437e-07
5.05545e-07
4.31542e-07
4.40826e-07
3.9051e-07
3.78212e-07
3.48065e-07
3.16803e-07
3.05431e-07
2.57195e-07
2.68472e-07
2.17612e-07
2.94556e-07
4.41112e-07
1.07092e-06
8.84325e-07
5.84451e-07
6.61013e-07
5.09426e-07
5.746e-07
4.70422e-07
5.05556e-07
4.31534e-07
4.40832e-07
3.90507e-07
3.78214e-07
3.48065e-07
3.16801e-07
3.05441e-07
2.57206e-07
2.68447e-07
2.16997e-07
2.92767e-07
4.39754e-07
1.07064e-06
8.83568e-07
5.839e-07
6.60993e-07
5.09408e-07
5.74611e-07
4.70412e-07
5.05563e-07
4.31529e-07
4.40836e-07
3.90504e-07
3.78215e-07
3.48065e-07
3.168e-07
3.0545e-07
2.57223e-07
2.68427e-07
2.16387e-07
2.91191e-07
4.38551e-07
1.07047e-06
8.83035e-07
5.83418e-07
6.6097e-07
5.094e-07
5.74616e-07
4.70408e-07
5.05566e-07
4.31526e-07
4.40838e-07
3.90503e-07
3.78215e-07
3.48065e-07
3.168e-07
3.05458e-07
2.57245e-07
2.6841e-07
2.15806e-07
2.89768e-07
4.37433e-07
1.07035e-06
8.82672e-07
5.8302e-07
6.60943e-07
5.09401e-07
5.74617e-07
4.70408e-07
5.05565e-07
4.31526e-07
4.40837e-07
3.90504e-07
3.78215e-07
3.48065e-07
3.16801e-07
3.05466e-07
2.57271e-07
2.68395e-07
2.15273e-07
2.88441e-07
4.36333e-07
1.07024e-06
8.82437e-07
5.82719e-07
6.60913e-07
5.09412e-07
5.74613e-07
4.70414e-07
5.05561e-07
4.3153e-07
4.40835e-07
3.90505e-07
3.78214e-07
3.48065e-07
3.16802e-07
3.05473e-07
2.573e-07
2.68378e-07
2.14806e-07
2.87148e-07
4.35185e-07
1.07011e-06
8.82312e-07
5.82526e-07
6.60879e-07
5.09432e-07
5.74604e-07
4.70425e-07
5.05553e-07
4.31536e-07
4.4083e-07
3.90508e-07
3.78212e-07
3.48066e-07
3.16804e-07
3.05479e-07
2.5733e-07
2.6836e-07
2.14416e-07
2.85835e-07
4.33934e-07
1.06995e-06
8.82297e-07
5.82445e-07
6.60843e-07
5.09462e-07
5.7459e-07
4.70441e-07
5.05542e-07
4.31545e-07
4.40824e-07
3.90513e-07
3.7821e-07
3.48066e-07
3.16807e-07
3.05483e-07
2.57362e-07
2.68338e-07
2.14112e-07
2.84453e-07
4.32532e-07
1.06979e-06
8.82412e-07
5.82477e-07
6.6081e-07
5.09502e-07
5.74571e-07
4.70462e-07
5.05527e-07
4.31557e-07
4.40815e-07
3.90518e-07
3.78207e-07
3.48066e-07
3.1681e-07
3.05486e-07
2.57394e-07
2.68313e-07
2.13897e-07
2.82965e-07
4.30947e-07
1.06965e-06
8.82694e-07
5.82613e-07
6.6078e-07
5.09552e-07
5.74548e-07
4.70487e-07
5.05508e-07
4.31571e-07
4.40805e-07
3.90525e-07
3.78203e-07
3.48067e-07
3.16814e-07
3.05488e-07
2.57426e-07
2.68284e-07
2.13768e-07
2.81354e-07
4.29164e-07
1.06959e-06
8.8321e-07
5.82844e-07
6.60754e-07
5.09614e-07
5.74517e-07
4.70519e-07
5.05485e-07
4.3159e-07
4.40791e-07
3.90534e-07
3.78199e-07
3.48067e-07
3.16819e-07
3.05487e-07
2.57456e-07
2.68253e-07
2.13722e-07
2.7962e-07
4.27177e-07
1.06982e-06
8.84211e-07
5.83179e-07
6.60733e-07
5.09693e-07
5.74478e-07
4.7056e-07
5.05455e-07
4.31613e-07
4.40775e-07
3.90545e-07
3.78194e-07
3.48068e-07
3.16825e-07
3.05483e-07
2.57487e-07
2.68219e-07
2.13754e-07
2.77753e-07
4.24963e-07
1.07071e-06
8.85858e-07
5.83581e-07
6.60746e-07
5.09768e-07
5.74447e-07
4.70595e-07
5.0543e-07
4.31633e-07
4.40761e-07
3.90554e-07
3.78189e-07
3.48068e-07
3.1683e-07
3.0548e-07
2.57511e-07
2.6819e-07
2.13867e-07
2.75707e-07
4.22552e-07
1.07291e-06
8.8819e-07
5.83963e-07
6.60871e-07
5.09781e-07
5.74474e-07
4.70585e-07
5.05442e-07
4.31626e-07
4.40766e-07
3.90551e-07
3.78191e-07
3.48069e-07
3.1683e-07
3.05489e-07
2.57514e-07
2.68192e-07
2.1403e-07
2.73701e-07
4.20463e-07
)
;

boundaryField
{
    top
    {
        type            zeroGradient;
    }
    bottom
    {
        type            zeroGradient;
    }
    inlet
    {
        type            fixedValue;
        value           uniform 0;
    }
    outlet
    {
        type            fixedValue;
        value           uniform 0;
    }
    frontAndBack
    {
        type            empty;
    }
}


// ************************************************************************* //
