/*--------------------------------*- C++ -*----------------------------------*\
| =========                 |                                                 |
| \\      /  F ield         | OpenFOAM: The Open Source CFD Toolbox           |
|  \\    /   O peration     | Version:  4.1                                   |
|   \\  /    A nd           | Web:      www.OpenFOAM.org                      |
|    \\/     M anipulation  |                                                 |
\*---------------------------------------------------------------------------*/
FoamFile
{
    version     2.0;
    format      ascii;
    class       surfaceScalarField;
    location    "0.8";
    object      phi;
}
// * * * * * * * * * * * * * * * * * * * * * * * * * * * * * * * * * * * * * //

dimensions      [0 3 -1 0 0 0 0];

internalField   nonuniform List<scalar> 
760
(
1.24842e-06
-1.82384e-12
1.24842e-06
-1.15312e-12
1.24842e-06
3.2132e-14
1.24842e-06
-1.00508e-13
1.24842e-06
6.71531e-14
1.24842e-06
-5.85068e-14
1.24842e-06
4.62183e-14
1.24842e-06
-3.6713e-14
1.24842e-06
2.78051e-14
1.24842e-06
-1.98831e-14
1.24842e-06
1.25742e-14
1.24842e-06
-5.79097e-15
1.24842e-06
-6.71139e-16
1.24842e-06
6.82979e-15
1.24842e-06
-1.33574e-14
1.24842e-06
1.70809e-14
1.24842e-06
-3.77094e-14
1.24842e-06
5.85059e-14
1.24843e-06
-8.65207e-13
-1.26791e-12
3.74531e-06
-5.38233e-12
3.74532e-06
-4.04737e-12
3.74532e-06
-7.19926e-14
3.74532e-06
-2.50729e-13
3.74532e-06
1.3747e-13
3.74532e-06
-1.28359e-13
3.74532e-06
9.89953e-14
3.74532e-06
-7.92829e-14
3.74532e-06
5.97587e-14
3.74532e-06
-4.27085e-14
3.74532e-06
2.68598e-14
3.74532e-06
-1.22086e-14
3.74532e-06
-1.85234e-15
3.74532e-06
1.49715e-14
3.74532e-06
-3.01031e-14
3.74532e-06
3.27678e-14
3.74532e-06
-1.06364e-13
3.74532e-06
1.4873e-13
3.74532e-06
-3.25887e-12
-4.17599e-12
6.24232e-06
-9.45781e-12
6.24232e-06
-7.8238e-12
6.24232e-06
-2.78517e-13
6.24232e-06
-3.72927e-13
6.24232e-06
1.7684e-13
6.24232e-06
-1.73235e-13
6.24232e-06
1.3148e-13
6.24232e-06
-1.0582e-13
6.24232e-06
7.94554e-14
6.24232e-06
-5.66964e-14
6.24232e-06
3.54329e-14
6.24232e-06
-1.58179e-14
6.24232e-06
-3.07664e-15
6.24232e-06
2.05497e-14
6.24232e-06
-4.16088e-14
6.24232e-06
3.9627e-14
6.24232e-06
-1.75878e-13
6.24232e-06
2.67464e-13
6.24233e-06
-6.76707e-12
-8.09788e-12
8.73951e-06
-1.33377e-11
8.73952e-06
-1.1688e-11
8.73952e-06
-5.18863e-13
8.73952e-06
-4.54853e-13
8.73952e-06
1.91893e-13
8.73952e-06
-1.94499e-13
8.73952e-06
1.45996e-13
8.73952e-06
-1.1783e-13
8.73952e-06
8.81845e-14
8.73952e-06
-6.27796e-14
8.73952e-06
3.89588e-14
8.73952e-06
-1.70056e-14
8.73952e-06
-4.16656e-15
8.73952e-06
2.37402e-14
8.73952e-06
-4.77959e-14
8.73952e-06
4.01838e-14
8.73952e-06
-2.37982e-13
8.73952e-06
4.14748e-13
8.73952e-06
-1.09066e-11
-1.25549e-11
1.1237e-05
-1.64781e-11
1.1237e-05
-1.50324e-11
1.1237e-05
-7.53197e-13
1.1237e-05
-4.94718e-13
1.1237e-05
1.86541e-13
1.1237e-05
-1.94714e-13
1.1237e-05
1.44807e-13
1.1237e-05
-1.17075e-13
1.1237e-05
8.73314e-14
1.1237e-05
-6.19808e-14
1.1237e-05
3.81388e-14
1.1237e-05
-1.61725e-14
1.1237e-05
-5.0054e-15
1.1237e-05
2.46867e-14
1.1237e-05
-4.90661e-14
1.1237e-05
3.554e-14
1.1237e-05
-2.89384e-13
1.1237e-05
5.77425e-13
1.1237e-05
-1.52113e-11
-1.70778e-11
1.37347e-05
-1.84944e-11
1.37347e-05
-1.74097e-11
1.37347e-05
-9.47005e-13
1.37347e-05
-4.92757e-13
1.37347e-05
1.64625e-13
1.37347e-05
-1.76842e-13
1.37347e-05
1.30357e-13
1.37347e-05
-1.05492e-13
1.37347e-05
7.83948e-14
1.37347e-05
-5.53996e-14
1.37347e-05
3.37097e-14
1.37347e-05
-1.3721e-14
1.37347e-05
-5.51452e-15
1.37347e-05
2.35936e-14
1.37347e-05
-4.59633e-14
1.37347e-05
2.67527e-14
1.37347e-05
-3.27261e-13
1.37347e-05
7.41157e-13
1.37348e-05
-1.92395e-11
-2.12223e-11
1.62329e-05
-1.91711e-11
1.62329e-05
-1.85464e-11
1.62329e-05
-1.07464e-12
1.62329e-05
-4.51614e-13
1.62329e-05
1.29832e-13
1.62329e-05
-1.44196e-13
1.62329e-05
1.05223e-13
1.62329e-05
-8.51631e-14
1.62329e-05
6.29632e-14
1.62329e-05
-4.41948e-14
1.62329e-05
2.64329e-14
1.62329e-05
-1.00477e-14
1.62329e-05
-5.65459e-15
1.62329e-05
2.07232e-14
1.62329e-05
-3.91635e-14
1.62329e-05
1.48249e-14
1.62329e-05
-3.49564e-13
1.62329e-05
8.90764e-13
1.62329e-05
-2.26061e-11
-2.46021e-11
1.87315e-05
-1.84598e-11
1.87315e-05
-1.83426e-11
1.87315e-05
-1.12062e-12
1.87315e-05
-3.7604e-13
1.87315e-05
8.57856e-14
1.87315e-05
-1.00331e-13
1.87315e-05
7.20915e-14
1.87315e-05
-5.82738e-14
1.87315e-05
4.26885e-14
1.87315e-05
-2.95642e-14
1.87315e-05
1.70814e-14
1.87315e-05
-5.53722e-15
1.87315e-05
-5.42323e-15
1.87315e-05
1.63959e-14
1.87315e-05
-2.94403e-14
1.87315e-05
7.7553e-16
1.87315e-05
-3.55001e-13
1.87315e-05
1.01178e-12
1.87315e-05
-2.50073e-11
-2.69149e-11
2.12305e-05
-1.64698e-11
2.12305e-05
-1.68648e-11
2.12305e-05
-1.08132e-12
2.12305e-05
-2.7294e-13
2.12305e-05
3.59948e-14
2.12305e-05
-4.89832e-14
2.12305e-05
3.37191e-14
2.12305e-05
-2.70792e-14
2.12305e-05
1.92627e-14
2.12305e-05
-1.27278e-14
2.12305e-05
6.43014e-15
2.12305e-05
-5.58279e-16
2.12305e-05
-4.8525e-15
2.12305e-05
1.09832e-14
2.12305e-05
-1.76487e-14
2.12305e-05
-1.43696e-14
2.12305e-05
-3.43274e-13
2.12305e-05
1.09166e-12
2.12305e-05
-2.624e-11
-2.79626e-11
2.373e-05
-1.34473e-11
2.373e-05
-1.43265e-11
2.373e-05
-9.65183e-13
2.373e-05
-1.51184e-13
2.373e-05
-1.61638e-14
2.373e-05
5.99586e-15
2.373e-05
-7.10424e-15
2.373e-05
6.12802e-15
2.373e-05
-5.605e-15
2.373e-05
5.08814e-15
2.373e-05
-4.75249e-15
2.373e-05
4.5389e-15
2.373e-05
-4.00467e-15
2.373e-05
4.89919e-15
2.373e-05
-4.70398e-15
2.373e-05
-2.95823e-14
2.373e-05
-3.15232e-13
2.373e-05
1.12119e-12
2.373e-05
-2.62131e-11
-2.76645e-11
2.623e-05
-9.74674e-12
2.623e-05
-1.10578e-11
2.623e-05
-7.91417e-13
2.623e-05
-2.12233e-14
2.623e-05
-6.74459e-14
2.623e-05
6.07055e-14
2.623e-05
-4.75881e-14
2.623e-05
3.90498e-14
2.623e-05
-3.02089e-14
2.623e-05
2.26654e-14
2.623e-05
-1.57121e-14
2.623e-05
9.42338e-15
2.623e-05
-2.96638e-15
2.623e-05
-1.41013e-15
2.623e-05
8.43907e-15
2.623e-05
-4.38436e-14
2.623e-05
-2.72974e-13
2.623e-05
1.09576e-12
2.623e-05
-2.49511e-11
-2.60617e-11
2.87305e-05
-5.79205e-12
2.87305e-05
-7.46574e-12
2.87305e-05
-5.87061e-13
2.87305e-05
1.05488e-13
2.87305e-05
-1.14718e-13
2.87305e-05
1.11265e-13
2.87305e-05
-8.4973e-14
2.87305e-05
6.94128e-14
2.87305e-05
-5.28669e-14
2.87305e-05
3.88067e-14
2.87305e-05
-2.5714e-14
2.87305e-05
1.37831e-14
2.87305e-05
-1.84147e-15
2.87305e-05
-7.47927e-15
2.87305e-05
2.08101e-14
2.87305e-05
-5.61581e-14
2.87305e-05
-2.19836e-13
2.87305e-05
1.01625e-12
2.87305e-05
-2.25888e-11
-2.33121e-11
3.12315e-05
-2.03177e-12
3.12315e-05
-3.98582e-12
3.12315e-05
-3.82804e-13
3.12315e-05
2.17238e-13
3.12315e-05
-1.54915e-13
3.12315e-05
1.53884e-13
3.12315e-05
-1.1656e-13
3.12315e-05
9.49976e-14
3.12315e-05
-7.19385e-14
3.12315e-05
5.23476e-14
3.12315e-05
-3.40479e-14
3.12315e-05
1.73228e-14
3.12315e-05
-7.42428e-16
3.12315e-05
-1.28372e-14
3.12315e-05
3.14477e-14
3.12315e-05
-6.55745e-14
3.12315e-05
-1.60289e-13
3.12315e-05
8.89415e-13
3.12315e-05
-1.93582e-11
-1.96779e-11
3.37329e-05
1.11131e-12
3.37329e-05
-1.02802e-12
3.37329e-05
-2.07904e-13
3.37329e-05
3.02883e-13
3.37329e-05
-1.84991e-13
3.37329e-05
1.84925e-13
3.37329e-05
-1.39738e-13
3.37329e-05
1.13665e-13
3.37329e-05
-8.58408e-14
3.37329e-05
6.21666e-14
3.37329e-05
-4.00304e-14
3.37329e-05
1.97613e-14
3.37329e-05
2.19007e-16
3.37329e-05
-1.7022e-14
3.37329e-05
3.94247e-14
3.37329e-05
-7.12117e-14
3.37329e-05
-9.97084e-14
3.37329e-05
7.27453e-13
3.37329e-05
-1.55682e-11
-1.55037e-11
3.62348e-05
3.29323e-12
3.62348e-05
1.08075e-12
3.62348e-05
-8.4819e-14
3.62348e-05
3.52689e-13
3.62348e-05
-2.01853e-13
3.62348e-05
2.00972e-13
3.62348e-05
-1.52004e-13
3.62348e-05
1.23381e-13
3.62348e-05
-9.30627e-14
3.62348e-05
6.7193e-14
3.62348e-05
-4.30074e-14
3.62348e-05
2.0827e-14
3.62348e-05
9.42141e-16
3.62348e-05
-1.95965e-14
3.62348e-05
4.3874e-14
3.62348e-05
-7.22889e-14
3.62348e-05
-4.40431e-14
3.62348e-05
5.46777e-13
3.62348e-05
-1.1577e-11
-1.11877e-11
3.8737e-05
4.30282e-12
3.8737e-05
2.15408e-12
3.8737e-05
-2.45612e-14
3.8737e-05
3.59028e-13
3.8737e-05
-2.02326e-13
3.8737e-05
1.98883e-13
3.8737e-05
-1.50989e-13
3.8737e-05
1.22238e-13
3.8737e-05
-9.21782e-14
3.8737e-05
6.64148e-14
3.8737e-05
-4.23546e-14
3.8737e-05
2.02538e-14
3.8737e-05
1.34781e-15
3.8737e-05
-2.01634e-14
3.8737e-05
4.40127e-14
3.8737e-05
-6.81648e-14
3.8737e-05
5.99415e-16
3.8737e-05
3.65981e-13
3.8737e-05
-7.76002e-12
-7.14609e-12
4.12395e-05
4.11203e-12
4.12395e-05
2.20008e-12
4.12395e-05
-2.19831e-14
4.12395e-05
3.17306e-13
4.12395e-05
-1.83e-13
4.12395e-05
1.75885e-13
4.12395e-05
-1.34468e-13
4.12395e-05
1.08484e-13
4.12395e-05
-8.18581e-14
4.12395e-05
5.88862e-14
4.12395e-05
-3.74787e-14
4.12395e-05
1.77763e-14
4.12395e-05
1.39086e-15
4.12395e-05
-1.83756e-14
4.12395e-05
3.91834e-14
4.12395e-05
-5.83324e-14
4.12395e-05
2.85663e-14
4.12395e-05
2.03812e-13
4.12395e-05
-4.47163e-12
-3.77238e-12
4.37423e-05
2.92303e-12
4.37423e-05
1.46856e-12
4.37423e-05
-5.52335e-14
4.37423e-05
2.26062e-13
4.37423e-05
-1.40246e-13
4.37423e-05
1.29609e-13
4.37423e-05
-1.00379e-13
4.37423e-05
8.05331e-14
4.37423e-05
-6.08797e-14
4.37423e-05
4.37322e-14
4.37423e-05
-2.78165e-14
4.37423e-05
1.31251e-14
4.37423e-05
1.06997e-15
4.37423e-05
-1.39505e-14
4.37423e-05
2.88711e-14
4.37423e-05
-4.24672e-14
4.37423e-05
3.51061e-14
4.37423e-05
7.59891e-14
4.37423e-05
-2.00444e-12
-1.39263e-12
4.62453e-05
1.19007e-12
4.62453e-05
4.91629e-13
4.62453e-05
-6.10518e-14
4.62453e-05
9.4913e-14
4.62453e-05
-6.77501e-14
4.62453e-05
5.88426e-14
4.62453e-05
-4.65717e-14
4.62453e-05
3.70366e-14
4.62453e-05
-2.80931e-14
4.62453e-05
2.0147e-14
4.62453e-05
-1.28211e-14
4.62453e-05
6.02728e-15
4.62453e-05
4.68912e-16
4.62453e-05
-6.5736e-15
4.62453e-05
1.30127e-14
4.62453e-05
-1.96605e-14
4.62453e-05
1.92785e-14
4.62453e-05
3.68182e-15
4.62453e-05
-5.11863e-13
-1.94106e-13
4.87484e-05
4.87484e-05
4.87484e-05
4.87484e-05
4.87484e-05
4.87484e-05
4.87484e-05
4.87484e-05
4.87484e-05
4.87484e-05
4.87484e-05
4.87484e-05
4.87484e-05
4.87484e-05
4.87484e-05
4.87484e-05
4.87484e-05
4.87484e-05
4.87484e-05
)
;

boundaryField
{
    top
    {
        type            calculated;
        value           uniform 0;
    }
    bottom
    {
        type            calculated;
        value           uniform 0;
    }
    inlet
    {
        type            calculated;
        value           nonuniform List<scalar> 
20
(
-1.24842e-06
-3.74531e-06
-6.24231e-06
-8.73951e-06
-1.1237e-05
-1.37347e-05
-1.62329e-05
-1.87315e-05
-2.12305e-05
-2.373e-05
-2.623e-05
-2.87305e-05
-3.12315e-05
-3.37329e-05
-3.62348e-05
-3.8737e-05
-4.12395e-05
-4.37423e-05
-4.62453e-05
-4.87484e-05
)
;
    }
    outlet
    {
        type            calculated;
        value           nonuniform List<scalar> 
20
(
1.24843e-06
3.74532e-06
6.24233e-06
8.73953e-06
1.1237e-05
1.37348e-05
1.62329e-05
1.87315e-05
2.12305e-05
2.373e-05
2.623e-05
2.87305e-05
3.12315e-05
3.37329e-05
3.62347e-05
3.8737e-05
4.12395e-05
4.37423e-05
4.62453e-05
4.87484e-05
)
;
    }
    frontAndBack
    {
        type            empty;
        value           nonuniform 0();
    }
}


// ************************************************************************* //
