/*--------------------------------*- C++ -*----------------------------------*\
| =========                 |                                                 |
| \\      /  F ield         | OpenFOAM: The Open Source CFD Toolbox           |
|  \\    /   O peration     | Version:  4.1                                   |
|   \\  /    A nd           | Web:      www.OpenFOAM.org                      |
|    \\/     M anipulation  |                                                 |
\*---------------------------------------------------------------------------*/
FoamFile
{
    version     2.0;
    format      ascii;
    class       volVectorField;
    location    "0.8";
    object      U;
}
// * * * * * * * * * * * * * * * * * * * * * * * * * * * * * * * * * * * * * //

dimensions      [0 1 -1 0 0 0 0];

internalField   nonuniform List<vector> 
400
(
(0.0249684 -8.71811e-10 0)
(0.0249685 -5.27651e-10 0)
(0.0249685 1.00647e-11 0)
(0.0249685 -5.47965e-11 0)
(0.0249685 3.40008e-11 0)
(0.0249685 -3.07531e-11 0)
(0.0249685 2.39711e-11 0)
(0.0249685 -1.91523e-11 0)
(0.0249685 1.448e-11 0)
(0.0249685 -1.03733e-11 0)
(0.0249685 6.56808e-12 0)
(0.0249685 -3.04812e-12 0)
(0.0249685 -3.28575e-13 0)
(0.0249685 3.48391e-12 0)
(0.0249685 -6.9895e-12 0)
(0.0249685 8.59692e-12 0)
(0.0249685 -2.03674e-11 0)
(0.0249685 1.49816e-11 0)
(0.0249685 -3.43755e-10 0)
(0.0249685 -5.38019e-10 0)
(0.0749062 -3.35857e-09 0)
(0.0749063 -2.29994e-09 0)
(0.0749063 1.62893e-11 0)
(0.0749063 -1.7299e-10 0)
(0.0749063 1.06325e-10 0)
(0.0749063 -9.54174e-11 0)
(0.0749063 7.46099e-11 0)
(0.0749063 -5.94698e-11 0)
(0.0749063 4.49524e-11 0)
(0.0749063 -3.21387e-11 0)
(0.0749063 2.02803e-11 0)
(0.0749063 -9.29242e-12 0)
(0.0749063 -1.20774e-12 0)
(0.0749063 1.11151e-11 0)
(0.0749063 -2.20954e-11 0)
(0.0749063 2.61652e-11 0)
(0.0749063 -6.80656e-11 0)
(0.0749063 1.06052e-10 0)
(0.0749063 -1.75763e-09 0)
(0.0749064 -2.42757e-09 0)
(0.124846 -7.3577e-09 0)
(0.124846 -5.82353e-09 0)
(0.124846 -1.68426e-10 0)
(0.124846 -3.1895e-10 0)
(0.124846 1.61105e-10 0)
(0.124846 -1.54974e-10 0)
(0.124846 1.18323e-10 0)
(0.124846 -9.50863e-11 0)
(0.124846 7.15167e-11 0)
(0.124846 -5.10904e-11 0)
(0.124846 3.20425e-11 0)
(0.124846 -1.44621e-11 0)
(0.124846 -2.46052e-12 0)
(0.124846 1.81239e-11 0)
(0.124846 -3.67477e-11 0)
(0.124846 3.72754e-11 0)
(0.124846 -1.41955e-10 0)
(0.124846 1.9282e-10 0)
(0.124846 -4.79369e-09 0)
(0.124847 -5.92254e-09 0)
(0.17479 -1.14958e-08 0)
(0.17479 -9.78822e-09 0)
(0.17479 -3.9256e-10 0)
(0.17479 -4.23501e-10 0)
(0.17479 1.90224e-10 0)
(0.17479 -1.89458e-10 0)
(0.17479 1.43013e-10 0)
(0.17479 -1.15272e-10 0)
(0.17479 8.64218e-11 0)
(0.17479 -6.16095e-11 0)
(0.17479 3.83868e-11 0)
(0.17479 -1.69764e-11 0)
(0.17479 -3.66433e-12 0)
(0.17479 2.27303e-11 0)
(0.17479 -4.59739e-11 0)
(0.17479 4.14362e-11 0)
(0.17479 -2.08804e-10 0)
(0.17479 3.35655e-10 0)
(0.17479 -8.72108e-09 0)
(0.174791 -1.02348e-08 0)
(0.224739 -1.51486e-08 0)
(0.224739 -1.35517e-08 0)
(0.224739 -6.43001e-10 0)
(0.224739 -4.85727e-10 0)
(0.224739 1.94105e-10 0)
(0.224739 -1.99761e-10 0)
(0.224739 1.49215e-10 0)
(0.224739 -1.20561e-10 0)
(0.224739 9.00848e-11 0)
(0.224739 -6.40488e-11 0)
(0.224739 3.95973e-11 0)
(0.224739 -1.70696e-11 0)
(0.224739 -4.66128e-12 0)
(0.224739 2.47761e-11 0)
(0.224739 -4.96468e-11 0)
(0.224739 3.91066e-11 0)
(0.224739 -2.66914e-10 0)
(0.224739 4.92353e-10 0)
(0.224739 -1.30745e-08 0)
(0.22474 -1.4857e-08 0)
(0.274695 -1.7801e-08 0)
(0.274695 -1.65041e-08 0)
(0.274695 -8.65056e-10 0)
(0.274695 -5.03965e-10 0)
(0.274695 1.79312e-10 0)
(0.274695 -1.89944e-10 0)
(0.274695 1.40611e-10 0)
(0.274695 -1.13763e-10 0)
(0.274695 8.47084e-11 0)
(0.274695 -6.00075e-11 0)
(0.274695 3.67413e-11 0)
(0.274695 -1.53061e-11 0)
(0.274695 -5.34934e-12 0)
(0.274695 2.46241e-11 0)
(0.274695 -4.85313e-11 0)
(0.274695 3.2088e-11 0)
(0.274695 -3.12017e-10 0)
(0.274695 6.59302e-10 0)
(0.274695 -1.73459e-08 0)
(0.274695 -1.92953e-08 0)
(0.324658 -1.91788e-08 0)
(0.324658 -1.83069e-08 0)
(0.324658 -1.03114e-09 0)
(0.324658 -4.81367e-10 0)
(0.324658 1.49984e-10 0)
(0.324658 -1.63763e-10 0)
(0.324658 1.20114e-10 0)
(0.324658 -9.72352e-11 0)
(0.324658 7.20907e-11 0)
(0.324658 -5.07994e-11 0)
(0.324658 3.06835e-11 0)
(0.324658 -1.21397e-11 0)
(0.324658 -5.67874e-12 0)
(0.324658 2.25637e-11 0)
(0.324658 -4.33818e-11 0)
(0.324658 2.14767e-11 0)
(0.324658 -3.4245e-10 0)
(0.324658 8.1968e-10 0)
(0.324658 -2.11295e-08 0)
(0.324658 -2.31434e-08 0)
(0.374629 -1.91529e-08 0)
(0.374629 -1.87764e-08 0)
(0.374629 -1.12032e-09 0)
(0.374629 -4.21554e-10 0)
(0.374629 1.09687e-10 0)
(0.374629 -1.246e-10 0)
(0.374629 9.03079e-11 0)
(0.374629 -7.3075e-11 0)
(0.374629 5.38229e-11 0)
(0.374629 -3.75817e-11 0)
(0.374629 2.21772e-11 0)
(0.374629 -7.95424e-12 0)
(0.374629 -5.62945e-12 0)
(0.374629 1.88798e-11 0)
(0.374629 -3.49159e-11 0)
(0.374629 8.24684e-12 0)
(0.374629 -3.5649e-10 0)
(0.374629 9.58591e-10 0)
(0.374629 -2.40768e-08 0)
(0.374629 -2.60527e-08 0)
(0.42461 -1.77571e-08 0)
(0.42461 -1.78999e-08 0)
(0.42461 -1.12299e-09 0)
(0.42461 -3.30284e-10 0)
(0.42461 6.19106e-11 0)
(0.42461 -7.60487e-11 0)
(0.42461 5.38673e-11 0)
(0.42461 -4.34677e-11 0)
(0.42461 3.155e-11 0)
(0.42461 -2.15442e-11 0)
(0.42461 1.19841e-11 0)
(0.42461 -3.12018e-12 0)
(0.42461 -5.21665e-12 0)
(0.42461 1.39124e-11 0)
(0.42461 -2.39371e-11 0)
(0.42461 -6.59873e-12 0)
(0.42461 -3.53274e-10 0)
(0.42461 1.06201e-09 0)
(0.42461 -2.59307e-08 0)
(0.42461 -2.77683e-08 0)
(0.4746 -1.51745e-08 0)
(0.4746 -1.58227e-08 0)
(0.4746 -1.04159e-09 0)
(0.4746 -2.1547e-10 0)
(0.4746 1.01008e-11 0)
(0.4746 -2.19131e-11 0)
(0.4746 1.35705e-11 0)
(0.4746 -1.06915e-11 0)
(0.4746 6.9754e-12 0)
(0.4746 -3.91175e-12 0)
(0.4746 8.76461e-13 0)
(0.4746 2.00309e-12 0)
(0.4746 -4.48851e-12 0)
(0.4746 8.05607e-12 0)
(0.4746 -1.13337e-11 0)
(0.4746 -2.20301e-11 0)
(0.4746 -3.33027e-10 0)
(0.4746 1.11874e-09 0)
(0.4746 -2.65418e-08 0)
(0.4746 -2.81483e-08 0)
(0.5246 -1.17142e-08 0)
(0.5246 -1.28254e-08 0)
(0.5246 -8.90457e-10 0)
(0.5246 -8.68939e-11 0)
(0.5246 -4.2425e-11 0)
(0.5246 3.39085e-11 0)
(0.5246 -2.77791e-11 0)
(0.5246 2.29468e-11 0)
(0.5246 -1.81854e-11 0)
(0.5246 1.40878e-11 0)
(0.5246 -1.03813e-11 0)
(0.5246 7.07431e-12 0)
(0.5246 -3.52116e-12 0)
(0.5246 1.7446e-12 0)
(0.5246 1.95247e-12 0)
(0.5246 -3.70184e-11 0)
(0.5246 -2.97209e-10 0)
(0.5246 1.12155e-09 0)
(0.5246 -2.58769e-08 0)
(0.5246 -2.71727e-08 0)
(0.57461 -7.77584e-09 0)
(0.57461 -9.28773e-09 0)
(0.57461 -6.9363e-10 0)
(0.57461 4.43227e-11 0)
(0.57461 -9.2481e-11 0)
(0.57461 8.75049e-11 0)
(0.57461 -6.73963e-11 0)
(0.57461 5.51517e-11 0)
(0.57461 -4.2232e-11 0)
(0.57461 3.12424e-11 0)
(0.57461 -2.10426e-11 0)
(0.57461 1.17719e-11 0)
(0.57461 -2.41186e-12 0)
(0.57461 -4.56257e-12 0)
(0.57461 1.4952e-11 0)
(0.57461 -5.05511e-11 0)
(0.57461 -2.48554e-10 0)
(0.57461 1.0684e-09 0)
(0.57461 -2.40182e-08 0)
(0.57461 -2.49434e-08 0)
(0.62463 -3.80775e-09 0)
(0.62463 -5.64388e-09 0)
(0.62463 -4.81169e-10 0)
(0.62463 1.66398e-10 0)
(0.62463 -1.36971e-10 0)
(0.62463 1.35018e-10 0)
(0.62463 -1.0254e-10 0)
(0.62463 8.36662e-11 0)
(0.62463 -6.34962e-11 0)
(0.62463 4.63666e-11 0)
(0.62463 -3.03826e-11 0)
(0.62463 1.57923e-11 0)
(0.62463 -1.27106e-12 0)
(0.62463 -1.03929e-11 0)
(0.62463 2.66916e-11 0)
(0.62463 -6.16469e-11 0)
(0.62463 -1.91004e-10 0)
(0.62463 9.63108e-10 0)
(0.62463 -2.11532e-08 0)
(0.624629 -2.16749e-08 0)
(0.674658 -2.58114e-10 0)
(0.674658 -2.3302e-09 0)
(0.674658 -2.84341e-10 0)
(0.674658 2.67728e-10 0)
(0.674658 -1.72853e-10 0)
(0.674658 1.72725e-10 0)
(0.674658 -1.30553e-10 0)
(0.674658 1.06309e-10 0)
(0.674658 -8.03651e-11 0)
(0.674658 5.83172e-11 0)
(0.674658 -3.77054e-11 0)
(0.674658 1.88489e-11 0)
(0.674658 -2.13255e-13 0)
(0.674658 -1.52764e-11 0)
(0.674658 3.62229e-11 0)
(0.674658 -6.93816e-11 0)
(0.674658 -1.29543e-10 0)
(0.674658 8.15323e-10 0)
(0.674658 -1.75586e-08 0)
(0.674658 -1.76769e-08 0)
(0.724695 2.47622e-09 0)
(0.724695 2.69491e-10 0)
(0.724695 -1.30531e-10 0)
(0.724695 3.37773e-10 0)
(0.724695 -1.97157e-10 0)
(0.724695 1.97151e-10 0)
(0.724695 -1.48928e-10 0)
(0.724695 1.2103e-10 0)
(0.724695 -9.13212e-11 0)
(0.724695 6.60193e-11 0)
(0.724695 -4.23567e-11 0)
(0.724695 2.06733e-11 0)
(0.724695 6.53248e-13 0)
(0.724695 -1.87678e-11 0)
(0.724695 4.26559e-11 0)
(0.724695 -7.29428e-11 0)
(0.724695 -6.98988e-11 0)
(0.724695 6.39789e-10 0)
(0.724695 -1.35754e-08 0)
(0.724695 -1.33287e-08 0)
(0.77474 4.10467e-09 0)
(0.77474 1.88369e-09 0)
(0.77474 -3.78836e-11 0)
(0.77474 3.67751e-10 0)
(0.77474 -2.06857e-10 0)
(0.77474 2.05069e-10 0)
(0.77474 -1.5528e-10 0)
(0.77474 1.25897e-10 0)
(0.77474 -9.49267e-11 0)
(0.77474 6.84542e-11 0)
(0.77474 -4.37125e-11 0)
(0.77474 2.10048e-11 0)
(0.77474 1.23638e-12 0)
(0.77474 -2.04546e-11 0)
(0.77474 4.5176e-11 0)
(0.77474 -7.16257e-11 0)
(0.77474 -1.81801e-11 0)
(0.77474 4.54362e-10 0)
(0.77474 -9.57859e-09 0)
(0.77474 -9.04575e-09 0)
(0.824791 4.47342e-09 0)
(0.824791 2.39284e-09 0)
(0.824791 -1.23407e-11 0)
(0.824791 3.49867e-10 0)
(0.824791 -1.98291e-10 0)
(0.824791 1.92901e-10 0)
(0.824791 -1.46912e-10 0)
(0.824791 1.18733e-10 0)
(0.824791 -8.95501e-11 0)
(0.824791 6.4459e-11 0)
(0.824791 -4.10489e-11 0)
(0.824791 1.9524e-11 0)
(0.824791 1.46387e-12 0)
(0.824791 -1.99123e-11 0)
(0.824791 4.28985e-11 0)
(0.824791 -6.47809e-11 0)
(0.824791 1.92563e-11 0)
(0.824791 2.78247e-10 0)
(0.824791 -5.94009e-09 0)
(0.82479 -5.24368e-09 0)
(0.874847 3.7039e-09 0)
(0.874847 1.98708e-09 0)
(0.874847 -2.72492e-11 0)
(0.874847 2.8121e-10 0)
(0.874847 -1.65286e-10 0)
(0.874847 1.56809e-10 0)
(0.874847 -1.20364e-10 0)
(0.874847 9.69215e-11 0)
(0.874847 -7.31671e-11 0)
(0.874847 5.25958e-11 0)
(0.874847 -3.34493e-11 0)
(0.874847 1.58092e-11 0)
(0.874847 1.30832e-12 0)
(0.874847 -1.66083e-11 0)
(0.874847 3.50515e-11 0)
(0.874847 -5.10696e-11 0)
(0.874847 3.69278e-11 0)
(0.874847 1.28722e-10 0)
(0.874847 -2.99738e-09 0)
(0.874847 -2.3047e-09 0)
(0.924906 2.05909e-09 0)
(0.924906 9.45311e-10 0)
(0.924906 -7.23856e-11 0)
(0.924906 1.61232e-10 0)
(0.924906 -1.07702e-10 0)
(0.924906 9.60754e-11 0)
(0.924906 -7.53434e-11 0)
(0.924906 6.01398e-11 0)
(0.924906 -4.55479e-11 0)
(0.924906 3.26845e-11 0)
(0.924906 -2.07903e-11 0)
(0.924906 9.78211e-12 0)
(0.924906 7.92715e-13 0)
(0.924906 -1.05925e-11 0)
(0.924906 2.12656e-11 0)
(0.924906 -3.20381e-11 0)
(0.924906 3.018e-11 0)
(0.924906 2.74208e-11 0)
(0.924906 -1.03904e-09 0)
(0.924906 -5.45263e-10 0)
(0.974969 6.63818e-10 0)
(0.974969 3.07558e-10 0)
(0.974969 -2.04716e-11 0)
(0.974969 5.2351e-11 0)
(0.974969 -3.42624e-11 0)
(0.974969 3.08734e-11 0)
(0.974969 -2.40923e-11 0)
(0.974969 1.92644e-11 0)
(0.974969 -1.45809e-11 0)
(0.974969 1.0465e-11 0)
(0.974969 -6.65426e-12 0)
(0.974969 3.13024e-12 0)
(0.974969 2.60639e-13 0)
(0.974969 -3.3721e-12 0)
(0.974969 6.94666e-12 0)
(0.974969 -9.57208e-12 0)
(0.974969 1.21331e-11 0)
(0.974969 -3.54653e-12 0)
(0.974969 -1.48272e-10 0)
(0.974969 2.48855e-11 0)
)
;

boundaryField
{
    top
    {
        type            fixedValue;
        value           uniform (1 0 0);
    }
    bottom
    {
        type            fixedValue;
        value           uniform (0 0 0);
    }
    inlet
    {
        type            zeroGradient;
    }
    outlet
    {
        type            zeroGradient;
    }
    frontAndBack
    {
        type            empty;
    }
}


// ************************************************************************* //
