/*--------------------------------*- C++ -*----------------------------------*\
| =========                 |                                                 |
| \\      /  F ield         | OpenFOAM: The Open Source CFD Toolbox           |
|  \\    /   O peration     | Version:  4.1                                   |
|   \\  /    A nd           | Web:      www.OpenFOAM.org                      |
|    \\/     M anipulation  |                                                 |
\*---------------------------------------------------------------------------*/
FoamFile
{
    version     2.0;
    format      ascii;
    class       surfaceScalarField;
    location    "1.7";
    object      phi;
}
// * * * * * * * * * * * * * * * * * * * * * * * * * * * * * * * * * * * * * //

dimensions      [0 3 -1 0 0 0 0];

internalField   nonuniform List<scalar> 
760
(
3.16636e-05
-3.53609e-12
3.16636e-05
-1.10737e-12
3.16636e-05
-9.91175e-13
3.16636e-05
7.05927e-13
3.16636e-05
-1.05443e-12
3.16636e-05
1.1696e-12
3.16636e-05
-1.18198e-12
3.16636e-05
1.36804e-12
3.16636e-05
-1.28054e-12
3.16636e-05
1.38106e-12
3.16636e-05
-1.22192e-12
3.16636e-05
1.24249e-12
3.16636e-05
-1.079e-12
3.16636e-05
8.96328e-13
3.16636e-05
-9.14128e-13
3.16636e-05
2.42326e-13
3.16636e-05
-7.94203e-13
3.16636e-05
-4.48527e-13
3.16636e-05
-1.98661e-12
-2.84863e-12
8.8658e-05
-9.81054e-12
8.86581e-05
-5.1428e-12
8.86581e-05
-2.39076e-12
8.86581e-05
7.34075e-13
8.86581e-05
-1.89002e-12
8.86581e-05
1.46207e-12
8.86581e-05
-2.2173e-12
8.86581e-05
1.47506e-12
8.86581e-05
-2.7794e-12
8.86581e-05
9.70923e-13
8.86581e-05
-3.34972e-12
8.86581e-05
6.54036e-15
8.86581e-05
-4.05566e-12
8.86581e-05
-1.4827e-12
8.86581e-05
-4.82225e-12
8.86581e-05
-3.48192e-12
8.86581e-05
-5.36696e-12
8.86581e-05
-4.49607e-12
8.86581e-05
-8.48859e-12
-8.70409e-12
0.00013932
-1.65446e-11
0.00013932
-1.05639e-11
0.00013932
-3.87878e-12
0.00013932
3.24674e-13
0.00013932
-2.32671e-12
0.00013932
1.20552e-12
0.00013932
-2.75486e-12
0.00013932
9.31883e-13
0.00013932
-3.79183e-12
0.00013932
-1.60448e-13
0.00013932
-5.13358e-12
0.00013932
-1.99928e-12
0.00013932
-6.95368e-12
0.00013932
-4.68713e-12
0.00013932
-9.00397e-12
0.00013932
-8.15849e-12
0.00013932
-1.06441e-11
0.00013932
-9.45085e-12
0.00013932
-1.66595e-11
-1.53626e-11
0.000183649
-2.25046e-11
0.000183649
-1.57569e-11
0.000183649
-5.27187e-12
0.000183649
-1.78724e-13
0.000183649
-2.53319e-12
0.000183649
8.38503e-13
0.000183649
-2.98749e-12
0.000183649
3.34076e-13
0.000183649
-4.40939e-12
0.000183649
-1.229e-12
0.000183649
-6.44399e-12
0.000183649
-3.7832e-12
0.000183649
-9.31358e-12
0.000183649
-7.52041e-12
0.000183649
-1.26489e-11
0.000183649
-1.24921e-11
0.000183649
-1.5578e-11
0.000183649
-1.43513e-11
0.000183649
-2.50249e-11
-2.18978e-11
0.000221645
-2.67392e-11
0.000221645
-1.95095e-11
0.000221645
-6.27027e-12
0.000221645
-6.58482e-13
0.000221645
-2.53961e-12
0.000221645
4.13149e-13
0.000221645
-2.98505e-12
0.000221645
-2.75834e-13
0.000221645
-4.70915e-12
0.000221645
-2.19797e-12
0.000221645
-7.34461e-12
0.000221645
-5.31126e-12
0.000221645
-1.11582e-11
0.000221645
-9.93152e-12
0.000221645
-1.56914e-11
0.000221645
-1.63462e-11
0.000221645
-1.99354e-11
0.000221645
-1.89953e-11
0.000221645
-3.25304e-11
-2.72548e-11
0.000253308
-2.86425e-11
0.000253308
-2.1052e-11
0.000253308
-6.62499e-12
0.000253308
-1.03046e-12
0.000253308
-2.36566e-12
0.000253308
-5.05282e-14
0.000253308
-2.81131e-12
0.000253308
-9.02928e-13
0.000253308
-4.77452e-12
0.000253308
-3.0986e-12
0.000253308
-7.92872e-12
0.000253308
-6.64617e-12
0.000253308
-1.25765e-11
0.000253308
-1.19979e-11
0.000253308
-1.81849e-11
0.000253308
-1.97361e-11
0.000253308
-2.36491e-11
0.000253308
-2.33277e-11
0.000253308
-3.85301e-11
-3.07837e-11
0.000278639
-2.79643e-11
0.000278639
-2.00318e-11
0.000278639
-6.20084e-12
0.000278639
-1.22321e-12
0.000278639
-2.04657e-12
0.000278639
-5.17839e-13
0.000278639
-2.52986e-12
0.000278639
-1.5273e-12
0.000278639
-4.67858e-12
0.000278639
-3.92897e-12
0.000278639
-8.26454e-12
0.000278639
-7.80544e-12
0.000278639
-1.36156e-11
0.000278639
-1.37382e-11
0.000278639
-2.01308e-11
0.000278639
-2.26112e-11
0.000278639
-2.661e-11
0.000278639
-2.72178e-11
0.000278639
-4.25873e-11
-3.21146e-11
0.000297637
-2.4812e-11
0.000297637
-1.65361e-11
0.000297637
-5.00405e-12
0.000297637
-1.20283e-12
0.000297637
-1.62626e-12
0.000297637
-9.54228e-13
0.000297637
-2.19347e-12
0.000297637
-2.12153e-12
0.000297637
-4.47486e-12
0.000297637
-4.6734e-12
0.000297637
-8.39204e-12
0.000297637
-8.78422e-12
0.000297637
-1.42876e-11
0.000297637
-1.514e-11
0.000297637
-2.14983e-11
0.000297637
-2.48885e-11
0.000297637
-2.87041e-11
0.000297637
-3.04873e-11
0.000297637
-4.4495e-11
-3.11822e-11
0.000310302
-1.95973e-11
0.000310302
-1.10308e-11
0.000310302
-3.1891e-12
0.000310302
-9.79818e-13
0.000310302
-1.15871e-12
0.000310302
-1.33102e-12
0.000310302
-1.84668e-12
0.000310302
-2.6571e-12
0.000310302
-4.20446e-12
0.000310302
-5.31255e-12
0.000310302
-8.33776e-12
0.000310302
-9.57077e-12
0.000310302
-1.45939e-11
0.000310302
-1.61834e-11
0.000310302
-2.22572e-11
0.000310302
-2.64887e-11
0.000310302
-2.98527e-11
0.000310302
-3.29461e-11
0.000310302
-4.42563e-11
-2.8195e-11
0.000316635
-1.29774e-11
0.000316635
-4.28194e-12
0.000316635
-1.031e-12
0.000316635
-6.07319e-13
0.000316635
-7.02694e-13
0.000316635
-1.62818e-12
0.000316635
-1.52456e-12
0.000316635
-3.10791e-12
0.000316635
-3.89706e-12
0.000316635
-5.82666e-12
0.000316635
-8.11934e-12
0.000316635
-1.01499e-11
0.000316635
-1.45338e-11
0.000316635
-1.6847e-11
0.000316635
-2.23874e-11
0.000316635
-2.73463e-11
0.000316635
-3.00223e-11
0.000316635
-3.44116e-11
0.000316635
-4.20528e-11
-2.3584e-11
0.000316635
-5.76389e-12
0.000316635
2.76706e-12
0.000316635
1.12622e-12
0.000316635
-1.67879e-13
0.000316635
-3.138e-13
0.000316635
-1.83495e-12
0.000316635
-1.2518e-12
0.000316635
-3.45239e-12
0.000316635
-3.57248e-12
0.000316635
-6.19704e-12
0.000316635
-7.75002e-12
0.000316635
-1.0505e-11
0.000316635
-1.41118e-11
0.000316635
-1.71116e-11
0.000316635
-2.18867e-11
0.000316635
-2.74186e-11
0.000316635
-2.92289e-11
0.000316635
-3.47341e-11
0.000316635
-3.82064e-11
-1.7932e-11
0.000310302
1.17374e-12
0.000310302
9.13171e-12
0.000310302
2.93817e-12
0.000310302
2.46556e-13
0.000310302
-3.4944e-14
0.000310302
-1.94874e-12
0.000310302
-1.04124e-12
0.000310302
-3.67409e-12
0.000310302
-3.24139e-12
0.000310302
-6.40602e-12
0.000310302
-7.24094e-12
0.000310302
-1.06174e-11
0.000310302
-1.3341e-11
0.000310302
-1.69601e-11
0.000310302
-2.07747e-11
0.000310302
-2.66906e-11
0.000310302
-2.7535e-11
0.000310302
-3.38207e-11
0.000310302
-3.31441e-11
-1.19e-11
0.000297637
7.01078e-12
0.000297637
1.39299e-11
0.000297637
4.13034e-12
0.000297637
5.56431e-13
0.000297637
1.12116e-13
0.000297637
-1.97302e-12
0.000297637
-8.9288e-13
0.000297637
-3.76141e-12
0.000297637
-2.90576e-12
0.000297637
-6.43599e-12
0.000297637
-6.60179e-12
0.000297637
-1.04648e-11
0.000297637
-1.22442e-11
0.000297637
-1.63764e-11
0.000297637
-1.90921e-11
0.000297637
-2.51754e-11
0.000297637
-2.50405e-11
0.000297637
-3.16547e-11
0.000297637
-2.73575e-11
-6.15025e-12
0.000278639
1.10767e-11
0.000278639
1.65232e-11
0.000278639
4.55494e-12
0.000278639
7.1244e-13
0.000278639
1.32053e-13
0.000278639
-1.91454e-12
0.000278639
-7.93304e-13
0.000278639
-3.7061e-12
0.000278639
-2.5586e-12
0.000278639
-6.26743e-12
0.000278639
-5.83949e-12
0.000278639
-1.00196e-11
0.000278639
-1.08508e-11
0.000278639
-1.53409e-11
0.000278639
-1.68973e-11
0.000278639
-2.29098e-11
0.000278639
-2.18705e-11
0.000278639
-2.8306e-11
0.000278639
-2.13533e-11
-1.26744e-12
0.000253308
1.29414e-11
0.000253308
1.66234e-11
0.000253308
4.22406e-12
0.000253308
7.04364e-13
0.000253308
5.65778e-14
0.000253308
-1.78136e-12
0.000253308
-7.16692e-13
0.000253308
-3.50245e-12
0.000253308
-2.18458e-12
0.000253308
-5.879e-12
0.000253308
-4.95756e-12
0.000253308
-9.24892e-12
0.000253308
-9.19498e-12
0.000253308
-1.38319e-11
0.000253308
-1.42629e-11
0.000253308
-1.99528e-11
0.000253308
-1.81669e-11
0.000253308
-2.39405e-11
0.000253308
-1.56066e-11
2.30915e-12
0.000221645
1.25132e-11
0.000221645
1.43838e-11
0.000221645
3.30689e-12
0.000221645
5.61728e-13
0.000221645
-5.9362e-14
0.000221645
-1.57739e-12
0.000221645
-6.25243e-13
0.000221645
-3.13987e-12
0.000221645
-1.7562e-12
0.000221645
-5.23706e-12
0.000221645
-3.94549e-12
0.000221645
-8.10048e-12
0.000221645
-7.29506e-12
0.000221645
-1.18035e-11
0.000221645
-1.12477e-11
0.000221645
-1.63508e-11
0.000221645
-1.40528e-11
0.000221645
-1.87814e-11
0.000221645
-1.04674e-11
4.3661e-12
0.000183649
1.00658e-11
0.000183649
1.0409e-11
0.000183649
2.09892e-12
0.000183649
3.45062e-13
0.000183649
-1.40507e-13
0.000183649
-1.30217e-12
0.000183649
-4.63054e-13
0.000183649
-2.6024e-12
0.000183649
-1.21928e-12
0.000183649
-4.29485e-12
0.000183649
-2.75529e-12
0.000183649
-6.49862e-12
0.000183649
-5.12025e-12
0.000183649
-9.17514e-12
0.000183649
-7.85744e-12
0.000183649
-1.21128e-11
0.000183649
-9.59359e-12
0.000183649
-1.30691e-11
0.000183649
-6.09288e-12
4.9546e-12
0.00013932
6.29072e-12
0.00013932
5.74998e-12
0.00013932
9.53115e-13
0.00013932
1.28755e-13
0.00013932
-1.26417e-13
0.00013932
-9.55098e-13
0.00013932
-2.12015e-13
0.00013932
-1.88541e-12
0.00013932
-5.82047e-13
0.00013932
-3.03899e-12
0.00013932
-1.43559e-12
0.00013932
-4.44014e-12
0.00013932
-2.7781e-12
0.00013932
-5.99292e-12
0.00013932
-4.28407e-12
0.00013932
-7.41845e-12
0.00013932
-5.06276e-12
0.00013932
-7.24135e-12
0.00013932
-2.56101e-12
4.33063e-12
8.8658e-05
2.22232e-12
8.86581e-05
1.80542e-12
8.86581e-05
2.27531e-13
8.86581e-05
1.24347e-15
8.86581e-05
4.79286e-14
8.86581e-05
-5.28493e-13
8.86581e-05
1.8159e-13
8.86581e-05
-9.72487e-13
8.86581e-05
2.22411e-13
8.86581e-05
-1.43197e-12
8.86581e-05
8.92101e-14
8.86581e-05
-1.86653e-12
8.86581e-05
-1.92517e-13
8.86581e-05
-2.19483e-12
8.86581e-05
-4.80247e-13
8.86581e-05
-2.26574e-12
8.86581e-05
-4.48848e-13
8.86581e-05
-1.51503e-12
8.86581e-05
5.70356e-13
3.11988e-12
3.16636e-05
3.16636e-05
3.16636e-05
3.16636e-05
3.16636e-05
3.16636e-05
3.16636e-05
3.16636e-05
3.16636e-05
3.16636e-05
3.16636e-05
3.16636e-05
3.16636e-05
3.16636e-05
3.16636e-05
3.16636e-05
3.16636e-05
3.16636e-05
3.16636e-05
)
;

boundaryField
{
    top
    {
        type            calculated;
        value           uniform 0;
    }
    bottom
    {
        type            calculated;
        value           uniform 0;
    }
    inlet
    {
        type            calculated;
        value           nonuniform List<scalar> 
20
(
-3.16636e-05
-8.8658e-05
-0.00013932
-0.000183649
-0.000221645
-0.000253308
-0.000278639
-0.000297637
-0.000310302
-0.000316635
-0.000316635
-0.000310302
-0.000297637
-0.000278639
-0.000253308
-0.000221645
-0.000183649
-0.00013932
-8.8658e-05
-3.16636e-05
)
;
    }
    outlet
    {
        type            calculated;
        value           nonuniform List<scalar> 
20
(
3.16636e-05
8.86581e-05
0.00013932
0.000183649
0.000221645
0.000253308
0.000278639
0.000297637
0.000310302
0.000316635
0.000316635
0.000310302
0.000297637
0.000278639
0.000253308
0.000221645
0.000183649
0.00013932
8.86581e-05
3.16636e-05
)
;
    }
    frontAndBack
    {
        type            empty;
        value           nonuniform 0();
    }
}


// ************************************************************************* //
