/*--------------------------------*- C++ -*----------------------------------*\
| =========                 |                                                 |
| \\      /  F ield         | OpenFOAM: The Open Source CFD Toolbox           |
|  \\    /   O peration     | Version:  4.1                                   |
|   \\  /    A nd           | Web:      www.OpenFOAM.org                      |
|    \\/     M anipulation  |                                                 |
\*---------------------------------------------------------------------------*/
FoamFile
{
    version     2.0;
    format      ascii;
    class       volVectorField;
    location    "1.7";
    object      U;
}
// * * * * * * * * * * * * * * * * * * * * * * * * * * * * * * * * * * * * * //

dimensions      [0 1 -1 0 0 0 0];

internalField   nonuniform List<vector> 
400
(
(0.633272 -1.51875e-09 0)
(0.633272 -7.29631e-10 0)
(0.633272 -2.77544e-10 0)
(0.633272 -2.46103e-11 0)
(0.633272 -2.08768e-10 0)
(0.633272 1.5033e-11 0)
(0.633272 -3.21508e-10 0)
(0.633272 -9.13737e-11 0)
(0.633272 -5.23432e-10 0)
(0.633272 -3.00503e-10 0)
(0.633272 -7.77083e-10 0)
(0.633272 -6.34538e-10 0)
(0.633272 -1.11625e-09 0)
(0.633272 -1.06982e-09 0)
(0.633272 -1.52596e-09 0)
(0.633272 -1.52815e-09 0)
(0.633272 -1.79146e-09 0)
(0.633272 -1.63038e-09 0)
(0.633272 -1.98045e-09 0)
(0.633272 -1.86139e-09 0)
(1.77316 -6.53424e-09 0)
(1.77316 -2.44411e-09 0)
(1.77316 -1.77776e-09 0)
(1.77316 1.07197e-09 0)
(1.77316 -1.82963e-09 0)
(1.77316 1.76793e-09 0)
(1.77316 -2.08128e-09 0)
(1.77316 1.97441e-09 0)
(1.77316 -2.40446e-09 0)
(1.77316 1.80212e-09 0)
(1.77316 -2.52335e-09 0)
(1.77316 1.32409e-09 0)
(1.77316 -2.56117e-09 0)
(1.77316 4.64358e-10 0)
(1.77316 -2.5344e-09 0)
(1.77316 -8.08809e-10 0)
(1.77316 -2.41181e-09 0)
(1.77316 -1.7208e-09 0)
(1.77316 -4.23535e-09 0)
(1.77316 -4.98239e-09 0)
(2.78639 -1.30097e-08 0)
(2.78639 -7.88202e-09 0)
(2.78639 -3.01395e-09 0)
(2.78639 3.21293e-10 0)
(2.78639 -1.99002e-09 0)
(2.78639 1.00097e-09 0)
(2.78639 -2.44622e-09 0)
(2.78639 7.05913e-10 0)
(2.78639 -3.38186e-09 0)
(2.78639 -2.93755e-10 0)
(2.78639 -4.58516e-09 0)
(2.78639 -1.96377e-09 0)
(2.78639 -6.19367e-09 0)
(2.78639 -4.33991e-09 0)
(2.78639 -7.99947e-09 0)
(2.78639 -7.25135e-09 0)
(2.78639 -9.32138e-09 0)
(2.78639 -8.26344e-09 0)
(2.78639 -1.34431e-08 0)
(2.78639 -1.2558e-08 0)
(3.67297 -1.98338e-08 0)
(3.67297 -1.32659e-08 0)
(3.67297 -4.62635e-09 0)
(3.67297 1.47878e-10 0)
(3.67297 -2.50342e-09 0)
(3.67297 1.12772e-09 0)
(3.67297 -2.93734e-09 0)
(3.67297 7.7404e-10 0)
(3.67297 -4.12837e-09 0)
(3.67297 -5.18017e-10 0)
(3.67297 -5.74977e-09 0)
(3.67297 -2.65943e-09 0)
(3.67297 -7.99174e-09 0)
(3.67297 -5.7983e-09 0)
(3.67297 -1.05497e-08 0)
(3.67297 -9.92389e-09 0)
(3.67297 -1.27065e-08 0)
(3.67297 -1.14341e-08 0)
(3.67297 -2.04499e-08 0)
(3.67297 -1.83776e-08 0)
(4.4329 -2.51209e-08 0)
(4.4329 -1.80801e-08 0)
(4.4329 -5.87858e-09 0)
(4.4329 -4.26011e-10 0)
(4.4329 -2.54566e-09 0)
(4.4329 6.55835e-10 0)
(4.4329 -2.97243e-09 0)
(4.4329 8.38629e-11 0)
(4.4329 -4.51636e-09 0)
(4.4329 -1.62932e-09 0)
(4.4329 -6.80668e-09 0)
(4.4329 -4.41865e-09 0)
(4.4329 -1.00877e-08 0)
(4.4329 -8.537e-09 0)
(4.4329 -1.39593e-08 0)
(4.4329 -1.41635e-08 0)
(4.4329 -1.75104e-08 0)
(4.4329 -1.63682e-08 0)
(4.4329 -2.87517e-08 0)
(4.4329 -2.47319e-08 0)
(5.06616 -2.83017e-08 0)
(5.06616 -2.08802e-08 0)
(5.06616 -6.61314e-09 0)
(5.06616 -8.70717e-10 0)
(5.06616 -2.45601e-09 0)
(5.06616 2.08113e-10 0)
(5.06616 -2.86677e-09 0)
(5.06616 -5.29644e-10 0)
(5.06616 -4.67626e-09 0)
(5.06616 -2.54886e-09 0)
(5.06616 -7.52057e-09 0)
(5.06616 -5.81998e-09 0)
(5.06616 -1.16849e-08 0)
(5.06616 -1.07333e-08 0)
(5.06616 -1.66908e-08 0)
(5.06616 -1.77487e-08 0)
(5.06616 -2.15275e-08 0)
(5.06616 -2.08275e-08 0)
(5.06616 -3.5598e-08 0)
(5.06616 -2.92787e-08 0)
(5.57278 -2.89291e-08 0)
(5.57278 -2.11805e-08 0)
(5.57278 -6.60047e-09 0)
(5.57278 -1.16655e-09 0)
(5.57278 -2.19873e-09 0)
(5.57278 -2.6092e-10 0)
(5.57278 -2.62262e-09 0)
(5.57278 -1.15228e-09 0)
(5.57278 -4.63815e-09 0)
(5.57278 -3.40035e-09 0)
(5.57278 -7.95227e-09 0)
(5.57278 -7.04023e-09 0)
(5.57278 -1.28801e-08 0)
(5.57278 -1.25978e-08 0)
(5.57278 -1.88736e-08 0)
(5.57278 -2.08458e-08 0)
(5.57278 -2.48405e-08 0)
(5.57278 -2.49161e-08 0)
(5.57278 -4.06558e-08 0)
(5.57278 -3.17313e-08 0)
(5.95274 -2.69548e-08 0)
(5.95274 -1.88553e-08 0)
(5.95274 -5.77421e-09 0)
(5.95274 -1.25276e-09 0)
(5.95274 -1.82163e-09 0)
(5.95274 -7.14936e-10 0)
(5.95274 -2.30743e-09 0)
(5.95274 -1.76156e-09 0)
(5.95274 -4.48279e-09 0)
(5.95274 -4.1841e-09 0)
(5.95274 -8.18106e-09 0)
(5.95274 -8.10248e-09 0)
(5.95274 -1.37373e-08 0)
(5.95274 -1.41633e-08 0)
(5.95274 -2.05372e-08 0)
(5.95274 -2.34318e-08 0)
(5.95274 -2.73864e-08 0)
(5.95274 -2.853e-08 0)
(5.95274 -4.36594e-08 0)
(5.95274 -3.19151e-08 0)
(6.20605 -2.26422e-08 0)
(6.20605 -1.42006e-08 0)
(6.20605 -4.21318e-09 0)
(6.20605 -1.11969e-09 0)
(6.20605 -1.36595e-09 0)
(6.20605 -1.1222e-09 0)
(6.20605 -1.9583e-09 0)
(6.20605 -2.32599e-09 0)
(6.20605 -4.23844e-09 0)
(6.20605 -4.87084e-09 0)
(6.20605 -8.21104e-09 0)
(6.20605 -8.97525e-09 0)
(6.20605 -1.4221e-08 0)
(6.20605 -1.53743e-08 0)
(6.20605 -2.15954e-08 0)
(6.20605 -2.53695e-08 0)
(6.20605 -2.90058e-08 0)
(6.20605 -3.14236e-08 0)
(6.20605 -4.44666e-08 0)
(6.20605 -2.98771e-08 0)
(6.3327 -1.65453e-08 0)
(6.3327 -7.85672e-09 0)
(6.3327 -2.14327e-09 0)
(6.3327 -8.00922e-10 0)
(6.3327 -8.91403e-10 0)
(6.3327 -1.45855e-09 0)
(6.3327 -1.61812e-09 0)
(6.3327 -2.81921e-09 0)
(6.3327 -3.94472e-09 0)
(6.3327 -5.44435e-09 0)
(6.3327 -8.07042e-09 0)
(6.3327 -9.65187e-09 0)
(6.3327 -1.43406e-08 0)
(6.3327 -1.62209e-08 0)
(6.3327 -2.20359e-08 0)
(6.3327 -2.65999e-08 0)
(6.3327 -2.9658e-08 0)
(6.3327 -3.34211e-08 0)
(6.3327 -4.31896e-08 0)
(6.3327 -2.596e-08 0)
(6.3327 -9.42191e-09 0)
(6.3327 -7.11821e-10 0)
(6.3327 1.08964e-10 0)
(6.3327 -3.69149e-10 0)
(6.3327 -4.57848e-10 0)
(6.3327 -1.70895e-09 0)
(6.3327 -1.31781e-09 0)
(6.3327 -3.2176e-09 0)
(6.3327 -3.62726e-09 0)
(6.3327 -5.8864e-09 0)
(6.3327 -7.77567e-09 0)
(6.3327 -1.01182e-08 0)
(6.3327 -1.40993e-08 0)
(6.3327 -1.66851e-08 0)
(6.3327 -2.18499e-08 0)
(6.3327 -2.70709e-08 0)
(6.3327 -2.93383e-08 0)
(6.3327 -3.4353e-08 0)
(6.3327 -4.00906e-08 0)
(6.3327 -2.06885e-08 0)
(6.20605 -2.13686e-09 0)
(6.20605 6.23387e-09 0)
(6.20605 2.17932e-09 0)
(6.20605 8.23169e-11 0)
(6.20605 -1.17191e-10 0)
(6.20605 -1.86723e-09 0)
(6.20605 -1.07692e-09 0)
(6.20605 -3.50224e-09 0)
(6.20605 -3.30182e-09 0)
(6.20605 -6.17922e-09 0)
(6.20605 -7.33953e-09 0)
(6.20605 -1.03575e-08 0)
(6.20605 -1.35065e-08 0)
(6.20605 -1.67499e-08 0)
(6.20605 -2.10472e-08 0)
(6.20605 -2.67538e-08 0)
(6.20605 -2.80891e-08 0)
(6.20605 -3.40923e-08 0)
(6.20605 -3.55505e-08 0)
(6.20605 -1.47013e-08 0)
(5.95274 4.43626e-09 0)
(5.95274 1.20103e-08 0)
(5.95274 3.73992e-09 0)
(5.95274 4.62051e-10 0)
(5.95274 9.62542e-11 0)
(5.95274 -1.9342e-09 0)
(5.95274 -9.02107e-10 0)
(5.95274 -3.659e-09 0)
(5.95274 -2.97451e-09 0)
(5.95274 -6.30495e-09 0)
(5.95274 -6.77193e-09 0)
(5.95274 -1.03487e-08 0)
(5.95274 -1.25794e-08 0)
(5.95274 -1.63977e-08 0)
(5.95274 -1.96569e-08 0)
(5.95274 -2.56457e-08 0)
(5.95274 -2.59919e-08 0)
(5.95274 -3.25766e-08 0)
(5.95274 -3.00339e-08 0)
(5.95274 -8.67635e-09 0)
(5.57278 9.5273e-09 0)
(5.57278 1.5826e-08 0)
(5.57278 4.56704e-09 0)
(5.57278 7.0267e-10 0)
(5.57278 1.73854e-10 0)
(5.57278 -1.91322e-09 0)
(5.57278 -7.8492e-10 0)
(5.57278 -3.67384e-09 0)
(5.57278 -2.63918e-09 0)
(5.57278 -6.23778e-09 0)
(5.57278 -6.07472e-09 0)
(5.57278 -1.00557e-08 0)
(5.57278 -1.13336e-08 0)
(5.57278 -1.55952e-08 0)
(5.57278 -1.77131e-08 0)
(5.57278 -2.37526e-08 0)
(5.57278 -2.31437e-08 0)
(5.57278 -2.98113e-08 0)
(5.57278 -2.40411e-08 0)
(5.57278 -3.24752e-09 0)
(5.06616 1.25613e-08 0)
(5.06616 1.71915e-08 0)
(5.06616 4.58656e-09 0)
(5.06616 7.7029e-10 0)
(5.06616 1.31414e-10 0)
(5.06616 -1.82056e-09 0)
(5.06616 -7.11564e-10 0)
(5.06616 -3.55609e-09 0)
(5.06616 -2.29728e-09 0)
(5.06616 -5.98435e-09 0)
(5.06616 -5.27705e-09 0)
(5.06616 -9.48937e-09 0)
(5.06616 -9.84064e-09 0)
(5.06616 -1.4379e-08 0)
(5.06616 -1.53384e-08 0)
(5.06616 -2.11917e-08 0)
(5.06616 -1.97422e-08 0)
(5.06616 -2.59752e-08 0)
(5.06616 -1.81192e-08 0)
(5.06616 1.0345e-09 0)
(4.4329 1.32628e-08 0)
(4.4329 1.60205e-08 0)
(4.4329 3.89518e-09 0)
(4.4329 6.8025e-10 0)
(4.4329 1.69384e-11 0)
(4.4329 -1.65077e-09 0)
(4.4329 -6.4301e-10 0)
(4.4329 -3.27553e-09 0)
(4.4329 -1.9131e-09 0)
(4.4329 -5.47973e-09 0)
(4.4329 -4.34824e-09 0)
(4.4329 -8.55006e-09 0)
(4.4329 -8.08083e-09 0)
(4.4329 -1.26374e-08 0)
(4.4329 -1.25298e-08 0)
(4.4329 -1.79265e-08 0)
(4.4329 -1.58444e-08 0)
(4.4329 -2.11864e-08 0)
(4.4329 -1.26434e-08 0)
(4.4329 3.85789e-09 0)
(3.67297 1.16764e-08 0)
(3.67297 1.2686e-08 0)
(3.67297 2.7455e-09 0)
(3.67297 4.87799e-10 0)
(3.67297 -6.11375e-11 0)
(3.67297 -1.40839e-09 0)
(3.67297 -4.46672e-10 0)
(3.67297 -2.81457e-09 0)
(3.67297 -1.3051e-09 0)
(3.67297 -4.65273e-09 0)
(3.67297 -3.05402e-09 0)
(3.67297 -7.09103e-09 0)
(3.67297 -5.77467e-09 0)
(3.67297 -1.01511e-08 0)
(3.67297 -8.99764e-09 0)
(3.67297 -1.37722e-08 0)
(3.67297 -1.12229e-08 0)
(3.67297 -1.54856e-08 0)
(3.67297 -7.71172e-09 0)
(3.67297 5.16031e-09 0)
(2.78639 8.33566e-09 0)
(2.78639 7.99662e-09 0)
(2.78639 1.39478e-09 0)
(2.78639 1.98999e-10 0)
(2.78639 -3.09606e-10 0)
(2.78639 -1.15673e-09 0)
(2.78639 -6.56139e-10 0)
(2.78639 -2.35747e-09 0)
(2.78639 -1.42174e-09 0)
(2.78639 -3.95697e-09 0)
(2.78639 -2.87957e-09 0)
(2.78639 -6.04567e-09 0)
(2.78639 -5.04858e-09 0)
(2.78639 -8.53059e-09 0)
(2.78639 -7.46494e-09 0)
(2.78639 -1.09984e-08 0)
(2.78639 -8.82442e-09 0)
(2.78639 -1.13316e-08 0)
(2.78639 -5.23646e-09 0)
(2.78639 4.22099e-09 0)
(1.77316 4.14957e-09 0)
(1.77316 3.57147e-09 0)
(1.77316 5.03107e-10 0)
(1.77316 5.37933e-11 0)
(1.77316 7.60856e-11 0)
(1.77316 -7.84986e-10 0)
(1.77316 2.67892e-10 0)
(1.77316 -1.48252e-09 0)
(1.77316 2.98492e-10 0)
(1.77316 -2.23611e-09 0)
(1.77316 2.81396e-11 0)
(1.77316 -3.01085e-09 0)
(1.77316 -5.48419e-10 0)
(1.77316 -3.71294e-09 0)
(1.77316 -1.2675e-09 0)
(1.77316 -4.21281e-09 0)
(1.77316 -1.62764e-09 0)
(1.77316 -3.65819e-09 0)
(1.77316 -2.62639e-10 0)
(1.77316 3.90061e-09 0)
(0.633272 1.1257e-09 0)
(0.633272 7.42095e-10 0)
(0.633272 -3.41095e-13 0)
(0.633272 -8.67744e-12 0)
(0.633272 -1.80637e-10 0)
(0.633272 -2.10271e-10 0)
(0.633272 -3.00758e-10 0)
(0.633272 -4.61667e-10 0)
(0.633272 -5.17942e-10 0)
(0.633272 -8.20348e-10 0)
(0.633272 -8.67426e-10 0)
(0.633272 -1.29627e-09 0)
(0.633272 -1.33018e-09 0)
(0.633272 -1.8426e-09 0)
(0.633272 -1.76783e-09 0)
(0.633272 -2.24085e-09 0)
(0.633272 -1.88406e-09 0)
(0.633272 -1.96409e-09 0)
(0.633272 -9.08403e-10 0)
(0.633272 9.00204e-10 0)
)
;

boundaryField
{
    top
    {
        type            fixedValue;
        value           uniform (0 0 0);
    }
    bottom
    {
        type            fixedValue;
        value           uniform (0 0 0);
    }
    inlet
    {
        type            zeroGradient;
    }
    outlet
    {
        type            zeroGradient;
    }
    frontAndBack
    {
        type            empty;
    }
}


// ************************************************************************* //
