/*--------------------------------*- C++ -*----------------------------------*\
| =========                 |                                                 |
| \\      /  F ield         | OpenFOAM: The Open Source CFD Toolbox           |
|  \\    /   O peration     | Version:  4.1                                   |
|   \\  /    A nd           | Web:      www.OpenFOAM.org                      |
|    \\/     M anipulation  |                                                 |
\*---------------------------------------------------------------------------*/
FoamFile
{
    version     2.0;
    format      ascii;
    class       surfaceScalarField;
    location    "1";
    object      phi;
}
// * * * * * * * * * * * * * * * * * * * * * * * * * * * * * * * * * * * * * //

dimensions      [0 3 -1 0 0 0 0];

internalField   nonuniform List<scalar> 
760
(
3.16587e-05
-2.51425e-11
3.16587e-05
-1.08576e-11
3.16587e-05
4.25027e-12
3.16587e-05
-2.64716e-12
3.16587e-05
6.78307e-12
3.16587e-05
3.83398e-12
3.16587e-05
8.06149e-12
3.16587e-05
9.42747e-12
3.16587e-05
1.00202e-11
3.16587e-05
1.31101e-11
3.16587e-05
1.06668e-11
3.16587e-05
1.41802e-11
3.16587e-05
8.35338e-12
3.16587e-05
1.17953e-11
3.16587e-05
3.67143e-12
3.16587e-05
5.08152e-12
3.16587e-05
-2.76444e-13
3.16587e-05
-2.65032e-12
3.16587e-05
-1.21372e-11
-2.51444e-11
8.86434e-05
-7.39555e-11
8.86435e-05
-4.92072e-11
8.86435e-05
3.64128e-12
8.86435e-05
-2.96756e-12
8.86435e-05
1.61561e-11
8.86435e-05
1.31531e-11
8.86435e-05
2.18109e-11
8.86435e-05
2.52016e-11
8.86435e-05
2.74576e-11
8.86435e-05
3.24748e-11
8.86435e-05
2.86894e-11
8.86435e-05
3.25739e-11
8.86435e-05
2.20888e-11
8.86435e-05
2.38339e-11
8.86435e-05
8.59326e-12
8.86435e-05
6.72386e-12
8.86435e-05
-4.69741e-12
8.86435e-05
-6.13385e-12
8.86435e-05
-4.04698e-11
-7.16812e-11
0.000139296
-1.25328e-10
0.000139296
-9.67002e-11
0.000139296
-3.36258e-13
0.000139296
-7.9225e-13
0.000139296
2.67057e-11
0.000139296
2.5696e-11
0.000139296
3.87087e-11
0.000139296
4.41352e-11
0.000139296
4.92545e-11
0.000139296
5.44099e-11
0.000139296
5.11467e-11
0.000139296
5.19684e-11
0.000139296
3.92796e-11
0.000139296
3.43764e-11
0.000139296
1.47192e-11
0.000139296
5.32906e-12
0.000139296
-1.1399e-11
0.000139296
-9.57896e-12
0.000139296
-7.51652e-11
-1.20271e-10
0.000183616
-1.6697e-10
0.000183616
-1.39407e-10
0.000183616
-4.17257e-12
0.000183616
3.79631e-12
0.000183616
3.81161e-11
0.000183616
4.04497e-11
0.000183616
5.76409e-11
0.000183616
6.52161e-11
0.000183616
7.3836e-11
0.000183616
7.83255e-11
0.000183616
7.64505e-11
0.000183616
7.25394e-11
0.000183616
5.87551e-11
0.000183616
4.46648e-11
0.000183616
2.15283e-11
0.000183616
2.767e-12
0.000183616
-1.98936e-11
0.000183616
-1.32574e-11
0.000183616
-1.07765e-10
-1.62546e-10
0.000221604
-1.90004e-10
0.000221604
-1.6511e-10
0.000221604
-4.86411e-12
0.000221604
9.73907e-12
0.000221604
4.87834e-11
0.000221604
5.41613e-11
0.000221604
7.49389e-11
0.000221604
8.40297e-11
0.000221604
9.62935e-11
0.000221604
9.93508e-11
0.000221604
9.95382e-11
0.000221604
9.02445e-11
0.000221604
7.64587e-11
0.000221604
5.29369e-11
0.000221604
2.75226e-11
0.000221604
1.98694e-14
0.000221604
-2.80747e-11
0.000221604
-1.61253e-11
0.000221604
-1.3003e-10
-1.89166e-10
0.000253261
-1.89647e-10
0.000253261
-1.67189e-10
0.000253261
1.78077e-13
0.000253261
1.71595e-11
0.000253261
5.8694e-11
0.000253261
6.62846e-11
0.000253261
9.00023e-11
0.000253261
1.0008e-10
0.000253261
1.15702e-10
0.000253261
1.17146e-10
0.000253261
1.19322e-10
0.000253261
1.05065e-10
0.000253261
9.14948e-11
0.000253261
5.96512e-11
0.000253261
3.22306e-11
0.000253261
-2.2644e-12
0.000253261
-3.55583e-11
0.000253261
-1.9082e-11
0.000253261
-1.3892e-10
-1.96445e-10
0.000278586
-1.6497e-10
0.000278586
-1.4317e-10
0.000278586
1.21125e-11
0.000278586
2.59811e-11
0.000278586
6.76466e-11
0.000278586
7.63123e-11
0.000278586
1.02251e-10
0.000278586
1.1277e-10
0.000278586
1.31253e-10
0.000278586
1.31087e-10
0.000278586
1.34964e-10
0.000278586
1.16535e-10
0.000278586
1.03205e-10
0.000278586
6.46919e-11
0.000278586
3.53712e-11
0.000278586
-4.0185e-12
0.000278586
-4.18014e-11
0.000278586
-2.2759e-11
0.000278586
-1.3362e-10
-1.83124e-10
0.000297579
-1.18775e-10
0.000297579
-9.53008e-11
0.000297579
3.04892e-11
0.000297579
3.586e-11
0.000297579
7.54294e-11
0.000297579
8.40588e-11
0.000297579
1.11483e-10
0.000297579
1.21973e-10
0.000297579
1.42704e-10
0.000297579
1.41054e-10
0.000297579
1.46235e-10
0.000297579
1.24594e-10
0.000297579
1.1134e-10
0.000297579
6.80747e-11
0.000297579
3.6979e-11
0.000297579
-5.33464e-12
0.000297579
-4.64645e-11
0.000297579
-2.75078e-11
0.000297579
-1.15687e-10
-1.51099e-10
0.000310242
-5.67062e-11
0.000310242
-2.96612e-11
0.000310242
5.3268e-11
0.000310242
4.60165e-11
0.000310242
8.16789e-11
0.000310242
8.93934e-11
0.000310242
1.17567e-10
0.000310242
1.27663e-10
0.000310242
1.49969e-10
0.000310242
1.4703e-10
0.000310242
1.53105e-10
0.000310242
1.29244e-10
0.000310242
1.15956e-10
0.000310242
6.98019e-11
0.000310242
3.7238e-11
0.000310242
-6.3369e-12
0.000310242
-4.93464e-11
0.000310242
-3.31334e-11
0.000310242
-8.81702e-11
-1.04643e-10
0.000316573
1.35012e-11
0.000316573
4.47909e-11
0.000316573
7.71928e-11
0.000316573
5.53374e-11
0.000316573
8.5895e-11
0.000316573
9.21793e-11
0.000316573
1.20385e-10
0.000316573
1.29823e-10
0.000316573
1.53011e-10
0.000316573
1.48993e-10
0.000316573
1.55611e-10
0.000316573
1.30469e-10
0.000316573
1.17172e-10
0.000316573
6.98325e-11
0.000316573
3.63957e-11
0.000316573
-7.13737e-12
0.000316573
-5.03935e-11
0.000316573
-3.89518e-11
0.000316573
-5.50896e-11
-4.97507e-11
0.000316573
8.31187e-11
0.000316573
1.1765e-10
0.000316573
9.84204e-11
0.000316573
6.252e-11
0.000316573
8.75461e-11
0.000316573
9.23028e-11
0.000316573
1.19841e-10
0.000316573
1.28455e-10
0.000316573
1.51825e-10
0.000316573
1.4694e-10
0.000316573
1.53827e-10
0.000316573
1.28252e-10
0.000316573
1.15141e-10
0.000316573
6.81121e-11
0.000316573
3.46904e-11
0.000316573
-7.8095e-12
0.000316573
-4.9646e-11
0.000316573
-4.39865e-11
0.000316573
-2.0867e-11
6.68092e-12
0.000310242
1.43474e-10
0.000310242
1.78571e-10
0.000310242
1.1328e-10
0.000310242
6.64195e-11
0.000310242
8.61843e-11
0.000310242
8.97062e-11
0.000310242
1.15881e-10
0.000310242
1.23595e-10
0.000310242
1.46437e-10
0.000310242
1.40896e-10
0.000310242
1.47845e-10
0.000310242
1.22591e-10
0.000310242
1.10016e-10
0.000310242
6.45834e-11
0.000310242
3.23032e-11
0.000310242
-8.40643e-12
0.000310242
-4.72761e-11
0.000310242
-4.72167e-11
0.000310242
1.01554e-11
5.77081e-11
0.000297579
1.86986e-10
0.000297579
2.18779e-10
0.000297579
1.19017e-10
0.000297579
6.62771e-11
0.000297579
8.15496e-11
0.000297579
8.44177e-11
0.000297579
1.08505e-10
0.000297579
1.15324e-10
0.000297579
1.36906e-10
0.000297579
1.3093e-10
0.000297579
1.37768e-10
0.000297579
1.13506e-10
0.000297579
1.01931e-10
0.000297579
5.91981e-11
0.000297579
2.93318e-11
0.000297579
-8.9693e-12
0.000297579
-4.34957e-11
0.000297579
-4.783e-11
0.000297579
3.41936e-11
9.71918e-11
0.000278586
2.0824e-10
0.000278586
2.32523e-10
0.000278586
1.14363e-10
0.000278586
6.18848e-11
0.000278586
7.36316e-11
0.000278586
7.65345e-11
0.000278586
9.77672e-11
0.000278586
1.03742e-10
0.000278586
1.23306e-10
0.000278586
1.1714e-10
0.000278586
1.23687e-10
0.000278586
1.0105e-10
0.000278586
9.0982e-11
0.000278586
5.19363e-11
0.000278586
2.57877e-11
0.000278586
-9.50502e-12
0.000278586
-3.84993e-11
0.000278586
-4.53569e-11
0.000278586
4.85635e-11
1.20654e-10
0.000253261
2.04695e-10
0.000253261
2.18071e-10
0.000253261
9.98689e-11
0.000253261
5.3661e-11
0.000253261
6.2714e-11
0.000253261
6.62622e-11
0.000253261
8.38328e-11
0.000253261
8.90408e-11
0.000253261
1.05805e-10
0.000253261
9.97376e-11
0.000253261
1.05769e-10
0.000253261
8.5377e-11
0.000253261
7.72968e-11
0.000253261
4.28677e-11
0.000253261
2.1629e-11
0.000253261
-9.9833e-12
0.000253261
-3.24534e-11
0.000253261
-3.98375e-11
0.000253261
5.20623e-11
1.2587e-10
0.000221604
1.77619e-10
0.000221604
1.78699e-10
0.000221604
7.79219e-11
0.000221604
4.26653e-11
0.000221604
4.95221e-11
0.000221604
5.40666e-11
0.000221604
6.72604e-11
0.000221604
7.17846e-11
0.000221604
8.50257e-11
0.000221604
7.93991e-11
0.000221604
8.46171e-11
0.000221604
6.70471e-11
0.000221604
6.13004e-11
0.000221604
3.23537e-11
0.000221604
1.68396e-11
0.000221604
-1.03216e-11
0.000221604
-2.56578e-11
0.000221604
-3.1934e-11
0.000221604
4.54096e-11
1.1343e-10
0.000183616
1.31885e-10
0.000183616
1.22076e-10
0.000183616
5.21813e-11
0.000183616
2.97956e-11
0.000183616
3.46449e-11
0.000183616
3.9825e-11
0.000183616
4.81319e-11
0.000183616
5.18709e-11
0.000183616
6.09884e-11
0.000183616
5.62422e-11
0.000183616
6.02958e-11
0.000183616
4.65377e-11
0.000183616
4.31312e-11
0.000183616
2.08434e-11
0.000183616
1.15223e-11
0.000183616
-9.90357e-12
0.000183616
-1.79994e-11
0.000183616
-2.19751e-11
0.000183616
3.16084e-11
8.68157e-11
0.000139296
7.73217e-11
0.000139296
6.23432e-11
0.000139296
2.79171e-11
0.000139296
1.78698e-11
0.000139296
2.0948e-11
0.000139296
2.62432e-11
0.000139296
3.02231e-11
0.000139296
3.32826e-11
0.000139296
3.83468e-11
0.000139296
3.49502e-11
0.000139296
3.74628e-11
0.000139296
2.78828e-11
0.000139296
2.6152e-11
0.000139296
1.08635e-11
0.000139296
6.33606e-12
0.000139296
-8.82864e-12
0.000139296
-1.14358e-11
0.000139296
-1.32817e-11
0.000139296
1.4531e-11
5.18075e-11
8.86434e-05
2.61403e-11
8.86435e-05
1.48946e-11
8.86435e-05
9.51961e-12
8.86435e-05
7.07621e-12
8.86435e-05
8.69797e-12
8.86435e-05
1.23663e-11
8.86435e-05
1.29468e-11
8.86435e-05
1.50107e-11
8.86435e-05
1.6332e-11
8.86435e-05
1.48568e-11
8.86435e-05
1.55199e-11
8.86435e-05
1.0967e-11
8.86435e-05
1.02835e-11
8.86435e-05
2.90674e-12
8.86435e-05
1.7439e-12
8.86435e-05
-5.77949e-12
8.86435e-05
-5.03304e-12
8.86435e-05
-5.20413e-12
8.86435e-05
2.40714e-12
1.73275e-11
3.16587e-05
3.16587e-05
3.16587e-05
3.16587e-05
3.16587e-05
3.16587e-05
3.16587e-05
3.16587e-05
3.16587e-05
3.16587e-05
3.16587e-05
3.16587e-05
3.16587e-05
3.16587e-05
3.16587e-05
3.16587e-05
3.16587e-05
3.16587e-05
3.16587e-05
)
;

boundaryField
{
    top
    {
        type            calculated;
        value           uniform 0;
    }
    bottom
    {
        type            calculated;
        value           uniform 0;
    }
    inlet
    {
        type            calculated;
        value           nonuniform List<scalar> 
20
(
-3.16586e-05
-8.86434e-05
-0.000139296
-0.000183616
-0.000221604
-0.000253261
-0.000278586
-0.000297579
-0.000310242
-0.000316573
-0.000316573
-0.000310242
-0.000297579
-0.000278586
-0.000253261
-0.000221604
-0.000183616
-0.000139296
-8.86434e-05
-3.16587e-05
)
;
    }
    outlet
    {
        type            calculated;
        value           nonuniform List<scalar> 
20
(
3.16587e-05
8.86435e-05
0.000139296
0.000183616
0.000221604
0.000253261
0.000278586
0.000297579
0.000310242
0.000316573
0.000316573
0.000310242
0.000297579
0.000278586
0.000253261
0.000221604
0.000183616
0.000139296
8.86436e-05
3.16588e-05
)
;
    }
    frontAndBack
    {
        type            empty;
        value           nonuniform 0();
    }
}


// ************************************************************************* //
