/*--------------------------------*- C++ -*----------------------------------*\
| =========                 |                                                 |
| \\      /  F ield         | OpenFOAM: The Open Source CFD Toolbox           |
|  \\    /   O peration     | Version:  4.1                                   |
|   \\  /    A nd           | Web:      www.OpenFOAM.org                      |
|    \\/     M anipulation  |                                                 |
\*---------------------------------------------------------------------------*/
FoamFile
{
    version     2.0;
    format      ascii;
    class       volVectorField;
    location    "1";
    object      U;
}
// * * * * * * * * * * * * * * * * * * * * * * * * * * * * * * * * * * * * * //

dimensions      [0 1 -1 0 0 0 0];

internalField   nonuniform List<vector> 
400
(
(0.633173 -1.15567e-08 0)
(0.633174 -3.75136e-09 0)
(0.633174 2.6501e-09 0)
(0.633174 -1.38777e-09 0)
(0.633174 3.36918e-09 0)
(0.633174 1.74613e-09 0)
(0.633174 3.90429e-09 0)
(0.633174 4.54707e-09 0)
(0.633174 4.84187e-09 0)
(0.633174 6.44624e-09 0)
(0.633174 5.17448e-09 0)
(0.633174 7.0964e-09 0)
(0.633174 4.05873e-09 0)
(0.633174 6.07503e-09 0)
(0.633174 1.81946e-09 0)
(0.633174 2.7304e-09 0)
(0.633174 6.75618e-11 0)
(0.633174 -1.51849e-09 0)
(0.633174 -5.32758e-09 0)
(0.633175 -1.18084e-08 0)
(1.77287 -4.76235e-08 0)
(1.77287 -2.66378e-08 0)
(1.77287 4.96941e-09 0)
(1.77287 -3.19804e-09 0)
(1.77287 1.11902e-08 0)
(1.77287 7.72015e-09 0)
(1.77287 1.42004e-08 0)
(1.77287 1.64447e-08 0)
(1.77287 1.77513e-08 0)
(1.77287 2.19686e-08 0)
(1.77287 1.86813e-08 0)
(1.77287 2.28691e-08 0)
(1.77287 1.44617e-08 0)
(1.77287 1.78984e-08 0)
(1.77287 5.9318e-09 0)
(1.77287 6.38593e-09 0)
(1.77287 -1.81378e-09 0)
(1.77287 -4.48695e-09 0)
(1.77287 -2.45625e-08 0)
(1.77287 -4.65343e-08 0)
(2.78591 -9.96493e-08 0)
(2.78592 -7.17324e-08 0)
(2.78592 2.252e-09 0)
(2.78592 -2.22861e-09 0)
(2.78592 2.1309e-08 0)
(2.78592 1.8987e-08 0)
(2.78592 2.98653e-08 0)
(2.78592 3.43077e-08 0)
(2.78592 3.78058e-08 0)
(2.78592 4.31733e-08 0)
(2.78592 3.93656e-08 0)
(2.78592 4.2213e-08 0)
(2.78592 3.02575e-08 0)
(2.78592 2.93538e-08 0)
(2.78592 1.15518e-08 0)
(2.78592 6.39061e-09 0)
(2.78592 -7.62973e-09 0)
(2.78592 -8.06891e-09 0)
(2.78592 -5.73022e-08 0)
(2.78592 -9.58776e-08 0)
(3.67232 -1.49322e-07 0)
(3.67232 -1.20505e-07 0)
(3.67232 -2.58752e-09 0)
(3.67232 1.05891e-09 0)
(3.67232 3.23628e-08 0)
(3.67232 3.2909e-08 0)
(3.67232 4.80649e-08 0)
(3.67232 5.46454e-08 0)
(3.67232 6.13714e-08 0)
(3.67232 6.64203e-08 0)
(3.67232 6.36357e-08 0)
(3.67232 6.24037e-08 0)
(3.67232 4.88724e-08 0)
(3.67232 3.97558e-08 0)
(3.67232 1.8091e-08 0)
(3.67232 4.22147e-09 0)
(3.67232 -1.54739e-08 0)
(3.67232 -1.14226e-08 0)
(3.67232 -9.27032e-08 0)
(3.67232 -1.43901e-07 0)
(4.43208 -1.83593e-07 0)
(4.43208 -1.57384e-07 0)
(4.43209 -5.75086e-09 0)
(4.43208 6.28377e-09 0)
(4.43209 4.34869e-08 0)
(4.43208 4.74282e-08 0)
(4.43209 6.65088e-08 0)
(4.43208 7.49533e-08 0)
(4.43209 8.53598e-08 0)
(4.43208 8.92597e-08 0)
(4.43209 8.8324e-08 0)
(4.43208 8.18086e-08 0)
(4.43209 6.78563e-08 0)
(4.43208 4.90845e-08 0)
(4.43209 2.46443e-08 0)
(4.43208 1.41823e-09 0)
(4.43209 -2.40508e-08 0)
(4.43208 -1.45084e-08 0)
(4.43209 -1.21419e-07 0)
(4.43209 -1.80007e-07 0)
(5.06522 -1.95616e-07 0)
(5.06521 -1.72554e-07 0)
(5.06522 -4.15081e-09 0)
(5.06522 1.29628e-08 0)
(5.06522 5.38475e-08 0)
(5.06522 6.05593e-08 0)
(5.06522 8.29372e-08 0)
(5.06522 9.26567e-08 0)
(5.06522 1.06638e-07 0)
(5.06522 1.08959e-07 0)
(5.06522 1.10116e-07 0)
(5.06522 9.82942e-08 0)
(5.06522 8.45463e-08 0)
(5.06521 5.66487e-08 0)
(5.06522 3.01178e-08 0)
(5.06521 -1.15987e-09 0)
(5.06522 -3.20821e-08 0)
(5.06522 -1.7272e-08 0)
(5.06522 -1.37529e-07 0)
(5.06522 -1.97663e-07 0)
(5.57172 -1.82834e-07 0)
(5.57171 -1.61588e-07 0)
(5.57172 4.18519e-09 0)
(5.57171 2.11145e-08 0)
(5.57172 6.33112e-08 0)
(5.57171 7.17053e-08 0)
(5.57172 9.66751e-08 0)
(5.57171 1.07094e-07 0)
(5.57172 1.24231e-07 0)
(5.57171 1.24891e-07 0)
(5.57172 1.2795e-07 0)
(5.57171 1.11478e-07 0)
(5.57172 9.8024e-08 0)
(5.57171 6.25214e-08 0)
(5.57172 3.40769e-08 0)
(5.57171 -3.18548e-09 0)
(5.57172 -3.90439e-08 0)
(5.57171 -2.04709e-08 0)
(5.57172 -1.39189e-07 0)
(5.57171 -1.94512e-07 0)
(5.95159 -1.46369e-07 0)
(5.95159 -1.24582e-07 0)
(5.95159 1.96551e-08 0)
(5.95159 3.06046e-08 0)
(5.95159 7.17463e-08 0)
(5.95159 8.06316e-08 0)
(5.95159 1.07456e-07 0)
(5.95159 1.1806e-07 0)
(5.95159 1.37776e-07 0)
(5.95159 1.36864e-07 0)
(5.95159 1.41449e-07 0)
(5.95159 1.21252e-07 0)
(5.95159 1.07965e-07 0)
(5.95159 6.67355e-08 0)
(5.95159 3.6439e-08 0)
(5.95159 -4.69715e-09 0)
(5.95159 -4.45511e-08 0)
(5.95159 -2.46996e-08 0)
(5.95159 -1.27039e-07 0)
(5.95159 -1.71089e-07 0)
(6.20484 -9.06211e-08 0)
(6.20483 -6.59034e-08 0)
(6.20483 4.09552e-08 0)
(6.20483 4.08824e-08 0)
(6.20483 7.88709e-08 0)
(6.20483 8.72056e-08 0)
(6.20483 1.15143e-07 0)
(6.20483 1.25508e-07 0)
(6.20483 1.47153e-07 0)
(6.20483 1.44837e-07 0)
(6.20483 1.50528e-07 0)
(6.20483 1.27606e-07 0)
(6.20483 1.14335e-07 0)
(6.20483 6.92943e-08 0)
(6.20483 3.7338e-08 0)
(6.20483 -5.83659e-09 0)
(6.20483 -4.83329e-08 0)
(6.20483 -3.00481e-08 0)
(6.20483 -1.03525e-07 0)
(6.20483 -1.30603e-07 0)
(6.33146 -2.25044e-08 0)
(6.33146 6.6193e-09 0)
(6.33146 6.52963e-08 0)
(6.33146 5.09619e-08 0)
(6.33146 8.42377e-08 0)
(6.33146 9.12981e-08 0)
(6.33146 1.19619e-07 0)
(6.33146 1.2943e-07 0)
(6.33146 1.52314e-07 0)
(6.33146 1.48802e-07 0)
(6.33146 1.55212e-07 0)
(6.33146 1.3054e-07 0)
(6.33146 1.17232e-07 0)
(6.33146 7.0178e-08 0)
(6.33146 3.70075e-08 0)
(6.33146 -6.72973e-09 0)
(6.33146 -5.0266e-08 0)
(6.33146 -3.60397e-08 0)
(6.33146 -7.23051e-08 0)
(6.33145 -7.83655e-08 0)
(6.33146 4.95023e-08 0)
(6.33146 8.29319e-08 0)
(6.33146 8.89303e-08 0)
(6.33146 5.95641e-08 0)
(6.33146 8.73028e-08 0)
(6.33146 9.27783e-08 0)
(6.33146 1.20775e-07 0)
(6.33146 1.29818e-07 0)
(6.33146 1.53244e-07 0)
(6.33146 1.4875e-07 0)
(6.33146 1.55563e-07 0)
(6.33146 1.3004e-07 0)
(6.33146 1.16801e-07 0)
(6.33146 6.93386e-08 0)
(6.33146 3.57019e-08 0)
(6.33146 -7.46735e-09 0)
(6.33146 -5.03564e-08 0)
(6.33146 -4.17791e-08 0)
(6.33146 -3.77036e-08 0)
(6.33146 -2.10254e-08 0)
(6.20484 1.16442e-07 0)
(6.20483 1.52261e-07 0)
(6.20483 1.07884e-07 0)
(6.20483 6.53864e-08 0)
(6.20483 8.75454e-08 0)
(6.20483 9.15525e-08 0)
(6.20483 1.18534e-07 0)
(6.20483 1.26692e-07 0)
(6.20483 1.49954e-07 0)
(6.20483 1.4469e-07 0)
(6.20483 1.51668e-07 0)
(6.20483 1.26096e-07 0)
(6.20483 1.13201e-07 0)
(6.20483 6.6718e-08 0)
(6.20484 3.36372e-08 0)
(6.20483 -8.10952e-09 0)
(6.20484 -4.8727e-08 0)
(6.20483 -4.61977e-08 0)
(6.20484 -4.20014e-09 0)
(6.20483 3.42874e-08 0)
(5.95159 1.69945e-07 0)
(5.95159 2.04672e-07 0)
(5.95159 1.18751e-07 0)
(5.95159 6.74093e-08 0)
(5.95159 8.45864e-08 0)
(5.95159 8.75992e-08 0)
(5.95159 1.12864e-07 0)
(5.95159 1.20107e-07 0)
(5.95159 1.42486e-07 0)
(5.95159 1.36664e-07 0)
(5.95159 1.43622e-07 0)
(5.95159 1.18711e-07 0)
(5.95159 1.06575e-07 0)
(5.95159 6.22595e-08 0)
(5.95159 3.09543e-08 0)
(5.95159 -8.69899e-09 0)
(5.95159 -4.55861e-08 0)
(5.95159 -4.83145e-08 0)
(5.95159 2.40477e-08 0)
(5.95159 8.08315e-08 0)
(5.57172 2.03295e-07 0)
(5.57172 2.32587e-07 0)
(5.57172 1.19394e-07 0)
(5.57172 6.51187e-08 0)
(5.57172 7.82762e-08 0)
(5.57172 8.09798e-08 0)
(5.57172 1.03785e-07 0)
(5.57172 1.10149e-07 0)
(5.57172 1.30897e-07 0)
(5.57172 1.24748e-07 0)
(5.57172 1.31516e-07 0)
(5.57172 1.07912e-07 0)
(5.57172 9.70335e-08 0)
(5.57172 5.59198e-08 0)
(5.57172 2.77035e-08 0)
(5.57172 -9.26256e-09 0)
(5.57172 -4.1149e-08 0)
(5.57172 -4.74458e-08 0)
(5.57172 4.37076e-08 0)
(5.57172 1.13124e-07 0)
(5.06522 2.12347e-07 0)
(5.06522 2.32051e-07 0)
(5.06522 1.09412e-07 0)
(5.06522 5.86338e-08 0)
(5.06522 6.8746e-08 0)
(5.06522 7.18514e-08 0)
(5.06522 9.13962e-08 0)
(5.06522 9.69561e-08 0)
(5.06522 1.15294e-07 0)
(5.06522 1.09081e-07 0)
(5.06522 1.15462e-07 0)
(5.06522 9.37818e-08 0)
(5.06522 8.46717e-08 0)
(5.06522 4.77008e-08 0)
(5.06522 2.38575e-08 0)
(5.06522 -9.80549e-09 0)
(5.06522 -3.55962e-08 0)
(5.06522 -4.33683e-08 0)
(5.06522 5.27408e-08 0)
(5.06522 1.27696e-07 0)
(4.43208 1.9625e-07 0)
(4.43208 2.03596e-07 0)
(4.43209 9.02831e-08 0)
(4.43209 4.86664e-08 0)
(4.43209 5.64329e-08 0)
(4.43209 6.04508e-08 0)
(4.43209 7.59263e-08 0)
(4.43209 8.07555e-08 0)
(4.43209 9.5902e-08 0)
(4.43209 8.99347e-08 0)
(4.43209 9.56722e-08 0)
(4.43209 7.6549e-08 0)
(4.43209 6.96409e-08 0)
(4.43209 3.77366e-08 0)
(4.43209 1.9357e-08 0)
(4.43209 -1.02505e-08 0)
(4.43209 -2.90836e-08 0)
(4.43209 -3.63448e-08 0)
(4.43209 5.08153e-08 0)
(4.43209 1.23639e-07 0)
(3.67232 1.57807e-07 0)
(3.67232 1.52586e-07 0)
(3.67232 6.5186e-08 0)
(3.67232 3.63255e-08 0)
(3.67232 4.21032e-08 0)
(3.67232 4.70876e-08 0)
(3.67232 5.78384e-08 0)
(3.67232 6.19516e-08 0)
(3.67232 7.32093e-08 0)
(3.67232 6.78808e-08 0)
(3.67232 7.26349e-08 0)
(3.67232 5.68e-08 0)
(3.67232 5.23114e-08 0)
(3.67232 2.64882e-08 0)
(3.67232 1.42218e-08 0)
(3.67232 -1.03138e-08 0)
(3.67232 -2.17988e-08 0)
(3.67232 -2.70571e-08 0)
(3.67232 3.9576e-08 0)
(3.67232 1.02732e-07 0)
(2.78591 1.04417e-07 0)
(2.78592 9.03837e-08 0)
(2.78592 3.89689e-08 0)
(2.78592 2.35537e-08 0)
(2.78592 2.75809e-08 0)
(2.78592 3.31313e-08 0)
(2.78592 3.91196e-08 0)
(2.78592 4.25959e-08 0)
(2.78592 4.96017e-08 0)
(2.78592 4.54583e-08 0)
(2.78592 4.87394e-08 0)
(2.78592 3.69194e-08 0)
(2.78592 3.44387e-08 0)
(2.78592 1.54842e-08 0)
(2.78592 8.78259e-09 0)
(2.78592 -9.7525e-09 0)
(2.78592 -1.47167e-08 0)
(2.78592 -1.74538e-08 0)
(2.78592 2.26799e-08 0)
(2.78592 6.95186e-08 0)
(1.77287 4.95195e-08 0)
(1.77287 3.44552e-08 0)
(1.77287 1.71116e-08 0)
(1.77287 1.18975e-08 0)
(1.77287 1.43075e-08 0)
(1.77287 1.91579e-08 0)
(1.77287 2.10844e-08 0)
(1.77287 2.37763e-08 0)
(1.77287 2.67093e-08 0)
(1.77287 2.4313e-08 0)
(1.77287 2.57706e-08 0)
(1.77287 1.87357e-08 0)
(1.77287 1.75763e-08 0)
(1.77287 6.27462e-09 0)
(1.77287 3.75481e-09 0)
(1.77287 -7.67223e-09 0)
(1.77287 -8.04391e-09 0)
(1.77287 -8.69071e-09 0)
(1.77287 7.39233e-09 0)
(1.77287 3.33143e-08 0)
(0.633173 1.19722e-08 0)
(0.633174 5.48932e-09 0)
(0.633174 4.05946e-09 0)
(0.633174 3.40218e-09 0)
(0.633174 4.2619e-09 0)
(0.633174 6.30825e-09 0)
(0.633174 6.48633e-09 0)
(0.633174 7.60686e-09 0)
(0.633174 8.17329e-09 0)
(0.633174 7.46821e-09 0)
(0.633174 7.71535e-09 0)
(0.633174 5.44138e-09 0)
(0.633174 5.0357e-09 0)
(0.633174 1.31338e-09 0)
(0.633174 7.54784e-10 0)
(0.633174 -3.10791e-09 0)
(0.633174 -2.60191e-09 0)
(0.633174 -2.53439e-09 0)
(0.633174 4.74941e-10 0)
(0.633175 7.96568e-09 0)
)
;

boundaryField
{
    top
    {
        type            fixedValue;
        value           uniform (0 0 0);
    }
    bottom
    {
        type            fixedValue;
        value           uniform (0 0 0);
    }
    inlet
    {
        type            zeroGradient;
    }
    outlet
    {
        type            zeroGradient;
    }
    frontAndBack
    {
        type            empty;
    }
}


// ************************************************************************* //
