/*--------------------------------*- C++ -*----------------------------------*\
| =========                 |                                                 |
| \\      /  F ield         | OpenFOAM: The Open Source CFD Toolbox           |
|  \\    /   O peration     | Version:  4.1                                   |
|   \\  /    A nd           | Web:      www.OpenFOAM.org                      |
|    \\/     M anipulation  |                                                 |
\*---------------------------------------------------------------------------*/
FoamFile
{
    version     2.0;
    format      ascii;
    class       surfaceScalarField;
    location    "1.6";
    object      phi;
}
// * * * * * * * * * * * * * * * * * * * * * * * * * * * * * * * * * * * * * //

dimensions      [0 3 -1 0 0 0 0];

internalField   nonuniform List<scalar> 
760
(
3.16634e-05
-3.79912e-12
3.16634e-05
-2.58972e-12
3.16634e-05
-8.74577e-13
3.16634e-05
-9.4361e-14
3.16634e-05
-6.26072e-13
3.16634e-05
-3.00545e-15
3.16634e-05
-1.06949e-12
3.16634e-05
-3.88716e-13
3.16634e-05
-1.72025e-12
3.16634e-05
-1.13142e-12
3.16634e-05
-2.681e-12
3.16634e-05
-2.36547e-12
3.16634e-05
-4.00007e-12
3.16634e-05
-4.01894e-12
3.16634e-05
-5.64523e-12
3.16634e-05
-5.72444e-12
3.16634e-05
-6.92187e-12
3.16634e-05
-6.67577e-12
3.16634e-05
-7.90707e-12
-7.84409e-12
8.86575e-05
-1.054e-11
8.86575e-05
-9.40053e-12
8.86575e-05
-1.85453e-12
8.86575e-05
-1.26849e-12
8.86575e-05
-9.6394e-13
8.86575e-05
-7.39624e-13
8.86575e-05
-2.28425e-12
8.86575e-05
-1.54786e-12
8.86575e-05
-4.2589e-12
8.86575e-05
-3.25902e-12
8.86575e-05
-7.10139e-12
8.86575e-05
-6.20321e-12
8.86575e-05
-1.08385e-11
8.86575e-05
-1.02892e-11
8.86575e-05
-1.52286e-11
8.86575e-05
-1.45786e-11
8.86575e-05
-1.83228e-11
8.86575e-05
-1.66651e-11
8.86575e-05
-2.12205e-11
-1.9638e-11
0.000139319
-1.77808e-11
0.000139319
-1.75428e-11
0.000139319
-3.41921e-12
0.000139319
-2.53942e-12
0.000139319
-1.54107e-12
0.000139319
-1.43416e-12
0.000139319
-3.86597e-12
0.000139319
-2.69266e-12
0.000139319
-7.38281e-12
0.000139319
-5.50498e-12
0.000139319
-1.23937e-11
0.000139319
-1.04135e-11
0.000139319
-1.89016e-11
0.000139319
-1.73243e-11
0.000139319
-2.63901e-11
0.000139319
-2.4691e-11
0.000139319
-3.15912e-11
0.000139319
-2.78589e-11
0.000139319
-3.69728e-11
-3.2381e-11
0.000183647
-2.40563e-11
0.000183647
-2.49197e-11
0.000183647
-4.87792e-12
0.000183647
-4.08718e-12
0.000183647
-1.73224e-12
0.000183647
-2.57654e-12
0.000183647
-4.89271e-12
0.000183647
-4.37642e-12
0.000183647
-9.83586e-12
0.000183647
-8.31189e-12
0.000183647
-1.69664e-11
0.000183647
-1.51023e-11
0.000183647
-2.62756e-11
0.000183647
-2.46904e-11
0.000183647
-3.69419e-11
0.000183647
-3.49787e-11
0.000183647
-4.45938e-11
0.000183647
-3.88053e-11
0.000183647
-5.24273e-11
-4.40816e-11
0.000221643
-2.80872e-11
0.000221643
-2.9974e-11
0.000221643
-5.81014e-12
0.000221643
-5.63594e-12
0.000221643
-1.66016e-12
0.000221643
-3.93804e-12
0.000221643
-5.55581e-12
0.000221643
-6.31384e-12
0.000221643
-1.18035e-11
0.000221643
-1.13302e-11
0.000221643
-2.09399e-11
0.000221643
-1.98597e-11
0.000221643
-3.29459e-11
0.000221643
-3.19076e-11
0.000221643
-4.66687e-11
0.000221643
-4.48794e-11
0.000221643
-5.67895e-11
0.000221643
-4.90776e-11
0.000221643
-6.60231e-11
-5.34195e-11
0.000253306
-2.91282e-11
0.000253306
-3.17863e-11
0.000253306
-5.75771e-12
0.000253306
-7.06604e-12
0.000253306
-1.25636e-12
0.000253306
-5.45887e-12
0.000253306
-5.80052e-12
0.000253306
-8.38737e-12
0.000253306
-1.31846e-11
0.000253306
-1.43447e-11
0.000253306
-2.412e-11
0.000253306
-2.43374e-11
0.000253306
-3.85649e-11
0.000253306
-3.84574e-11
0.000253306
-5.50284e-11
0.000253306
-5.36946e-11
0.000253306
-6.73994e-11
0.000253306
-5.80921e-11
0.000253306
-7.65693e-11
-5.93927e-11
0.000278637
-2.6935e-11
0.000278637
-2.99944e-11
0.000278637
-4.52118e-12
0.000278637
-8.21687e-12
0.000278637
-5.60461e-13
0.000278637
-7.00798e-12
0.000278637
-5.67971e-12
0.000278637
-1.04278e-11
0.000278637
-1.39993e-11
0.000278637
-1.71315e-11
0.000278637
-2.64522e-11
0.000278637
-2.82483e-11
0.000278637
-4.29555e-11
0.000278637
-4.39696e-11
0.000278637
-6.17036e-11
0.000278637
-6.09688e-11
0.000278637
-7.5925e-11
0.000278637
-6.55294e-11
0.000278637
-8.35047e-11
-6.15941e-11
0.000297635
-2.17445e-11
0.000297635
-2.48247e-11
0.000297635
-2.13863e-12
0.000297635
-8.99094e-12
0.000297635
3.58184e-13
0.000297635
-8.47872e-12
0.000297635
-5.26318e-12
0.000297635
-1.23101e-11
0.000297635
-1.42979e-11
0.000297635
-1.95462e-11
0.000297635
-2.79385e-11
0.000297635
-3.14286e-11
0.000297635
-4.60463e-11
0.000297635
-4.82524e-11
0.000297635
-6.65406e-11
0.000297635
-6.64736e-11
0.000297635
-8.20936e-11
0.000297635
-7.12277e-11
0.000297635
-8.67377e-11
-6.01098e-11
0.0003103
-1.4185e-11
0.0003103
-1.69921e-11
0.0003103
1.10796e-12
0.0003103
-9.34792e-12
0.0003103
1.39049e-12
0.0003103
-9.76443e-12
0.0003103
-4.64268e-12
0.0003103
-1.39145e-11
0.0003103
-1.41556e-11
0.0003103
-2.14667e-11
0.0003103
-2.86144e-11
0.0003103
-3.37606e-11
0.0003103
-4.78168e-11
0.0003103
-5.11841e-11
0.0003103
-6.94607e-11
0.0003103
-7.00723e-11
0.0003103
-8.57494e-11
0.0003103
-7.50454e-11
0.0003103
-8.64681e-11
-5.53871e-11
0.000316633
-5.18286e-12
0.000316633
-7.5863e-12
0.000316633
4.75641e-12
0.000316633
-9.31491e-12
0.000316633
2.41174e-12
0.000316633
-1.07754e-11
0.000316633
-3.90885e-12
0.000316633
-1.51404e-11
0.000316633
-1.36485e-11
0.000316633
-2.28001e-11
0.000316633
-2.85258e-11
0.000316633
-3.51671e-11
0.000316633
-4.82745e-11
0.000316633
-5.26975e-11
0.000316633
-7.0436e-11
0.000316633
-7.16951e-11
0.000316633
-8.68347e-11
0.000316633
-7.68474e-11
0.000316633
-8.31032e-11
-4.81561e-11
0.000316633
4.16416e-12
0.000316633
2.09595e-12
0.000316633
8.25034e-12
0.000316633
-8.96763e-12
0.000316633
3.29756e-12
0.000316633
-1.14391e-11
0.000316633
-3.14244e-12
0.000316633
-1.5904e-11
0.000316633
-1.28447e-11
0.000316633
-2.34727e-11
0.000316633
-2.77184e-11
0.000316633
-3.5593e-11
0.000316633
-4.74399e-11
0.000316633
-5.27532e-11
0.000316633
-6.94684e-11
0.000316633
-7.13075e-11
0.000316633
-8.53649e-11
0.000316633
-7.64995e-11
0.000316633
-7.71744e-11
-3.93182e-11
0.0003103
1.27175e-11
0.0003103
1.07337e-11
0.0003103
1.10445e-11
0.0003103
-8.40255e-12
0.0003103
3.94169e-12
0.0003103
-1.17015e-11
0.0003103
-2.40794e-12
0.0003103
-1.61396e-11
0.0003103
-1.18e-11
0.0003103
-2.3428e-11
0.0003103
-2.62356e-11
0.0003103
-3.49991e-11
0.0003103
-4.53455e-11
0.0003103
-5.13313e-11
0.0003103
-6.65882e-11
0.0003103
-6.89036e-11
0.0003103
-8.1419e-11
0.0003103
-7.38919e-11
0.0003103
-6.92799e-11
-2.98383e-11
0.000297635
1.94317e-11
0.000297635
1.71696e-11
0.000297635
1.27073e-11
0.000297635
-7.70601e-12
0.000297635
4.27038e-12
0.000297635
-1.15266e-11
0.000297635
-1.75124e-12
0.000297635
-1.58017e-11
0.000297635
-1.05594e-11
0.000297635
-2.26276e-11
0.000297635
-2.4122e-11
0.000297635
-3.33627e-11
0.000297635
-4.20406e-11
0.000297635
-4.84328e-11
0.000297635
-6.18595e-11
0.000297635
-6.45119e-11
0.000297635
-7.51373e-11
0.000297635
-6.89736e-11
0.000297635
-6.00348e-11
-2.06352e-11
0.000278637
2.34919e-11
0.000278637
2.05914e-11
0.000278637
1.3001e-11
0.000278637
-6.93024e-12
0.000278637
4.25031e-12
0.000278637
-1.08965e-11
0.000278637
-1.20237e-12
0.000278637
-1.48674e-11
0.000278637
-9.16303e-12
0.000278637
-2.10558e-11
0.000278637
-2.14353e-11
0.000278637
-3.0686e-11
0.000278637
-3.76104e-11
0.000278637
-4.40941e-11
0.000278637
-5.54042e-11
0.000278637
-5.8218e-11
0.000278637
-6.67361e-11
0.000278637
-6.18004e-11
0.000278637
-5.00275e-11
-1.2482e-11
0.000253306
2.44232e-11
0.000253306
2.06733e-11
0.000253306
1.19257e-11
0.000253306
-6.08134e-12
0.000253306
3.89305e-12
0.000253306
-9.81308e-12
0.000253306
-7.72072e-13
0.000253306
-1.33415e-11
0.000253306
-7.64162e-12
0.000253306
-1.87265e-11
0.000253306
-1.82405e-11
0.000253306
-2.70048e-11
0.000253306
-3.21706e-11
0.000253306
-3.83959e-11
0.000253306
-4.73966e-11
0.000253306
-5.01762e-11
0.000253306
-5.64965e-11
0.000253306
-5.2567e-11
0.000253306
-3.9777e-11
-5.92903e-12
0.000221643
2.22128e-11
0.000221643
1.76802e-11
0.000221643
9.71606e-12
0.000221643
-5.12506e-12
0.000221643
3.23848e-12
0.000221643
-8.2968e-12
0.000221643
-4.78327e-13
0.000221643
-1.12574e-11
0.000221643
-6.06093e-12
0.000221643
-1.56966e-11
0.000221643
-1.46735e-11
0.000221643
-2.24224e-11
0.000221643
-2.59502e-11
0.000221643
-3.15276e-11
0.000221643
-3.81758e-11
0.000221643
-4.07023e-11
0.000221643
-4.48868e-11
0.000221643
-4.17202e-11
0.000221643
-2.97631e-11
-1.28589e-12
0.000183647
1.73253e-11
0.000183647
1.25086e-11
0.000183647
6.7873e-12
0.000183647
-4.00702e-12
0.000183647
2.35891e-12
0.000183647
-6.4195e-12
0.000183647
-3.1543e-13
0.000183647
-8.73303e-12
0.000183647
-4.47321e-12
0.000183647
-1.21423e-11
0.000183647
-1.08868e-11
0.000183647
-1.7205e-11
0.000183647
-1.92486e-11
0.000183647
-2.3891e-11
0.000183647
-2.82216e-11
0.000183647
-3.0381e-11
0.000183647
-3.25692e-11
0.000183647
-3.00363e-11
0.000183647
-2.04432e-11
1.35469e-12
0.000139319
1.08513e-11
0.000139319
6.57439e-12
0.000139319
3.70532e-12
0.000139319
-2.62554e-12
0.000139319
1.3142e-12
0.000139319
-4.12958e-12
0.000139319
-3.30586e-13
0.000139319
-5.66831e-12
0.000139319
-2.99056e-12
0.000139319
-7.91841e-12
0.000139319
-7.06301e-12
0.000139319
-1.12039e-11
0.000139319
-1.23244e-11
0.000139319
-1.54059e-11
0.000139319
-1.78879e-11
0.000139319
-1.93006e-11
0.000139319
-2.00392e-11
0.000139319
-1.80998e-11
0.000139319
-1.19996e-11
2.24004e-12
8.86575e-05
4.18086e-12
8.86575e-05
1.85832e-12
8.86575e-05
1.02954e-12
8.86575e-05
-9.792e-13
8.86575e-05
2.50198e-13
8.86575e-05
-1.63824e-12
8.86575e-05
-4.07568e-13
8.86575e-05
-2.38647e-12
8.86575e-05
-1.53807e-12
8.86575e-05
-3.46394e-12
8.86575e-05
-3.242e-12
8.86575e-05
-4.99043e-12
8.86575e-05
-5.41008e-12
8.86575e-05
-6.80773e-12
8.86575e-05
-7.6571e-12
8.86575e-05
-8.34924e-12
8.86575e-05
-8.02394e-12
8.86575e-05
-6.95858e-12
8.86575e-05
-4.41311e-12
1.88262e-12
3.16634e-05
3.16634e-05
3.16634e-05
3.16634e-05
3.16634e-05
3.16634e-05
3.16634e-05
3.16634e-05
3.16634e-05
3.16634e-05
3.16634e-05
3.16634e-05
3.16634e-05
3.16634e-05
3.16634e-05
3.16634e-05
3.16634e-05
3.16634e-05
3.16634e-05
)
;

boundaryField
{
    top
    {
        type            calculated;
        value           uniform 0;
    }
    bottom
    {
        type            calculated;
        value           uniform 0;
    }
    inlet
    {
        type            calculated;
        value           nonuniform List<scalar> 
20
(
-3.16634e-05
-8.86575e-05
-0.000139319
-0.000183647
-0.000221643
-0.000253306
-0.000278637
-0.000297635
-0.0003103
-0.000316633
-0.000316633
-0.0003103
-0.000297635
-0.000278637
-0.000253306
-0.000221643
-0.000183647
-0.000139319
-8.86575e-05
-3.16634e-05
)
;
    }
    outlet
    {
        type            calculated;
        value           nonuniform List<scalar> 
20
(
3.16634e-05
8.86575e-05
0.000139319
0.000183647
0.000221643
0.000253306
0.000278637
0.000297635
0.0003103
0.000316633
0.000316633
0.0003103
0.000297635
0.000278637
0.000253306
0.000221643
0.000183647
0.000139319
8.86575e-05
3.16634e-05
)
;
    }
    frontAndBack
    {
        type            empty;
        value           nonuniform 0();
    }
}


// ************************************************************************* //
