/*--------------------------------*- C++ -*----------------------------------*\
| =========                 |                                                 |
| \\      /  F ield         | OpenFOAM: The Open Source CFD Toolbox           |
|  \\    /   O peration     | Version:  4.1                                   |
|   \\  /    A nd           | Web:      www.OpenFOAM.org                      |
|    \\/     M anipulation  |                                                 |
\*---------------------------------------------------------------------------*/
FoamFile
{
    version     2.0;
    format      ascii;
    class       volVectorField;
    location    "1.6";
    object      U;
}
// * * * * * * * * * * * * * * * * * * * * * * * * * * * * * * * * * * * * * //

dimensions      [0 1 -1 0 0 0 0];

internalField   nonuniform List<vector> 
400
(
(0.633268 -1.62019e-09 0)
(0.633269 -8.64777e-10 0)
(0.633269 -1.08759e-09 0)
(0.633269 9.11665e-10 0)
(0.633269 -1.44158e-09 0)
(0.633269 1.19702e-09 0)
(0.633269 -1.91826e-09 0)
(0.633269 1.12328e-09 0)
(0.633269 -2.38494e-09 0)
(0.633269 7.12025e-10 0)
(0.633269 -2.86471e-09 0)
(0.633269 -1.67408e-10 0)
(0.633269 -3.42585e-09 0)
(0.633269 -1.42633e-09 0)
(0.633269 -4.12397e-09 0)
(0.633269 -2.81621e-09 0)
(0.633269 -4.2491e-09 0)
(0.633269 -3.75217e-09 0)
(0.633269 -4.00554e-09 0)
(0.633269 -3.636e-09 0)
(1.77315 -7.01576e-09 0)
(1.77315 -5.87802e-09 0)
(1.77315 -3.92983e-10 0)
(1.77315 -1.71637e-09 0)
(1.77315 3.57618e-10 0)
(1.77315 -1.69512e-09 0)
(1.77315 -3.87427e-10 0)
(1.77315 -2.45424e-09 0)
(1.77315 -1.6933e-09 0)
(1.77315 -3.7493e-09 0)
(1.77315 -3.7746e-09 0)
(1.77315 -5.77307e-09 0)
(1.77315 -6.69223e-09 0)
(1.77315 -8.50314e-09 0)
(1.77315 -1.02903e-08 0)
(1.77315 -1.12595e-08 0)
(1.77315 -1.29717e-08 0)
(1.77315 -1.2233e-08 0)
(1.77315 -1.44088e-08 0)
(1.77315 -1.33647e-08 0)
(2.78638 -1.41055e-08 0)
(2.78638 -1.29849e-08 0)
(2.78638 -3.32631e-09 0)
(2.78638 -9.76089e-10 0)
(2.78638 -2.36529e-09 0)
(2.78638 -3.47811e-11 0)
(2.78638 -4.42712e-09 0)
(2.78638 -1.07183e-09 0)
(2.78638 -7.34115e-09 0)
(2.78638 -3.5218e-09 0)
(2.78638 -1.13446e-08 0)
(2.78638 -7.9285e-09 0)
(2.78638 -1.64806e-08 0)
(2.78638 -1.39562e-08 0)
(2.78638 -2.24353e-08 0)
(2.78638 -2.03702e-08 0)
(2.78638 -2.62873e-08 0)
(2.78638 -2.33919e-08 0)
(2.78638 -2.9916e-08 0)
(2.78638 -2.65331e-08 0)
(3.67295 -2.12899e-08 0)
(3.67295 -2.1686e-08 0)
(3.67295 -3.91964e-09 0)
(3.67295 -3.6013e-09 0)
(3.67295 -1.32523e-09 0)
(3.67295 -2.301e-09 0)
(3.67295 -4.02804e-09 0)
(3.67295 -3.81488e-09 0)
(3.67295 -8.23372e-09 0)
(3.67295 -7.13525e-09 0)
(3.67295 -1.42891e-08 0)
(3.67295 -1.29193e-08 0)
(3.67295 -2.21992e-08 0)
(3.67295 -2.09538e-08 0)
(3.67295 -3.12513e-08 0)
(3.67295 -2.95625e-08 0)
(3.67295 -3.76728e-08 0)
(3.67295 -3.29212e-08 0)
(3.67295 -4.43894e-08 0)
(3.67295 -3.81616e-08 0)
(4.43286 -2.67078e-08 0)
(4.43286 -2.81499e-08 0)
(4.43286 -5.48227e-09 0)
(4.43286 -4.90573e-09 0)
(4.43286 -1.68824e-09 0)
(4.43286 -3.23423e-09 0)
(4.43286 -5.1936e-09 0)
(4.43286 -5.29012e-09 0)
(4.43286 -1.07638e-08 0)
(4.43286 -9.7268e-09 0)
(4.43286 -1.88562e-08 0)
(4.43286 -1.73336e-08 0)
(4.43286 -2.9463e-08 0)
(4.43286 -2.80849e-08 0)
(4.43286 -4.15958e-08 0)
(4.43286 -3.96571e-08 0)
(4.43286 -5.04551e-08 0)
(4.43286 -4.3677e-08 0)
(4.43286 -5.9221e-08 0)
(4.43286 -4.91715e-08 0)
(5.06613 -2.9339e-08 0)
(5.06613 -3.17764e-08 0)
(5.06613 -5.99091e-09 0)
(5.06613 -6.44994e-09 0)
(5.06613 -1.42391e-09 0)
(5.06613 -4.70708e-09 0)
(5.06613 -5.6078e-09 0)
(5.06613 -7.32191e-09 0)
(5.06613 -1.23945e-08 0)
(5.06613 -1.27607e-08 0)
(5.06613 -2.23908e-08 0)
(5.06613 -2.19419e-08 0)
(5.06613 -3.55636e-08 0)
(5.06613 -3.49514e-08 0)
(5.06613 -5.05999e-08 0)
(5.06613 -4.899e-08 0)
(5.06613 -6.18407e-08 0)
(5.06613 -5.32591e-08 0)
(5.06613 -7.14298e-08 0)
(5.06613 -5.69185e-08 0)
(5.57274 -2.87409e-08 0)
(5.57274 -3.18003e-08 0)
(5.57274 -5.39536e-09 0)
(5.57274 -7.73626e-09 0)
(5.57274 -8.90208e-10 0)
(5.57274 -6.2179e-09 0)
(5.57274 -5.6811e-09 0)
(5.57274 -9.34454e-09 0)
(5.57274 -1.34976e-08 0)
(5.57274 -1.56146e-08 0)
(5.57274 -2.51393e-08 0)
(5.57274 -2.60825e-08 0)
(5.57274 -4.05377e-08 0)
(5.57274 -4.09084e-08 0)
(5.57274 -5.80654e-08 0)
(5.57274 -5.69486e-08 0)
(5.57274 -7.13481e-08 0)
(5.57274 -6.13905e-08 0)
(5.57274 -8.01856e-08 0)
(5.57274 -6.0965e-08 0)
(5.9527 -2.49265e-08 0)
(5.95269 -2.82055e-08 0)
(5.95269 -3.54846e-09 0)
(5.95269 -8.71262e-09 0)
(5.95269 -6.31262e-11 0)
(5.95269 -7.74873e-09 0)
(5.95269 -5.3948e-09 0)
(5.95269 -1.13282e-08 0)
(5.95269 -1.40406e-08 0)
(5.95269 -1.8235e-08 0)
(5.95269 -2.70425e-08 0)
(5.95269 -2.96494e-08 0)
(5.95269 -4.42852e-08 0)
(5.95269 -4.5829e-08 0)
(5.95269 -6.384e-08 0)
(5.95269 -6.33672e-08 0)
(5.95269 -7.87298e-08 0)
(5.95269 -6.79917e-08 0)
(5.95269 -8.52626e-08 0)
(5.95269 -6.12675e-08 0)
(6.206 -1.8354e-08 0)
(6.206 -2.14713e-08 0)
(6.206 -6.50553e-10 0)
(6.206 -9.25987e-09 0)
(6.206 9.25357e-10 0)
(6.206 -9.12796e-09 0)
(6.206 -4.87069e-09 0)
(6.206 -1.30712e-08 0)
(6.206 -1.41145e-08 0)
(6.206 -2.03972e-08 0)
(6.206 -2.812e-08 0)
(6.206 -3.23963e-08 0)
(6.206 -4.67133e-08 0)
(6.206 -4.9424e-08 0)
(6.206 -6.77141e-08 0)
(6.206 -6.79095e-08 0)
(6.206 -8.36367e-08 0)
(6.206 -7.27664e-08 0)
(6.206 -8.66741e-08 0)
(6.206 -5.80204e-08 0)
(6.33265 -9.82478e-09 0)
(6.33265 -1.25429e-08 0)
(6.33265 2.91959e-09 0)
(6.33265 -9.38963e-09 0)
(6.33265 1.96868e-09 0)
(6.33265 -1.02761e-08 0)
(6.33265 -4.1884e-09 0)
(6.33265 -1.44854e-08 0)
(6.33265 -1.37865e-08 0)
(6.33265 -2.20207e-08 0)
(6.33265 -2.84118e-08 0)
(6.33265 -3.42581e-08 0)
(6.33265 -4.78257e-08 0)
(6.33265 -5.1637e-08 0)
(6.33265 -6.96588e-08 0)
(6.33265 -7.05147e-08 0)
(6.33265 -8.59985e-08 0)
(6.33265 -7.56107e-08 0)
(6.33265 -8.47649e-08 0)
(6.33265 -5.1857e-08 0)
(6.33265 -3.82501e-10 0)
(6.33265 -2.65995e-09 0)
(6.33265 6.62697e-09 0)
(6.33265 -9.16035e-09 0)
(6.33265 2.93763e-09 0)
(6.33265 -1.11121e-08 0)
(6.33265 -3.43574e-09 0)
(6.33265 -1.54794e-08 0)
(6.33265 -1.31309e-08 0)
(6.33265 -2.30216e-08 0)
(6.33265 -2.79654e-08 0)
(6.33265 -3.51705e-08 0)
(6.33265 -4.76397e-08 0)
(6.33265 -5.2418e-08 0)
(6.33265 -6.96647e-08 0)
(6.33265 -7.11334e-08 0)
(6.33265 -8.57993e-08 0)
(6.33265 -7.63844e-08 0)
(6.33265 -8.00105e-08 0)
(6.33265 -4.36158e-08 0)
(6.206 8.82412e-09 0)
(6.206 6.81975e-09 0)
(6.206 9.89304e-09 0)
(6.206 -8.66774e-09 0)
(6.206 3.71361e-09 0)
(6.206 -1.15718e-08 0)
(6.206 -2.6858e-09 0)
(6.206 -1.59795e-08 0)
(6.206 -1.22096e-08 0)
(6.206 -2.33359e-08 0)
(6.206 -2.68253e-08 0)
(6.206 -3.50878e-08 0)
(6.206 -4.61819e-08 0)
(6.206 -5.17383e-08 0)
(6.206 -6.77484e-08 0)
(6.206 -6.97457e-08 0)
(6.206 -8.30893e-08 0)
(6.206 -7.49566e-08 0)
(6.206 -7.29913e-08 0)
(6.206 -3.42536e-08 0)
(5.9527 1.66717e-08 0)
(5.95269 1.46087e-08 0)
(5.95269 1.22048e-08 0)
(5.95269 -8.01189e-09 0)
(5.95269 4.20408e-09 0)
(5.95269 -1.16078e-08 0)
(5.95269 -1.99454e-09 0)
(5.95269 -1.59292e-08 0)
(5.95269 -1.10727e-08 0)
(5.95269 -2.29159e-08 0)
(5.95269 -2.5036e-08 0)
(5.95269 -3.39786e-08 0)
(5.95269 -4.34942e-08 0)
(5.95269 -4.95883e-08 0)
(5.95269 -6.39585e-08 0)
(5.95269 -6.63616e-08 0)
(5.95269 -7.79821e-08 0)
(5.95269 -7.12378e-08 0)
(5.95269 -6.43267e-08 0)
(5.95269 -2.47364e-08 0)
(5.57274 2.21996e-08 0)
(5.57274 1.96876e-08 0)
(5.57274 1.32098e-08 0)
(5.57274 -7.26595e-09 0)
(5.57274 4.36023e-09 0)
(5.57274 -1.12005e-08 0)
(5.57274 -1.38687e-09 0)
(5.57274 -1.52952e-08 0)
(5.57274 -9.74776e-09 0)
(5.57274 -2.17311e-08 0)
(5.57274 -2.26194e-08 0)
(5.57274 -3.18205e-08 0)
(5.57274 -3.96011e-08 0)
(5.57274 -4.59618e-08 0)
(5.57274 -5.83333e-08 0)
(5.57274 -6.10005e-08 0)
(5.57274 -7.05985e-08 0)
(5.57274 -6.51819e-08 0)
(5.57274 -5.45955e-08 0)
(5.57274 -1.59192e-08 0)
(5.06613 2.47491e-08 0)
(5.06613 2.14358e-08 0)
(5.06613 1.27864e-08 0)
(5.06613 -6.46543e-09 0)
(5.06613 4.15173e-09 0)
(5.06613 -1.03457e-08 0)
(5.06613 -9.23901e-10 0)
(5.06613 -1.40664e-08 0)
(5.06613 -8.34667e-09 0)
(5.06613 -1.97956e-08 0)
(5.06613 -1.97432e-08 0)
(5.06613 -2.86741e-08 0)
(5.06613 -3.47301e-08 0)
(5.06613 -4.10003e-08 0)
(5.06613 -5.11954e-08 0)
(5.06613 -5.39072e-08 0)
(5.06613 -6.13845e-08 0)
(5.06613 -5.70471e-08 0)
(5.06613 -4.4484e-08 0)
(5.06613 -8.54336e-09 0)
(4.43286 2.40345e-08 0)
(4.43286 1.98355e-08 0)
(4.43286 1.10499e-08 0)
(4.43286 -5.58778e-09 0)
(4.43286 3.63644e-09 0)
(4.43286 -9.06221e-09 0)
(4.43286 -5.61775e-10 0)
(4.43286 -1.22818e-08 0)
(4.43286 -6.7848e-09 0)
(4.43286 -1.71469e-08 0)
(4.43286 -1.63485e-08 0)
(4.43286 -2.4581e-08 0)
(4.43286 -2.88971e-08 0)
(4.43286 -3.47545e-08 0)
(4.43286 -4.25766e-08 0)
(4.43286 -4.51757e-08 0)
(4.43286 -5.04501e-08 0)
(4.43286 -4.69802e-08 0)
(4.43286 -3.43439e-08 0)
(4.43286 -2.97008e-09 0)
(3.67295 2.03481e-08 0)
(3.67295 1.52983e-08 0)
(3.67295 8.39518e-09 0)
(3.67295 -4.54746e-09 0)
(3.67295 2.79417e-09 0)
(3.67295 -7.20544e-09 0)
(3.67295 -4.96943e-10 0)
(3.67295 -9.702e-09 0)
(3.67295 -5.37321e-09 0)
(3.67295 -1.34778e-08 0)
(3.67295 -1.28602e-08 0)
(3.67295 -1.92207e-08 0)
(3.67295 -2.26647e-08 0)
(3.67295 -2.69869e-08 0)
(3.67295 -3.30427e-08 0)
(3.67295 -3.4737e-08 0)
(3.67295 -3.84312e-08 0)
(3.67295 -3.53633e-08 0)
(3.67295 -2.4669e-08 0)
(3.67295 5.91056e-10 0)
(2.78638 1.3843e-08 0)
(2.78638 9.80738e-09 0)
(2.78638 4.99137e-09 0)
(2.78638 -3.45755e-09 0)
(2.78638 1.99506e-09 0)
(2.78638 -5.82001e-09 0)
(2.78638 2.8503e-11 0)
(2.78638 -8.13086e-09 0)
(2.78638 -3.26826e-09 0)
(2.78638 -1.13459e-08 0)
(2.78638 -8.58635e-09 0)
(2.78638 -1.58844e-08 0)
(2.78638 -1.5771e-08 0)
(2.78638 -2.15867e-08 0)
(2.78638 -2.33097e-08 0)
(2.78638 -2.69018e-08 0)
(2.78638 -2.69235e-08 0)
(2.78638 -2.5417e-08 0)
(2.78638 -1.67822e-08 0)
(2.78638 1.45893e-09 0)
(1.77315 7.63339e-09 0)
(1.77315 3.35133e-09 0)
(1.77315 2.36673e-09 0)
(1.77315 -1.73378e-09 0)
(1.77315 4.28399e-10 0)
(1.77315 -2.41311e-09 0)
(1.77315 -1.03051e-09 0)
(1.77315 -3.25025e-09 0)
(1.77315 -3.20779e-09 0)
(1.77315 -4.66722e-09 0)
(1.77315 -6.29869e-09 0)
(1.77315 -7.01325e-09 0)
(1.77315 -1.00911e-08 0)
(1.77315 -1.01315e-08 0)
(1.77315 -1.39227e-08 0)
(1.77315 -1.31069e-08 0)
(1.77315 -1.50069e-08 0)
(1.77315 -1.26296e-08 0)
(1.77315 -8.85604e-09 0)
(1.77315 1.69404e-09 0)
(0.633268 1.686e-09 0)
(0.633269 1.10169e-09 0)
(0.633269 3.43237e-10 0)
(0.633269 -6.08266e-10 0)
(0.633269 4.22438e-10 0)
(0.633269 -1.33059e-09 0)
(0.633269 4.5063e-10 0)
(0.633269 -1.99777e-09 0)
(0.633269 1.39439e-10 0)
(0.633269 -2.7534e-09 0)
(0.633269 -5.67937e-10 0)
(0.633269 -3.62516e-09 0)
(0.633269 -1.68051e-09 0)
(0.633269 -4.52234e-09 0)
(0.633269 -2.99467e-09 0)
(0.633269 -5.26391e-09 0)
(0.633269 -3.64767e-09 0)
(0.633269 -4.22575e-09 0)
(0.633269 -2.4325e-09 0)
(0.633269 4.75879e-10 0)
)
;

boundaryField
{
    top
    {
        type            fixedValue;
        value           uniform (0 0 0);
    }
    bottom
    {
        type            fixedValue;
        value           uniform (0 0 0);
    }
    inlet
    {
        type            zeroGradient;
    }
    outlet
    {
        type            zeroGradient;
    }
    frontAndBack
    {
        type            empty;
    }
}


// ************************************************************************* //
