/*--------------------------------*- C++ -*----------------------------------*\
| =========                 |                                                 |
| \\      /  F ield         | OpenFOAM: The Open Source CFD Toolbox           |
|  \\    /   O peration     | Version:  4.1                                   |
|   \\  /    A nd           | Web:      www.OpenFOAM.org                      |
|    \\/     M anipulation  |                                                 |
\*---------------------------------------------------------------------------*/
FoamFile
{
    version     2.0;
    format      ascii;
    class       surfaceScalarField;
    location    "0.1";
    object      phi;
}
// * * * * * * * * * * * * * * * * * * * * * * * * * * * * * * * * * * * * * //

dimensions      [0 3 -1 0 0 0 0];

internalField   nonuniform List<scalar> 
760
(
2.18476e-05
-6.59547e-08
2.18155e-05
3.21246e-08
2.18382e-05
-2.27053e-08
2.18309e-05
7.30632e-09
2.18285e-05
2.42113e-09
2.18389e-05
-1.03875e-08
2.18239e-05
1.49556e-08
2.1841e-05
-1.7076e-08
2.18239e-05
1.70612e-08
2.18396e-05
-1.56679e-08
2.18262e-05
1.34565e-08
2.18371e-05
-1.09423e-08
2.18286e-05
8.45182e-09
2.18349e-05
-6.23303e-09
2.18305e-05
4.42141e-09
2.18335e-05
-3.02499e-09
2.18315e-05
1.96213e-09
2.18328e-05
-1.28739e-09
2.18318e-05
9.58807e-10
-7.52775e-10
5.94154e-05
-1.63792e-07
5.93831e-05
6.44359e-08
5.94103e-05
-4.98456e-08
5.94053e-05
1.22107e-08
5.93995e-05
8.26092e-09
5.94151e-05
-2.59919e-08
5.93948e-05
3.52572e-08
5.9417e-05
-3.92518e-08
5.93956e-05
3.84846e-08
5.94148e-05
-3.48403e-08
5.93987e-05
2.9509e-08
5.94114e-05
-2.36951e-08
5.94018e-05
1.80991e-08
5.94088e-05
-1.32112e-08
5.94039e-05
9.25827e-09
5.94072e-05
-6.24634e-09
5.94052e-05
3.95455e-09
5.94065e-05
-2.56693e-09
5.94054e-05
1.97323e-09
-1.5593e-09
9.13622e-05
-2.4991e-07
9.13491e-05
7.75196e-08
9.1367e-05
-6.7726e-08
9.13684e-05
1.0798e-08
9.13613e-05
1.53957e-08
9.1375e-05
-3.97538e-08
9.13592e-05
5.114e-08
9.13755e-05
-5.56191e-08
9.13605e-05
5.35142e-08
9.13734e-05
-4.77554e-08
9.1363e-05
3.98985e-08
9.1371e-05
-3.16461e-08
9.13652e-05
2.3894e-08
9.13692e-05
-1.72539e-08
9.13665e-05
1.1951e-08
9.13682e-05
-7.95196e-09
9.13673e-05
4.883e-09
9.13679e-05
-3.13129e-09
9.13673e-05
2.54746e-09
-2.01669e-09
0.000118164
-3.1254e-07
0.000118166
7.61949e-08
0.000118175
-7.69969e-08
0.00011818
5.91985e-09
0.000118173
2.17779e-08
0.000118183
-4.96705e-08
0.000118173
6.12282e-08
0.000118183
-6.53133e-08
0.000118175
6.18052e-08
0.000118181
-5.44547e-08
0.000118176
4.4946e-08
0.00011818
-3.52635e-08
0.000118177
2.63435e-08
0.000118179
-1.88334e-08
0.000118178
1.29099e-08
0.000118178
-8.4778e-09
0.000118178
5.02135e-09
0.000118178
-3.18179e-09
0.000118178
2.81056e-09
-2.21223e-09
0.000140253
-3.42893e-07
0.000140264
6.56976e-08
0.000140265
-7.827e-08
0.000140271
1.6395e-10
0.000140267
2.58646e-08
0.000140272
-5.43438e-08
0.000140268
6.47592e-08
0.000140271
-6.80045e-08
0.000140269
6.34502e-08
0.00014027
-5.53006e-08
0.00014027
4.51694e-08
0.00014027
-3.5109e-08
0.00014027
2.5986e-08
0.000140269
-1.84157e-08
0.00014027
1.25085e-08
0.00014027
-8.11128e-09
0.00014027
4.59849e-09
0.00014027
-2.88354e-09
0.00014027
2.84943e-09
-2.20649e-09
0.000158021
-3.36213e-07
0.000158035
5.08811e-08
0.000158029
-7.22682e-08
0.000158034
-4.44367e-09
0.000158033
2.67282e-08
0.000158032
-5.3095e-08
0.000158035
6.16263e-08
0.000158031
-6.39202e-08
0.000158036
5.89543e-08
0.000158031
-5.09271e-08
0.000158035
4.12384e-08
0.000158032
-3.18072e-08
0.000158034
2.33605e-08
0.000158032
-1.64337e-08
0.000158034
1.1075e-08
0.000158033
-7.09309e-09
0.000158034
3.79868e-09
0.000158033
-2.36358e-09
0.000158033
2.72065e-09
-2.0418e-09
0.000171806
-2.92291e-07
0.000171821
3.55166e-08
0.000171809
-5.99256e-08
0.000171811
-6.64558e-09
0.000171814
2.40753e-08
0.000171807
-4.59905e-08
0.000171816
5.23412e-08
0.000171806
-5.37876e-08
0.000171816
4.91651e-08
0.000171807
-4.21768e-08
0.000171814
3.39218e-08
0.000171808
-2.60073e-08
0.000171813
1.8984e-08
0.00017181
-1.32768e-08
0.000171812
8.88909e-09
0.00017181
-5.61862e-09
0.000171811
2.76506e-09
0.000171811
-1.71465e-09
0.000171811
2.45769e-09
-1.75164e-09
0.00018189
-2.15488e-07
0.000181904
2.18358e-08
0.000181887
-4.24596e-08
0.000181886
-6.0463e-09
0.000181892
1.82004e-08
0.00018188
-3.37932e-08
0.000181894
3.79492e-08
0.000181879
-3.87493e-08
0.000181893
3.5193e-08
0.000181881
-3.00385e-08
0.000181891
2.4043e-08
0.000181883
-1.83561e-08
0.000181889
1.33391e-08
0.000181885
-9.28815e-09
0.000181888
6.18436e-09
0.000181886
-3.84305e-09
0.000181887
1.60447e-09
0.000181886
-1.00041e-09
0.000181887
2.08019e-09
-1.36591e-09
0.000188491
-1.14213e-07
0.000188502
1.04324e-08
0.000188481
-2.13887e-08
0.000188478
-3.06625e-09
0.000188487
9.88356e-09
0.000188471
-1.78494e-08
0.000188489
1.99139e-08
0.00018847
-2.02639e-08
0.000188487
1.83348e-08
0.000188473
-1.55964e-08
0.000188484
1.24501e-08
0.000188475
-9.48552e-09
0.000188482
6.87286e-09
0.000188477
-4.7701e-09
0.00018848
3.15674e-09
0.000188478
-1.88917e-09
0.00018848
3.93709e-10
0.000188479
-2.62029e-10
0.000188479
1.60272e-09
-9.13101e-10
0.000191754
1.07209e-10
0.000191764
5.41663e-10
0.000191741
1.51644e-09
0.000191737
1.241e-09
0.000191746
2.4929e-10
0.000191728
7.51363e-11
0.000191748
-1.51356e-11
0.000191728
-2.3793e-12
0.000191746
5.21231e-12
0.000191731
1.01191e-11
0.000191743
-6.55486e-13
0.000191734
-1.0596e-11
0.000191741
3.63903e-12
0.000191736
4.95695e-12
0.000191739
-2.47272e-11
0.000191737
1.43092e-10
0.000191738
-8.1313e-10
0.000191738
4.74641e-10
0.000191738
1.04167e-09
-4.20879e-10
0.000191754
1.14426e-07
0.000191764
-9.36811e-09
0.000191741
2.43449e-08
0.000191737
5.47989e-09
0.000191747
-9.39884e-09
0.000191729
1.79964e-08
0.000191749
-1.99435e-08
0.000191728
2.02584e-08
0.000191747
-1.83245e-08
0.000191731
1.5617e-08
0.000191743
-1.24515e-08
0.000191734
9.46413e-09
0.000191741
-6.86575e-09
0.000191736
4.78051e-09
0.000191739
-3.20492e-09
0.000191737
2.16618e-09
0.000191738
-1.97639e-09
0.000191738
1.19177e-09
0.000191738
4.19656e-10
8.39521e-11
0.000188491
2.15696e-07
0.000188502
-2.08287e-08
0.000188481
4.51939e-08
0.000188479
8.26326e-09
0.000188487
-1.77554e-08
0.000188471
3.39308e-08
0.000188489
-3.7977e-08
0.000188471
3.87416e-08
0.000188488
-3.51832e-08
0.000188473
3.00598e-08
0.000188485
-2.40446e-08
0.000188476
1.83341e-08
0.000188482
-1.33325e-08
0.000188478
9.30007e-09
0.000188481
-6.2289e-09
0.000188479
4.09381e-09
0.00018848
-3.06161e-09
0.000188479
1.87252e-09
0.00018848
-2.32258e-10
5.75346e-10
0.00018189
2.92488e-07
0.000181904
-3.46039e-08
0.000181887
6.23157e-08
0.000181887
8.56138e-09
0.000181893
-2.36904e-08
0.000181881
4.61138e-08
0.000181895
-5.2366e-08
0.00018188
5.37764e-08
0.000181894
-4.91561e-08
0.000181882
4.21994e-08
0.000181892
-3.39237e-08
0.000181884
2.59842e-08
0.00018189
-1.89783e-08
0.000181886
1.32913e-08
0.000181888
-8.92814e-09
0.000181887
5.82963e-09
0.000181888
-4.02954e-09
0.000181887
2.4942e-09
0.000181888
-8.73947e-10
1.02719e-09
0.000171806
3.36389e-07
0.000171821
-5.00968e-08
0.000171809
7.42275e-08
0.000171812
5.98925e-09
0.000171815
-2.6416e-08
0.000171808
5.32009e-08
0.000171817
-6.1647e-08
0.000171807
6.39043e-08
0.000171817
-5.89462e-08
0.000171808
5.09517e-08
0.000171815
-4.12405e-08
0.000171809
3.17827e-08
0.000171814
-2.33559e-08
0.000171811
1.64516e-08
0.000171813
-1.11075e-08
0.000171811
7.25601e-09
0.000171812
-4.82554e-09
0.000171812
3.02173e-09
0.000171812
-1.45609e-09
1.41148e-09
0.000158021
3.4304e-07
0.000158036
-6.50678e-08
0.00015803
7.97564e-08
0.000158035
9.8385e-10
0.000158034
-2.56292e-08
0.000158033
5.44313e-08
0.000158036
-6.47752e-08
0.000158032
6.79832e-08
0.000158037
-6.34429e-08
0.000158032
5.53274e-08
0.000158036
-4.51717e-08
0.000158033
3.50826e-08
0.000158036
-2.59828e-08
0.000158034
1.84379e-08
0.000158035
-1.2534e-08
0.000158034
8.22353e-09
0.000158035
-5.36903e-09
0.000158034
3.40099e-09
0.000158035
-1.91959e-09
1.69538e-09
0.000140253
3.12646e-07
0.000140264
-7.57324e-08
0.000140266
7.80157e-08
0.000140272
-5.15581e-09
0.000140268
-2.16152e-08
0.000140273
4.97405e-08
0.000140269
-6.1239e-08
0.000140272
6.5286e-08
0.00014027
-6.17986e-08
0.000140271
5.44841e-08
0.000140271
-4.49484e-08
0.000140271
3.52347e-08
0.000140271
-2.63418e-08
0.000140271
1.88607e-08
0.000140271
-1.29287e-08
0.000140271
8.54217e-09
0.000140271
-5.5435e-09
0.000140271
3.55227e-09
0.000140271
-2.19374e-09
1.8368e-09
0.000118164
2.49972e-07
0.000118166
-7.72175e-08
0.000118175
6.83283e-08
0.000118181
-1.03672e-08
0.000118174
-1.52953e-08
0.000118184
3.98088e-08
0.000118174
-5.11458e-08
0.000118184
5.55858e-08
0.000118176
-5.35078e-08
0.000118182
4.77875e-08
0.000118177
-3.99008e-08
0.000118181
3.16143e-08
0.000118178
-2.38938e-08
0.00011818
1.72866e-08
0.000118179
-1.19642e-08
0.00011818
7.97542e-09
0.000118179
-5.18834e-09
0.000118179
3.364e-09
0.000118179
-2.19293e-09
1.77862e-09
9.13623e-05
1.63813e-07
9.13493e-05
-6.42657e-08
9.13675e-05
5.01213e-08
9.13692e-05
-1.20352e-08
9.13621e-05
-8.20843e-09
9.13759e-05
2.60357e-08
9.136e-05
-3.52592e-08
9.13764e-05
3.92131e-08
9.13613e-05
-3.84777e-08
9.13743e-05
3.48747e-08
9.13639e-05
-2.9511e-08
9.13718e-05
2.366e-08
9.1366e-05
-1.80999e-08
9.13701e-05
1.32491e-08
9.13674e-05
-9.26688e-09
9.13691e-05
6.23852e-09
9.1368e-05
-4.09299e-09
9.13687e-05
2.68718e-09
9.13683e-05
-1.81215e-09
1.44092e-09
5.94155e-05
6.59505e-08
5.93833e-05
-3.20492e-08
5.94106e-05
2.27766e-08
5.94059e-05
-7.28319e-09
5.94001e-05
-2.39972e-09
5.94157e-05
1.04171e-08
5.93954e-05
-1.49566e-08
5.94175e-05
1.70419e-08
5.93961e-05
-1.70551e-08
5.94153e-05
1.56986e-08
5.93992e-05
-1.3459e-08
5.9412e-05
1.09113e-08
5.94023e-05
-8.45337e-09
5.94093e-05
6.26812e-09
5.94045e-05
-4.42587e-09
5.94077e-05
3.0021e-09
5.94056e-05
-1.99608e-09
5.9407e-05
1.33162e-09
5.94061e-05
-9.15454e-10
7.17101e-10
2.18476e-05
2.18156e-05
2.18384e-05
2.18311e-05
2.18287e-05
2.18391e-05
2.18241e-05
2.18412e-05
2.18241e-05
2.18398e-05
2.18263e-05
2.18373e-05
2.18288e-05
2.18351e-05
2.18306e-05
2.18337e-05
2.18317e-05
2.1833e-05
2.18321e-05
)
;

boundaryField
{
    top
    {
        type            calculated;
        value           uniform 0;
    }
    bottom
    {
        type            calculated;
        value           uniform 0;
    }
    inlet
    {
        type            calculated;
        value           nonuniform List<scalar> 
20
(
-2.17817e-05
-5.93176e-05
-9.12761e-05
-0.000118102
-0.000140223
-0.000158027
-0.00017185
-0.000181967
-0.000188592
-0.000191868
-0.000191868
-0.000188592
-0.000181967
-0.00017185
-0.000158027
-0.000140223
-0.000118102
-9.12761e-05
-5.93176e-05
-2.17817e-05
)
;
    }
    outlet
    {
        type            calculated;
        value           nonuniform List<scalar> 
20
(
2.18326e-05
5.94062e-05
9.13677e-05
0.000118178
0.00014027
0.000158033
0.000171811
0.000181886
0.000188479
0.000191738
0.000191738
0.000188479
0.000181887
0.000171812
0.000158034
0.000140271
0.000118179
9.13686e-05
5.94068e-05
2.18328e-05
)
;
    }
    frontAndBack
    {
        type            empty;
        value           nonuniform 0();
    }
}


// ************************************************************************* //
