/*--------------------------------*- C++ -*----------------------------------*\
| =========                 |                                                 |
| \\      /  F ield         | OpenFOAM: The Open Source CFD Toolbox           |
|  \\    /   O peration     | Version:  4.1                                   |
|   \\  /    A nd           | Web:      www.OpenFOAM.org                      |
|    \\/     M anipulation  |                                                 |
\*---------------------------------------------------------------------------*/
FoamFile
{
    version     2.0;
    format      ascii;
    class       volVectorField;
    location    "0.1";
    object      U;
}
// * * * * * * * * * * * * * * * * * * * * * * * * * * * * * * * * * * * * * //

dimensions      [0 1 -1 0 0 0 0];

internalField   nonuniform List<vector> 
400
(
(0.436261 -3.21947e-05 0)
(0.436574 1.73016e-05 0)
(0.436767 -1.17581e-05 0)
(0.436359 4.18812e-06 0)
(0.437 9.52674e-07 0)
(0.436237 -5.07692e-06 0)
(0.437063 7.5139e-06 0)
(0.436243 -8.6601e-06 0)
(0.437009 8.73863e-06 0)
(0.436331 -8.0872e-06 0)
(0.436904 6.97315e-06 0)
(0.436441 -5.68564e-06 0)
(0.4368 4.41972e-06 0)
(0.436533 -3.28245e-06 0)
(0.436724 2.32943e-06 0)
(0.436592 -1.59195e-06 0)
(0.43668 1.04584e-06 0)
(0.436626 -6.94699e-07 0)
(0.436655 5.00108e-07 0)
(0.436642 -4.04149e-07 0)
(1.18731 -0.000113421 0)
(1.18768 5.08615e-05 0)
(1.18873 -3.70731e-05 0)
(1.18706 1.08184e-05 0)
(1.18933 4.86157e-06 0)
(1.1868 -1.79588e-05 0)
(1.18942 2.52102e-05 0)
(1.1869 -2.84774e-05 0)
(1.18919 2.82259e-05 0)
(1.18722 -2.576e-05 0)
(1.18884 2.1992e-05 0)
(1.18756 -1.77852e-05 0)
(1.18854 1.36669e-05 0)
(1.18782 -1.00298e-05 0)
(1.18832 7.07632e-06 0)
(1.18798 -4.81167e-06 0)
(1.1882 3.0883e-06 0)
(1.18807 -2.01403e-06 0)
(1.18814 1.51592e-06 0)
(1.18811 -1.19078e-06 0)
(1.82648 -0.000208964 0)
(1.82638 7.40747e-05 0)
(1.82868 -6.02223e-05 0)
(1.82539 1.24643e-05 0)
(1.82954 1.16952e-05 0)
(1.82506 -3.32464e-05 0)
(1.82955 4.39703e-05 0)
(1.82535 -4.84049e-05 0)
(1.82908 4.70505e-05 0)
(1.82592 -4.23158e-05 0)
(1.82849 3.5606e-05 0)
(1.82648 -2.84199e-05 0)
(1.82799 2.15953e-05 0)
(1.8269 -1.56888e-05 0)
(1.82766 1.09295e-05 0)
(1.82715 -7.32228e-06 0)
(1.82748 4.57825e-06 0)
(1.82728 -2.95748e-06 0)
(1.82739 2.31647e-06 0)
(1.82734 -1.8419e-06 0)
(2.363 -0.000288097 0)
(2.36194 7.99476e-05 0)
(2.36578 -7.44729e-05 0)
(2.3606 8.95859e-06 0)
(2.36677 1.8947e-05 0)
(2.36031 -4.58397e-05 0)
(2.36663 5.77354e-05 0)
(2.36083 -6.21916e-05 0)
(2.3659 5.93548e-05 0)
(2.36167 -5.26375e-05 0)
(2.36505 4.37153e-05 0)
(2.36245 -3.44869e-05 0)
(2.36438 2.59032e-05 0)
(2.363 -1.86133e-05 0)
(2.36395 1.28259e-05 0)
(2.36332 -8.47954e-06 0)
(2.36372 5.1255e-06 0)
(2.36348 -3.26748e-06 0)
(2.36361 2.74717e-06 0)
(2.36355 -2.17322e-06 0)
(2.80543 -0.000336908 0)
(2.80307 7.27345e-05 0)
(2.80858 -7.96564e-05 0)
(2.80141 3.00823e-06 0)
(2.80961 2.45524e-05 0)
(2.80121 -5.34862e-05 0)
(2.80926 6.47454e-05 0)
(2.80199 -6.84841e-05 0)
(2.80825 6.43209e-05 0)
(2.8031 -5.63431e-05 0)
(2.80717 4.62455e-05 0)
(2.80407 -3.61011e-05 0)
(2.80634 2.68351e-05 0)
(2.80474 -1.90946e-05 0)
(2.80583 1.30247e-05 0)
(2.80511 -8.49814e-06 0)
(2.80557 4.93363e-06 0)
(2.8053 -3.10777e-06 0)
(2.80544 2.88119e-06 0)
(2.80538 -2.25674e-06 0)
(3.16152 -0.000349283 0)
(3.15767 5.87789e-05 0)
(3.16484 -7.70025e-05 0)
(3.15572 -2.64952e-06 0)
(3.16583 2.71863e-05 0)
(3.15565 -5.52518e-05 0)
(3.16524 6.48447e-05 0)
(3.15669 -6.76069e-05 0)
(3.16396 6.26614e-05 0)
(3.15805 -5.43335e-05 0)
(3.16267 4.41583e-05 0)
(3.15919 -3.41698e-05 0)
(3.16172 2.51778e-05 0)
(3.15994 -1.77671e-05 0)
(3.16114 1.20139e-05 0)
(3.16036 -7.73947e-06 0)
(3.16085 4.27371e-06 0)
(3.16056 -2.66648e-06 0)
(3.16072 2.8221e-06 0)
(3.16065 -2.1593e-06 0)
(3.43797 -0.00032339 0)
(3.43263 4.28649e-05 0)
(3.44132 -6.75391e-05 0)
(3.43042 -6.27582e-06 0)
(3.44221 2.62845e-05 0)
(3.43049 -5.09547e-05 0)
(3.44139 5.84166e-05 0)
(3.43178 -6.02384e-05 0)
(3.43986 5.52489e-05 0)
(3.43335 -4.75206e-05 0)
(3.4384 3.83175e-05 0)
(3.43462 -2.94433e-05 0)
(3.43734 2.15421e-05 0)
(3.43545 -1.50995e-05 0)
(3.43672 1.01357e-05 0)
(3.4359 -6.44662e-06 0)
(3.43641 3.32421e-06 0)
(3.43611 -2.06178e-06 0)
(3.43627 2.61925e-06 0)
(3.4362 -1.92335e-06 0)
(3.64032 -0.000261376 0)
(3.63366 2.80063e-05 0)
(3.6436 -5.22971e-05 0)
(3.63125 -7.06276e-06 0)
(3.64438 2.1877e-05 0)
(3.63144 -4.10313e-05 0)
(3.64336 4.6258e-05 0)
(3.63294 -4.73238e-05 0)
(3.64163 4.30656e-05 0)
(3.63467 -3.68172e-05 0)
(3.64003 2.95122e-05 0)
(3.63605 -2.25598e-05 0)
(3.63891 1.64173e-05 0)
(3.63693 -1.14479e-05 0)
(3.63825 7.63822e-06 0)
(3.6374 -4.78806e-06 0)
(3.63793 2.20501e-06 0)
(3.63761 -1.36786e-06 0)
(3.63779 2.29539e-06 0)
(3.63771 -1.57824e-06 0)
(3.77282 -0.000169759 0)
(3.76518 1.55405e-05 0)
(3.77601 -3.26169e-05 0)
(3.76262 -5.06617e-06 0)
(3.7767 1.4532e-05 0)
(3.76291 -2.65605e-05 0)
(3.77552 2.96366e-05 0)
(3.76456 -3.01677e-05 0)
(3.77366 2.73114e-05 0)
(3.7664 -2.32507e-05 0)
(3.77197 1.85658e-05 0)
(3.76785 -1.41459e-05 0)
(3.77079 1.02561e-05 0)
(3.76876 -7.12487e-06 0)
(3.77012 4.72814e-06 0)
(3.76924 -2.89672e-06 0)
(3.76979 1.0038e-06 0)
(3.76946 -6.3379e-07 0)
(3.76964 1.86448e-06 0)
(3.76956 -1.15209e-06 0)
(3.83834 -5.87609e-05 0)
(3.83018 5.25782e-06 0)
(3.84148 -1.01606e-05 0)
(3.82755 -1.08618e-06 0)
(3.84211 5.24006e-06 0)
(3.82789 -9.14249e-06 0)
(3.84085 1.01905e-05 0)
(3.82961 -1.0358e-05 0)
(3.83892 9.35501e-06 0)
(3.83152 -7.9387e-06 0)
(3.83718 6.33124e-06 0)
(3.833 -4.82268e-06 0)
(3.83598 3.48771e-06 0)
(3.83393 -2.41389e-06 0)
(3.8353 1.58438e-06 0)
(3.83441 -8.81158e-07 0)
(3.83496 -2.16077e-07 0)
(3.83463 1.08794e-07 0)
(3.83482 1.34056e-06 0)
(3.83474 -6.72902e-07 0)
(3.83834 5.89745e-05 0)
(3.83018 -4.17339e-06 0)
(3.84148 1.31933e-05 0)
(3.82755 3.56779e-06 0)
(3.84211 -4.74082e-06 0)
(3.8279 9.29275e-06 0)
(3.84086 -1.02208e-05 0)
(3.82962 1.03531e-05 0)
(3.83893 -9.34452e-06 0)
(3.83152 7.959e-06 0)
(3.83719 -6.33258e-06 0)
(3.83301 4.80142e-06 0)
(3.83598 -3.48041e-06 0)
(3.83393 2.42394e-06 0)
(3.8353 -1.63395e-06 0)
(3.83442 1.16733e-06 0)
(3.83497 -1.40975e-06 0)
(3.83463 8.39723e-07 0)
(3.83482 7.42427e-07 0)
(3.83474 -1.67968e-07 0)
(3.77282 0.000169969 0)
(3.76518 -1.44942e-05 0)
(3.77602 3.54963e-05 0)
(3.76263 7.41108e-06 0)
(3.77671 -1.40606e-05 0)
(3.76292 2.67041e-05 0)
(3.77553 -2.96656e-05 0)
(3.76457 3.01613e-05 0)
(3.77367 -2.73012e-05 0)
(3.76641 2.32715e-05 0)
(3.77198 -1.85673e-05 0)
(3.76786 1.41242e-05 0)
(3.7708 -1.02492e-05 0)
(3.76877 7.13592e-06 0)
(3.77013 -4.77515e-06 0)
(3.76925 3.16453e-06 0)
(3.7698 -2.54251e-06 0)
(3.76947 1.54332e-06 0)
(3.76966 9.66609e-08 0)
(3.76957 3.36384e-07 0)
(3.64032 0.00026158 0)
(3.63366 -2.70362e-05 0)
(3.64361 5.4886e-05 0)
(3.63126 9.15107e-06 0)
(3.6444 -2.14573e-05 0)
(3.63146 4.11627e-05 0)
(3.64337 -4.62846e-05 0)
(3.63296 4.73145e-05 0)
(3.64165 -4.30561e-05 0)
(3.63469 3.68391e-05 0)
(3.64005 -2.95139e-05 0)
(3.63607 2.25373e-05 0)
(3.63892 -1.6411e-05 0)
(3.63695 1.14609e-05 0)
(3.63827 -7.6805e-06 0)
(3.63741 5.02171e-06 0)
(3.63795 -3.5799e-06 0)
(3.63762 2.20133e-06 0)
(3.63781 -5.6111e-07 0)
(3.63773 8.1436e-07 0)
(3.43797 0.000323579 0)
(3.43263 -4.20074e-05 0)
(3.44132 6.97304e-05 0)
(3.43044 8.01854e-06 0)
(3.44223 -2.59337e-05 0)
(3.43051 5.10698e-05 0)
(3.44141 -5.84396e-05 0)
(3.4318 6.0225e-05 0)
(3.43988 -5.52402e-05 0)
(3.43337 4.75441e-05 0)
(3.43842 -3.83195e-05 0)
(3.43464 2.94196e-05 0)
(3.43736 -2.15368e-05 0)
(3.43547 1.51155e-05 0)
(3.43674 -1.01717e-05 0)
(3.43591 6.63492e-06 0)
(3.43644 -4.47776e-06 0)
(3.43612 2.78657e-06 0)
(3.4363 -1.18625e-06 0)
(3.43622 1.23958e-06 0)
(3.16151 0.000349447 0)
(3.15767 -5.80654e-05 0)
(3.16485 7.87302e-05 0)
(3.15574 3.99755e-06 0)
(3.16585 -2.69128e-05 0)
(3.15567 5.53485e-05 0)
(3.16526 -6.48632e-05 0)
(3.15672 6.75884e-05 0)
(3.16398 -6.26537e-05 0)
(3.15807 5.43591e-05 0)
(3.16269 -4.41605e-05 0)
(3.15921 3.41444e-05 0)
(3.16174 -2.51738e-05 0)
(3.15997 1.77871e-05 0)
(3.16117 -1.20428e-05 0)
(3.16038 7.8769e-06 0)
(3.16088 -5.17365e-06 0)
(3.16057 3.25768e-06 0)
(3.16075 -1.72583e-06 0)
(3.16067 1.5833e-06 0)
(2.80543 0.000337037 0)
(2.80307 -7.2186e-05 0)
(2.80859 8.09018e-05 0)
(2.80143 -2.06088e-06 0)
(2.80963 -2.43557e-05 0)
(2.80124 5.35646e-05 0)
(2.80928 -6.47588e-05 0)
(2.80201 6.84598e-05 0)
(2.80827 -6.4314e-05 0)
(2.80312 5.63711e-05 0)
(2.80719 -4.62479e-05 0)
(2.8041 3.60734e-05 0)
(2.80636 -2.68327e-05 0)
(2.80476 1.91193e-05 0)
(2.80586 -1.30467e-05 0)
(2.80513 8.58505e-06 0)
(2.80559 -5.5748e-06 0)
(2.80531 3.55166e-06 0)
(2.80547 -2.11736e-06 0)
(2.8054 1.81091e-06 0)
(2.363 0.000288181 0)
(2.36194 -7.95691e-05 0)
(2.36578 7.52646e-05 0)
(2.36062 -8.37814e-06 0)
(2.36679 -1.88199e-05 0)
(2.36033 4.59013e-05 0)
(2.36665 -5.77434e-05 0)
(2.36085 6.21615e-05 0)
(2.36592 -5.93486e-05 0)
(2.36169 5.2668e-05 0)
(2.36507 -4.37174e-05 0)
(2.36247 3.44565e-05 0)
(2.3644 -2.59023e-05 0)
(2.36302 1.86433e-05 0)
(2.36397 -1.28415e-05 0)
(2.36334 8.52089e-06 0)
(2.36374 -5.5285e-06 0)
(2.36349 3.56499e-06 0)
(2.36364 -2.27698e-06 0)
(2.36357 1.86821e-06 0)
(1.82648 0.000209005 0)
(1.82638 -7.38572e-05 0)
(1.82869 6.06335e-05 0)
(1.8254 -1.21755e-05 0)
(1.82955 -1.16232e-05 0)
(1.82508 3.32865e-05 0)
(1.82957 -4.39743e-05 0)
(1.82537 4.83768e-05 0)
(1.8291 -4.70437e-05 0)
(1.82593 4.23409e-05 0)
(1.82851 -3.56084e-05 0)
(1.8265 2.83946e-05 0)
(1.82801 -2.15953e-05 0)
(1.82692 1.57156e-05 0)
(1.82768 -1.09402e-05 0)
(1.82717 7.33554e-06 0)
(1.8275 -4.78439e-06 0)
(1.82729 3.11793e-06 0)
(1.82741 -2.07998e-06 0)
(1.82736 1.67317e-06 0)
(1.18731 0.000113425 0)
(1.18768 -5.07447e-05 0)
(1.18874 3.72177e-05 0)
(1.18707 -1.07495e-05 0)
(1.18935 -4.82873e-06 0)
(1.18681 1.80017e-05 0)
(1.18943 -2.52108e-05 0)
(1.18691 2.84329e-05 0)
(1.1892 -2.82194e-05 0)
(1.18723 2.58001e-05 0)
(1.18886 -2.19943e-05 0)
(1.18757 1.77445e-05 0)
(1.18855 -1.36684e-05 0)
(1.18783 1.00749e-05 0)
(1.18834 -7.08286e-06 0)
(1.18799 4.786e-06 0)
(1.18822 -3.16044e-06 0)
(1.18808 2.0936e-06 0)
(1.18816 -1.42908e-06 0)
(1.18812 1.12074e-06 0)
(0.436261 3.21925e-05 0)
(0.436575 -1.72862e-05 0)
(0.436768 1.17835e-05 0)
(0.436362 -4.16768e-06 0)
(0.437004 -9.4553e-07 0)
(0.436241 5.0744e-06 0)
(0.437067 -7.51361e-06 0)
(0.436247 8.66028e-06 0)
(0.437013 -8.73672e-06 0)
(0.436335 8.08555e-06 0)
(0.436908 -6.97352e-06 0)
(0.436445 5.68699e-06 0)
(0.436804 -4.42049e-06 0)
(0.436536 3.2822e-06 0)
(0.436728 -2.33098e-06 0)
(0.436596 1.59638e-06 0)
(0.436684 -1.05666e-06 0)
(0.436628 6.97553e-07 0)
(0.43666 -4.87804e-07 0)
(0.436646 3.95565e-07 0)
)
;

boundaryField
{
    top
    {
        type            fixedValue;
        value           uniform (0 0 0);
    }
    bottom
    {
        type            fixedValue;
        value           uniform (0 0 0);
    }
    inlet
    {
        type            zeroGradient;
    }
    outlet
    {
        type            zeroGradient;
    }
    frontAndBack
    {
        type            empty;
    }
}


// ************************************************************************* //
