/*--------------------------------*- C++ -*----------------------------------*\
| =========                 |                                                 |
| \\      /  F ield         | OpenFOAM: The Open Source CFD Toolbox           |
|  \\    /   O peration     | Version:  4.1                                   |
|   \\  /    A nd           | Web:      www.OpenFOAM.org                      |
|    \\/     M anipulation  |                                                 |
\*---------------------------------------------------------------------------*/
FoamFile
{
    version     2.0;
    format      ascii;
    class       volScalarField;
    location    "3.1";
    object      p;
}
// * * * * * * * * * * * * * * * * * * * * * * * * * * * * * * * * * * * * * //

dimensions      [0 2 -2 0 0 0 0];

internalField   nonuniform List<scalar> 
400
(
2.01614e-10
2.25089e-10
1.92032e-10
2.0543e-10
1.81091e-10
1.88136e-10
1.69724e-10
1.71688e-10
1.57738e-10
1.55755e-10
1.45353e-10
1.40134e-10
1.32763e-10
1.24657e-10
1.20089e-10
1.0917e-10
1.07523e-10
9.38208e-11
9.60212e-11
9.05086e-11
2.00886e-10
2.24342e-10
1.91976e-10
2.05415e-10
1.81092e-10
1.88133e-10
1.69726e-10
1.71686e-10
1.57739e-10
1.55754e-10
1.45353e-10
1.40134e-10
1.32763e-10
1.24657e-10
1.20088e-10
1.0917e-10
1.07514e-10
9.38264e-11
9.55233e-11
8.99818e-11
2.00471e-10
2.23809e-10
1.91907e-10
2.05414e-10
1.81083e-10
1.88139e-10
1.69721e-10
1.7169e-10
1.57736e-10
1.55756e-10
1.45352e-10
1.40135e-10
1.32763e-10
1.24656e-10
1.2009e-10
1.09167e-10
1.07511e-10
9.3821e-11
9.51296e-11
8.96176e-11
2.00341e-10
2.2356e-10
1.91842e-10
2.05416e-10
1.81073e-10
1.88146e-10
1.69715e-10
1.71695e-10
1.57732e-10
1.55759e-10
1.4535e-10
1.40135e-10
1.32763e-10
1.24656e-10
1.20091e-10
1.09164e-10
1.07509e-10
9.38074e-11
9.49038e-11
8.94317e-11
2.00382e-10
2.23508e-10
1.9178e-10
2.05417e-10
1.81065e-10
1.88152e-10
1.6971e-10
1.71698e-10
1.5773e-10
1.55761e-10
1.45349e-10
1.40136e-10
1.32763e-10
1.24655e-10
1.20093e-10
1.09162e-10
1.07509e-10
9.37899e-11
9.48093e-11
8.93673e-11
2.00535e-10
2.23588e-10
1.91719e-10
2.05417e-10
1.81058e-10
1.88156e-10
1.69707e-10
1.71701e-10
1.57728e-10
1.55762e-10
1.45348e-10
1.40136e-10
1.32763e-10
1.24654e-10
1.20094e-10
1.0916e-10
1.07508e-10
9.37704e-11
9.48193e-11
8.93976e-11
2.00768e-10
2.23761e-10
1.91657e-10
2.05417e-10
1.81052e-10
1.8816e-10
1.69704e-10
1.71704e-10
1.57726e-10
1.55763e-10
1.45347e-10
1.40136e-10
1.32763e-10
1.24654e-10
1.20095e-10
1.09158e-10
1.07508e-10
9.37504e-11
9.4917e-11
8.95063e-11
2.01042e-10
2.23985e-10
1.91592e-10
2.05416e-10
1.81048e-10
1.88162e-10
1.69702e-10
1.71705e-10
1.57725e-10
1.55764e-10
1.45347e-10
1.40137e-10
1.32764e-10
1.24653e-10
1.20096e-10
1.09157e-10
1.07509e-10
9.37315e-11
9.50814e-11
8.9672e-11
2.01319e-10
2.24222e-10
1.91526e-10
2.05413e-10
1.81044e-10
1.88164e-10
1.697e-10
1.71706e-10
1.57724e-10
1.55765e-10
1.45346e-10
1.40137e-10
1.32764e-10
1.24653e-10
1.20096e-10
1.09157e-10
1.07509e-10
9.37152e-11
9.52873e-11
8.98689e-11
2.01563e-10
2.24432e-10
1.91458e-10
2.05408e-10
1.81042e-10
1.88165e-10
1.69699e-10
1.71707e-10
1.57723e-10
1.55765e-10
1.45346e-10
1.40137e-10
1.32764e-10
1.24653e-10
1.20097e-10
1.09156e-10
1.0751e-10
9.37026e-11
9.55076e-11
9.00704e-11
2.01744e-10
2.24587e-10
1.91389e-10
2.05402e-10
1.8104e-10
1.88165e-10
1.69699e-10
1.71707e-10
1.57723e-10
1.55765e-10
1.45346e-10
1.40137e-10
1.32764e-10
1.24653e-10
1.20097e-10
1.09157e-10
1.0751e-10
9.36942e-11
9.57155e-11
9.02508e-11
2.0184e-10
2.24661e-10
1.9132e-10
2.05393e-10
1.8104e-10
1.88164e-10
1.697e-10
1.71706e-10
1.57724e-10
1.55764e-10
1.45346e-10
1.40136e-10
1.32764e-10
1.24653e-10
1.20097e-10
1.09157e-10
1.07508e-10
9.36903e-11
9.58868e-11
9.03869e-11
2.01834e-10
2.24642e-10
1.91254e-10
2.05381e-10
1.81041e-10
1.88161e-10
1.69702e-10
1.71705e-10
1.57725e-10
1.55764e-10
1.45347e-10
1.40136e-10
1.32764e-10
1.24654e-10
1.20097e-10
1.09158e-10
1.07506e-10
9.36907e-11
9.60006e-11
9.04594e-11
2.01724e-10
2.24525e-10
1.91192e-10
2.05368e-10
1.81043e-10
1.88158e-10
1.69704e-10
1.71703e-10
1.57726e-10
1.55763e-10
1.45348e-10
1.40136e-10
1.32764e-10
1.24654e-10
1.20096e-10
1.09159e-10
1.07503e-10
9.36948e-11
9.60424e-11
9.04552e-11
2.01514e-10
2.24319e-10
1.91136e-10
2.05353e-10
1.81045e-10
1.88154e-10
1.69707e-10
1.71701e-10
1.57728e-10
1.55761e-10
1.45349e-10
1.40135e-10
1.32764e-10
1.24654e-10
1.20095e-10
1.09161e-10
1.07498e-10
9.37018e-11
9.60037e-11
9.03678e-11
2.01225e-10
2.24044e-10
1.91088e-10
2.05337e-10
1.81049e-10
1.8815e-10
1.69711e-10
1.71698e-10
1.5773e-10
1.5576e-10
1.4535e-10
1.40135e-10
1.32764e-10
1.24655e-10
1.20094e-10
1.09163e-10
1.07493e-10
9.37107e-11
9.58869e-11
9.02001e-11
2.00881e-10
2.23733e-10
1.91049e-10
2.05319e-10
1.81055e-10
1.88144e-10
1.69715e-10
1.71694e-10
1.57733e-10
1.55758e-10
1.45351e-10
1.40134e-10
1.32764e-10
1.24656e-10
1.20093e-10
1.09165e-10
1.07486e-10
9.37207e-11
9.57015e-11
8.99604e-11
2.00532e-10
2.23442e-10
1.91023e-10
2.05299e-10
1.81062e-10
1.88136e-10
1.69721e-10
1.71689e-10
1.57736e-10
1.55755e-10
1.45352e-10
1.40133e-10
1.32764e-10
1.24657e-10
1.20091e-10
1.09167e-10
1.07477e-10
9.37309e-11
9.54688e-11
8.96684e-11
2.00264e-10
2.23225e-10
1.91003e-10
2.05282e-10
1.81068e-10
1.8813e-10
1.69726e-10
1.71686e-10
1.57739e-10
1.55753e-10
1.45354e-10
1.40133e-10
1.32764e-10
1.24658e-10
1.2009e-10
1.09169e-10
1.07469e-10
9.37399e-11
9.52045e-11
8.93536e-11
2.00214e-10
2.2313e-10
1.90978e-10
2.05278e-10
1.81064e-10
1.88132e-10
1.69724e-10
1.71687e-10
1.57738e-10
1.55753e-10
1.45353e-10
1.40133e-10
1.32764e-10
1.24657e-10
1.2009e-10
1.09167e-10
1.07464e-10
9.37432e-11
9.49568e-11
8.9111e-11
)
;

boundaryField
{
    top
    {
        type            zeroGradient;
    }
    bottom
    {
        type            zeroGradient;
    }
    inlet
    {
        type            fixedValue;
        value           uniform 0;
    }
    outlet
    {
        type            fixedValue;
        value           uniform 0;
    }
    frontAndBack
    {
        type            empty;
    }
}


// ************************************************************************* //
