/*--------------------------------*- C++ -*----------------------------------*\
| =========                 |                                                 |
| \\      /  F ield         | OpenFOAM: The Open Source CFD Toolbox           |
|  \\    /   O peration     | Version:  4.1                                   |
|   \\  /    A nd           | Web:      www.OpenFOAM.org                      |
|    \\/     M anipulation  |                                                 |
\*---------------------------------------------------------------------------*/
FoamFile
{
    version     2.0;
    format      ascii;
    class       surfaceScalarField;
    location    "3.1";
    object      phi;
}
// * * * * * * * * * * * * * * * * * * * * * * * * * * * * * * * * * * * * * //

dimensions      [0 3 -1 0 0 0 0];

internalField   nonuniform List<scalar> 
760
(
1.25e-06
-3.13354e-16
1.25e-06
-2.15299e-16
1.25e-06
2.71119e-18
1.25e-06
-1.52618e-17
1.25e-06
1.01753e-17
1.25e-06
-8.6095e-18
1.25e-06
6.80898e-18
1.25e-06
-5.32219e-18
1.25e-06
3.99056e-18
1.25e-06
-2.80379e-18
1.25e-06
1.71939e-18
1.25e-06
-6.87731e-19
1.25e-06
-2.84678e-19
1.25e-06
1.21719e-18
1.25e-06
-2.2094e-18
1.25e-06
3.0105e-18
1.25e-06
-5.70903e-18
1.25e-06
8.04081e-18
1.25e-06
-1.29004e-16
-1.90081e-16
3.75e-06
-9.47144e-16
3.75e-06
-7.53319e-16
3.75e-06
-1.55658e-17
3.75e-06
-3.71289e-17
3.75e-06
2.13307e-17
3.75e-06
-1.86647e-17
3.75e-06
1.46258e-17
3.75e-06
-1.14411e-17
3.75e-06
8.55931e-18
3.75e-06
-6.0098e-18
3.75e-06
3.67825e-18
3.75e-06
-1.43126e-18
3.75e-06
-6.68701e-19
3.75e-06
2.66487e-18
3.75e-06
-4.87926e-18
3.75e-06
6.31193e-18
3.75e-06
-1.49894e-17
3.75e-06
2.12092e-17
3.75e-06
-4.75095e-16
-6.13779e-16
6.25e-06
-1.71358e-15
6.25e-06
-1.48525e-15
6.25e-06
-5.79201e-17
6.25e-06
-5.69457e-17
6.25e-06
2.74489e-17
6.25e-06
-2.5111e-17
6.25e-06
1.94477e-17
6.25e-06
-1.52274e-17
6.25e-06
1.13596e-17
6.25e-06
-7.96816e-18
6.25e-06
4.86505e-18
6.25e-06
-1.82655e-18
6.25e-06
-9.8443e-19
6.25e-06
3.62257e-18
6.25e-06
-6.70953e-18
6.25e-06
8.13898e-18
6.25e-06
-2.4711e-17
6.25e-06
3.55531e-17
6.25e-06
-9.75652e-16
-1.17356e-15
8.75e-06
-2.49703e-15
8.75e-06
-2.28479e-15
8.75e-06
-1.16366e-16
8.75e-06
-7.38769e-17
8.75e-06
2.91593e-17
8.75e-06
-2.82853e-17
8.75e-06
2.15801e-17
8.75e-06
-1.69198e-17
8.75e-06
1.25767e-17
8.75e-06
-8.82066e-18
8.75e-06
5.37176e-18
8.75e-06
-1.92815e-18
8.75e-06
-1.21484e-18
8.75e-06
4.12381e-18
8.75e-06
-7.75085e-18
8.75e-06
8.67333e-18
8.75e-06
-3.42238e-17
8.75e-06
5.00975e-17
8.75e-06
-1.55683e-15
-1.79575e-15
1.125e-05
-3.19782e-15
1.125e-05
-3.04069e-15
1.125e-05
-1.82336e-16
1.125e-05
-8.70343e-17
1.125e-05
2.71534e-17
1.125e-05
-2.85582e-17
1.125e-05
2.137e-17
1.125e-05
-1.67788e-17
1.125e-05
1.24127e-17
1.125e-05
-8.71036e-18
1.125e-05
5.2882e-18
1.125e-05
-1.78754e-18
1.125e-05
-1.34899e-18
1.125e-05
4.20321e-18
1.125e-05
-8.05553e-18
1.125e-05
8.10433e-18
1.125e-05
-4.28348e-17
1.125e-05
6.39035e-17
1.125e-05
-2.14771e-15
-2.40982e-15
1.375e-05
-3.73959e-15
1.375e-05
-3.66469e-15
1.375e-05
-2.4742e-16
1.375e-05
-9.56239e-17
1.375e-05
2.21637e-17
1.375e-05
-2.63314e-17
1.375e-05
1.91765e-17
1.375e-05
-1.50915e-17
1.375e-05
1.10891e-17
1.375e-05
-7.79356e-18
1.375e-05
4.71507e-18
1.375e-05
-1.456e-18
1.375e-05
-1.38632e-18
1.375e-05
3.91651e-18
1.375e-05
-7.70617e-18
1.375e-05
6.63138e-18
1.375e-05
-4.98786e-17
1.375e-05
7.59986e-17
1.375e-05
-2.68424e-15
-2.95236e-15
1.625e-05
-4.0696e-15
1.625e-05
-4.09256e-15
1.625e-05
-3.04081e-16
1.625e-05
-9.90506e-17
1.625e-05
1.49518e-17
1.625e-05
-2.20486e-17
1.625e-05
1.53941e-17
1.625e-05
-1.21529e-17
1.625e-05
8.82983e-18
1.625e-05
-6.22588e-18
1.625e-05
3.74926e-18
1.625e-05
-9.86336e-19
1.625e-05
-1.31865e-18
1.625e-05
3.30911e-18
1.625e-05
-6.78944e-18
1.625e-05
4.46993e-18
1.625e-05
-5.48037e-17
1.625e-05
8.53858e-17
1.625e-05
-3.11362e-15
-3.37151e-15
1.875e-05
-4.16156e-15
1.875e-05
-4.28745e-15
1.875e-05
-3.46303e-16
1.875e-05
-9.70604e-17
1.875e-05
6.27825e-18
1.875e-05
-1.61701e-17
1.875e-05
1.04254e-17
1.875e-05
-8.29092e-18
1.875e-05
5.88642e-18
1.875e-05
-4.18177e-18
1.875e-05
2.50086e-18
1.875e-05
-4.26352e-19
1.875e-05
-1.1753e-18
1.875e-05
2.46248e-18
1.875e-05
-5.41108e-18
1.875e-05
1.82577e-18
1.875e-05
-5.71942e-17
1.875e-05
9.11393e-17
1.875e-05
-3.39717e-15
-3.62991e-15
2.125e-05
-4.01437e-15
2.125e-05
-4.23927e-15
2.125e-05
-3.70102e-16
2.125e-05
-8.97537e-17
2.125e-05
-3.13259e-18
2.125e-05
-9.18379e-18
2.125e-05
4.68838e-18
2.125e-05
-3.82764e-18
2.125e-05
2.49671e-18
2.125e-05
-1.82631e-18
2.125e-05
1.08305e-18
2.125e-05
1.76027e-19
2.125e-05
-9.61542e-19
2.125e-05
1.44152e-18
2.125e-05
-3.68157e-18
2.125e-05
-1.08917e-18
2.125e-05
-5.68381e-17
2.125e-05
9.25025e-17
2.125e-05
-3.51234e-15
-3.70687e-15
2.375e-05
-3.65083e-15
2.375e-05
-3.96365e-15
2.375e-05
-3.73814e-16
2.375e-05
-7.76651e-17
2.375e-05
-1.25767e-17
2.375e-05
-1.59644e-18
2.375e-05
-1.40734e-18
2.375e-05
9.23019e-19
2.375e-05
-1.08187e-18
2.375e-05
6.53067e-19
2.375e-05
-4.2286e-19
2.375e-05
7.76342e-19
2.375e-05
-6.84512e-19
2.375e-05
3.22182e-19
2.375e-05
-1.74082e-18
2.375e-05
-4.04537e-18
2.375e-05
-5.37498e-17
2.375e-05
8.90746e-17
2.375e-05
-3.45342e-15
-3.59918e-15
2.625e-05
-3.11413e-15
2.625e-05
-3.49853e-15
2.625e-05
-3.58155e-16
2.625e-05
-6.17528e-17
2.625e-05
-2.14097e-17
2.625e-05
6.06908e-18
2.625e-05
-7.42581e-18
2.625e-05
5.62216e-18
2.625e-05
-4.61369e-18
2.625e-05
3.10955e-18
2.625e-05
-1.91113e-18
2.625e-05
1.34837e-18
2.625e-05
-3.84557e-19
2.625e-05
-8.21901e-19
2.625e-05
2.81292e-19
2.625e-05
-6.84298e-18
2.625e-05
-4.8157e-17
2.625e-05
8.09019e-17
2.625e-05
-3.23114e-15
-3.32079e-15
2.875e-05
-2.46309e-15
2.875e-05
-2.89932e-15
2.875e-05
-3.25943e-16
2.875e-05
-4.33698e-17
2.875e-05
-2.90363e-17
2.875e-05
1.32818e-17
2.875e-05
-1.29699e-17
2.875e-05
9.96539e-18
2.875e-05
-7.86946e-18
2.875e-05
5.37282e-18
2.875e-05
-3.2767e-18
2.875e-05
1.85041e-18
2.875e-05
-7.99437e-20
2.875e-05
-1.89357e-18
2.875e-05
2.23719e-18
2.875e-05
-9.28871e-18
2.875e-05
-4.05196e-17
2.875e-05
6.86043e-17
2.875e-05
-2.87088e-15
-2.90112e-15
3.125e-05
-1.76659e-15
3.125e-05
-2.23295e-15
3.125e-05
-2.81616e-16
3.125e-05
-2.41332e-17
3.125e-05
-3.49493e-17
3.125e-05
1.95029e-17
3.125e-05
-1.76392e-17
3.125e-05
1.36338e-17
3.125e-05
-1.05815e-17
3.125e-05
7.25954e-18
3.125e-05
-4.42448e-18
3.125e-05
2.24827e-18
3.125e-05
2.05445e-19
3.125e-05
-2.8329e-18
3.125e-05
3.98328e-18
3.125e-05
-1.11866e-17
3.125e-05
-3.14966e-17
3.125e-05
5.33538e-17
3.125e-05
-2.41013e-15
-2.38242e-15
3.375e-05
-1.09596e-15
3.375e-05
-1.56968e-15
3.375e-05
-2.30583e-16
3.375e-05
-5.84673e-18
3.375e-05
-3.86832e-17
3.375e-05
2.42255e-17
3.375e-05
-2.10423e-17
3.375e-05
1.6304e-17
3.375e-05
-1.25351e-17
3.375e-05
8.64084e-18
3.375e-05
-5.2619e-18
3.375e-05
2.50699e-18
3.375e-05
4.4004e-19
3.375e-05
-3.53732e-18
3.375e-05
5.36907e-18
3.375e-05
-1.23613e-17
3.375e-05
-2.19003e-17
3.375e-05
3.67787e-17
3.375e-05
-1.89432e-15
-1.81539e-15
3.625e-05
-5.18835e-16
3.625e-05
-9.76299e-16
3.625e-05
-1.78176e-16
3.625e-05
9.5948e-18
3.625e-05
-3.98001e-17
3.625e-05
2.69348e-17
3.625e-05
-2.28099e-17
3.625e-05
1.77033e-17
3.625e-05
-1.35324e-17
3.625e-05
9.35889e-18
3.625e-05
-5.70171e-18
3.625e-05
2.61016e-18
3.625e-05
6.06544e-19
3.625e-05
-3.93321e-18
3.625e-05
6.26278e-18
3.625e-05
-1.27016e-17
3.625e-05
-1.26414e-17
3.625e-05
2.08176e-17
3.625e-05
-1.37311e-15
-1.25522e-15
3.875e-05
-8.85266e-17
3.875e-05
-5.04868e-16
3.875e-05
-1.29032e-16
3.875e-05
2.04377e-17
3.875e-05
-3.7923e-17
3.875e-05
2.71546e-17
3.875e-05
-2.25873e-17
3.875e-05
1.75494e-17
3.875e-05
-1.3363e-17
3.875e-05
9.27309e-18
3.875e-05
-5.64603e-18
3.875e-05
2.50241e-18
3.875e-05
6.79757e-19
3.875e-05
-3.94967e-18
3.875e-05
6.50073e-18
3.875e-05
-1.20325e-17
3.875e-05
-4.67693e-18
3.875e-05
7.41719e-18
3.875e-05
-8.93735e-16
-7.54576e-16
4.125e-05
1.59331e-16
4.125e-05
-1.88536e-16
4.125e-05
-8.60111e-17
4.125e-05
2.51199e-17
4.125e-05
-3.26803e-17
4.125e-05
2.44323e-17
4.125e-05
-2.00567e-17
4.125e-05
1.55809e-17
4.125e-05
-1.18406e-17
4.125e-05
8.25752e-18
4.125e-05
-5.0314e-18
4.125e-05
2.19028e-18
4.125e-05
6.58632e-19
4.125e-05
-3.53342e-18
4.125e-05
5.94879e-18
4.125e-05
-1.02769e-17
4.125e-05
1.07225e-18
4.125e-05
-1.74786e-18
4.125e-05
-4.98078e-16
-3.60217e-16
4.375e-05
2.21968e-16
4.375e-05
-2.62255e-17
4.375e-05
-4.99375e-17
4.375e-05
2.24705e-17
4.375e-05
-2.37608e-17
4.375e-05
1.83528e-17
4.375e-05
-1.4903e-17
4.375e-05
1.15858e-17
4.375e-05
-8.79836e-18
4.375e-05
6.15586e-18
4.375e-05
-3.74428e-18
4.375e-05
1.60097e-18
4.375e-05
5.15545e-19
4.375e-05
-2.61981e-18
4.375e-05
4.51345e-18
4.375e-05
-7.37022e-18
4.375e-05
3.78153e-18
4.375e-05
-5.57038e-18
4.375e-05
-2.12619e-16
-1.02543e-16
4.625e-05
1.24688e-16
4.625e-05
1.30573e-17
4.625e-05
-1.91468e-17
4.625e-05
1.15773e-17
4.625e-05
-1.07824e-17
4.625e-05
8.53425e-18
4.625e-05
-6.88007e-18
4.625e-05
5.34818e-18
4.625e-05
-4.05032e-18
4.625e-05
2.84051e-18
4.625e-05
-1.72574e-18
4.625e-05
7.30823e-19
4.625e-05
2.46351e-19
4.625e-05
-1.21103e-18
4.625e-05
2.10974e-18
4.625e-05
-3.28905e-18
4.625e-05
2.76019e-18
4.625e-05
-3.87456e-18
4.625e-05
-4.97711e-17
3.47109e-18
4.875e-05
4.875e-05
4.875e-05
4.875e-05
4.875e-05
4.875e-05
4.875e-05
4.875e-05
4.875e-05
4.875e-05
4.875e-05
4.875e-05
4.875e-05
4.875e-05
4.875e-05
4.875e-05
4.875e-05
4.875e-05
4.875e-05
)
;

boundaryField
{
    top
    {
        type            calculated;
        value           uniform 0;
    }
    bottom
    {
        type            calculated;
        value           uniform 0;
    }
    inlet
    {
        type            calculated;
        value           nonuniform List<scalar> 
20
(
-1.25e-06
-3.75e-06
-6.25e-06
-8.75e-06
-1.125e-05
-1.375e-05
-1.625e-05
-1.875e-05
-2.125e-05
-2.375e-05
-2.625e-05
-2.875e-05
-3.125e-05
-3.375e-05
-3.625e-05
-3.875e-05
-4.125e-05
-4.375e-05
-4.625e-05
-4.875e-05
)
;
    }
    outlet
    {
        type            calculated;
        value           nonuniform List<scalar> 
20
(
1.25e-06
3.75e-06
6.25e-06
8.75e-06
1.125e-05
1.375e-05
1.625e-05
1.875e-05
2.125e-05
2.375e-05
2.625e-05
2.875e-05
3.125e-05
3.375e-05
3.625e-05
3.875e-05
4.125e-05
4.375e-05
4.625e-05
4.875e-05
)
;
    }
    frontAndBack
    {
        type            empty;
        value           nonuniform 0();
    }
}


// ************************************************************************* //
