/*--------------------------------*- C++ -*----------------------------------*\
| =========                 |                                                 |
| \\      /  F ield         | OpenFOAM: The Open Source CFD Toolbox           |
|  \\    /   O peration     | Version:  4.1                                   |
|   \\  /    A nd           | Web:      www.OpenFOAM.org                      |
|    \\/     M anipulation  |                                                 |
\*---------------------------------------------------------------------------*/
FoamFile
{
    version     2.0;
    format      ascii;
    class       volVectorField;
    location    "3.1";
    object      U;
}
// * * * * * * * * * * * * * * * * * * * * * * * * * * * * * * * * * * * * * //

dimensions      [0 1 -1 0 0 0 0];

internalField   nonuniform List<vector> 
400
(
(0.025 -1.39449e-13 0)
(0.025 -8.68969e-14 0)
(0.025 3.21998e-15 0)
(0.025 -7.62354e-15 0)
(0.025 5.35874e-15 0)
(0.025 -4.48618e-15 0)
(0.025 3.55943e-15 0)
(0.025 -2.78145e-15 0)
(0.025 2.08734e-15 0)
(0.025 -1.46715e-15 0)
(0.025 9.00408e-16 0)
(0.025 -3.63926e-16 0)
(0.025 -1.43226e-16 0)
(0.025 6.31736e-16 0)
(0.025 -1.14291e-15 0)
(0.025 1.58153e-15 0)
(0.025 -2.76227e-15 0)
(0.025 3.56389e-15 0)
(0.025 -4.89773e-14 0)
(0.025 -7.98515e-14 0)
(0.075 -5.87343e-13 0)
(0.075 -4.33373e-13 0)
(0.075 -1.10281e-15 0)
(0.075 -2.5804e-14 0)
(0.075 1.6304e-14 0)
(0.075 -1.39564e-14 0)
(0.075 1.10006e-14 0)
(0.075 -8.60122e-15 0)
(0.075 6.44368e-15 0)
(0.075 -4.52577e-15 0)
(0.075 2.77348e-15 0)
(0.075 -1.09755e-15 0)
(0.075 -4.77027e-16 0)
(0.075 1.98147e-15 0)
(0.075 -3.60831e-15 0)
(0.075 4.8222e-15 0)
(0.075 -9.95249e-15 0)
(0.075 1.43134e-14 0)
(0.075 -2.64354e-13 0)
(0.075 -3.6515e-13 0)
(0.125 -1.30332e-12 0)
(0.125 -1.08196e-12 0)
(0.125 -3.20517e-14 0)
(0.125 -4.71879e-14 0)
(0.125 2.52051e-14 0)
(0.125 -2.24478e-14 0)
(0.125 1.7508e-14 0)
(0.125 -1.37009e-14 0)
(0.125 1.02384e-14 0)
(0.125 -7.18477e-15 0)
(0.125 4.39285e-15 0)
(0.125 -1.68485e-15 0)
(0.125 -8.36131e-16 0)
(0.125 3.21958e-15 0)
(0.125 -5.92199e-15 0)
(0.125 7.46142e-15 0)
(0.125 -1.96704e-14 0)
(0.125 2.7766e-14 0)
(0.125 -6.93806e-13 0)
(0.125 -8.6434e-13 0)
(0.175 -2.10966e-12 0)
(0.175 -1.87781e-12 0)
(0.175 -8.38515e-14 0)
(0.175 -6.61976e-14 0)
(0.175 2.93354e-14 0)
(0.175 -2.74741e-14 0)
(0.175 2.11484e-14 0)
(0.175 -1.65682e-14 0)
(0.175 1.23414e-14 0)
(0.175 -8.65557e-15 0)
(0.175 5.27904e-15 0)
(0.175 -1.9458e-15 0)
(0.175 -1.12144e-15 0)
(0.175 3.98307e-15 0)
(0.175 -7.42088e-15 0)
(0.175 8.70915e-15 0)
(0.175 -2.95824e-14 0)
(0.175 4.27875e-14 0)
(0.175 -1.25289e-12 0)
(0.175 -1.47569e-12 0)
(0.225 -2.87702e-12 0)
(0.225 -2.68352e-12 0)
(0.225 -1.48417e-13 0)
(0.225 -8.15393e-14 0)
(0.225 2.90377e-14 0)
(0.225 -2.91305e-14 0)
(0.225 2.20433e-14 0)
(0.225 -1.72933e-14 0)
(0.225 1.28285e-14 0)
(0.225 -8.99812e-15 0)
(0.225 5.47208e-15 0)
(0.225 -1.91447e-15 0)
(0.225 -1.30737e-15 0)
(0.225 4.26664e-15 0)
(0.225 -8.08513e-15 0)
(0.225 8.65073e-15 0)
(0.225 -3.88518e-14 0)
(0.225 5.72007e-14 0)
(0.225 -1.85744e-12 0)
(0.225 -2.11245e-12 0)
(0.275 -3.51443e-12 0)
(0.275 -3.39293e-12 0)
(0.275 -2.16065e-13 0)
(0.275 -9.25478e-14 0)
(0.275 2.53175e-14 0)
(0.275 -2.80204e-14 0)
(0.275 2.07245e-14 0)
(0.275 -1.62879e-14 0)
(0.275 1.20148e-14 0)
(0.275 -8.43561e-15 0)
(0.275 5.11238e-15 0)
(0.275 -1.66328e-15 0)
(0.275 -1.39217e-15 0)
(0.275 4.14614e-15 0)
(0.275 -8.03564e-15 0)
(0.275 7.56863e-15 0)
(0.275 -4.68177e-14 0)
(0.275 7.0398e-14 0)
(0.275 -2.43585e-12 0)
(0.275 -2.70513e-12 0)
(0.325 -3.95998e-12 0)
(0.325 -3.9314e-12 0)
(0.325 -2.78701e-13 0)
(0.325 -9.86535e-14 0)
(0.325 1.90159e-14 0)
(0.325 -2.46441e-14 0)
(0.325 1.76306e-14 0)
(0.325 -1.38926e-14 0)
(0.325 1.01607e-14 0)
(0.325 -7.14936e-15 0)
(0.325 4.31546e-15 0)
(0.325 -1.24945e-15 0)
(0.325 -1.37537e-15 0)
(0.325 3.68223e-15 0)
(0.325 -7.37581e-15 0)
(0.325 5.69607e-15 0)
(0.325 -5.29171e-14 0)
(0.325 8.1392e-14 0)
(0.325 -2.93003e-12 0)
(0.325 -3.19691e-12 0)
(0.375 -4.17441e-12 0)
(0.375 -4.2487e-12 0)
(0.375 -3.29444e-13 0)
(0.375 -9.9398e-14 0)
(0.375 1.0887e-14 0)
(0.375 -1.94461e-14 0)
(0.375 1.31532e-14 0)
(0.375 -1.04125e-14 0)
(0.375 7.49915e-15 0)
(0.375 -5.30155e-15 0)
(0.375 3.18255e-15 0)
(0.375 -7.22537e-16 0)
(0.375 -1.26708e-15 0)
(0.375 2.93871e-15 0)
(0.375 -6.2009e-15 0)
(0.375 3.23992e-15 0)
(0.375 -5.66521e-14 0)
(0.375 8.92032e-14 0)
(0.375 -3.29404e-12 0)
(0.375 -3.54289e-12 0)
(0.425 -4.14422e-12 0)
(0.425 -4.32153e-12 0)
(0.425 -3.63204e-13 0)
(0.425 -9.46761e-14 0)
(0.425 1.6657e-15 0)
(0.425 -1.28902e-14 0)
(0.425 7.6967e-15 0)
(0.425 -6.16986e-15 0)
(0.425 4.27185e-15 0)
(0.425 -3.05948e-15 0)
(0.425 1.82371e-15 0)
(0.425 -1.31069e-16 0)
(0.425 -1.08362e-15 0)
(0.425 1.98688e-15 0)
(0.425 -4.61723e-15 0)
(0.425 4.08137e-16 0)
(0.425 -5.76963e-14 0)
(0.425 9.29412e-14 0)
(0.425 -3.49691e-12 0)
(0.425 -3.71359e-12 0)
(0.475 -3.88074e-12 0)
(0.475 -4.15312e-12 0)
(0.475 -3.77106e-13 0)
(0.475 -8.47983e-14 0)
(0.475 -7.93034e-15 0)
(0.475 -5.47423e-15 0)
(0.475 1.67505e-15 0)
(0.475 -1.48137e-15 0)
(0.475 7.26241e-16 0)
(0.475 -5.99441e-16 0)
(0.475 3.37074e-16 0)
(0.475 4.80414e-16 0)
(0.475 -8.33404e-16 0)
(0.475 8.96669e-16 0)
(0.475 -2.74769e-15 0)
(0.475 -2.58017e-15 0)
(0.475 -5.59455e-14 0)
(0.475 9.19871e-14 0)
(0.475 -3.52442e-12 0)
(0.475 -3.69693e-12 0)
(0.525 -3.41802e-12 0)
(0.525 -3.77126e-12 0)
(0.525 -3.70694e-13 0)
(0.525 -7.05147e-14 0)
(0.525 -1.7223e-14 0)
(0.525 2.28352e-15 0)
(0.525 -4.48529e-15 0)
(0.525 3.32404e-15 0)
(0.525 -2.89112e-15 0)
(0.525 1.91096e-15 0)
(0.525 -1.18539e-15 0)
(0.525 1.07584e-15 0)
(0.525 -5.38769e-16 0)
(0.525 -2.54465e-16 0)
(0.525 -7.31558e-16 0)
(0.525 -5.50773e-15 0)
(0.525 -5.15195e-14 0)
(0.525 8.61328e-14 0)
(0.525 -3.37937e-12 0)
(0.525 -3.49854e-12 0)
(0.575 -2.80837e-12 0)
(0.575 -3.224e-12 0)
(0.575 -3.45828e-13 0)
(0.575 -5.2998e-14 0)
(0.575 -2.55912e-14 0)
(0.575 9.85482e-15 0)
(0.575 -1.03678e-14 0)
(0.575 7.92424e-15 0)
(0.575 -6.34469e-15 0)
(0.575 4.31131e-15 0)
(0.575 -2.63611e-15 0)
(0.575 1.62114e-15 0)
(0.575 -2.30229e-16 0)
(0.575 -1.38413e-15 0)
(0.575 1.29419e-15 0)
(0.575 -8.17668e-15 0)
(0.575 -4.47663e-14 0)
(0.575 7.56973e-14 0)
(0.575 -3.08033e-12 0)
(0.575 -3.14064e-12 0)
(0.625 -2.1173e-12 0)
(0.625 -2.57428e-12 0)
(0.625 -3.06286e-13 0)
(0.625 -3.3759e-14 0)
(0.625 -3.24846e-14 0)
(0.625 1.67022e-14 0)
(0.625 -1.55717e-14 0)
(0.625 1.20073e-14 0)
(0.625 -9.38596e-15 0)
(0.625 6.42502e-15 0)
(0.625 -3.91565e-15 0)
(0.625 2.07904e-15 0)
(0.625 7.15662e-17 0)
(0.625 -2.40989e-15 0)
(0.625 3.18157e-15 0)
(0.625 -1.03923e-14 0)
(0.625 -3.62559e-14 0)
(0.625 6.1584e-14 0)
(0.625 -2.6596e-12 0)
(0.625 -2.65997e-12 0)
(0.675 -1.4166e-12 0)
(0.675 -1.89252e-12 0)
(0.675 -2.572e-13 0)
(0.675 -1.45367e-14 0)
(0.675 -3.74174e-14 0)
(0.675 2.2301e-14 0)
(0.675 -1.97011e-14 0)
(0.675 1.52502e-14 0)
(0.675 -1.17732e-14 0)
(0.675 8.09633e-15 0)
(0.675 -4.93132e-15 0)
(0.675 2.41469e-15 0)
(0.675 3.3795e-16 0)
(0.675 -3.25147e-15 0)
(0.675 4.78384e-15 0)
(0.675 -1.19684e-14 0)
(0.675 -2.67327e-14 0)
(0.675 4.52252e-14 0)
(0.675 -2.15962e-12 0)
(0.675 -2.10403e-12 0)
(0.725 -7.7777e-13 0)
(0.725 -1.24958e-12 0)
(0.725 -2.04179e-13 0)
(0.725 2.79533e-15 0)
(0.725 -3.99527e-14 0)
(0.725 2.61478e-14 0)
(0.725 -2.23836e-14 0)
(0.725 1.73606e-14 0)
(0.725 -1.33021e-14 0)
(0.725 9.1839e-15 0)
(0.725 -5.59252e-15 0)
(0.725 2.60344e-15 0)
(0.725 5.43566e-16 0)
(0.725 -3.82259e-15 0)
(0.725 5.96242e-15 0)
(0.725 -1.27641e-14 0)
(0.725 -1.70707e-14 0)
(0.725 2.84556e-14 0)
(0.725 -1.62929e-12 0)
(0.725 -1.52714e-12 0)
(0.775 -2.62984e-13 0)
(0.775 -7.06898e-13 0)
(0.775 -1.52459e-13 0)
(0.775 1.63984e-14 0)
(0.775 -3.96984e-14 0)
(0.775 2.77573e-14 0)
(0.775 -2.32625e-14 0)
(0.775 1.80659e-14 0)
(0.775 -1.37766e-14 0)
(0.775 9.54482e-15 0)
(0.775 -5.81331e-15 0)
(0.775 2.61142e-15 0)
(0.775 6.6924e-16 0)
(0.775 -4.04885e-15 0)
(0.775 6.56938e-15 0)
(0.775 -1.26375e-14 0)
(0.775 -8.21188e-15 0)
(0.775 1.32826e-14 0)
(0.775 -1.11813e-12 0)
(0.775 -9.84343e-13 0)
(0.825 7.95501e-14 0)
(0.825 -3.09903e-13 0)
(0.825 -1.05774e-13 0)
(0.825 2.44901e-14 0)
(0.825 -3.61828e-14 0)
(0.825 2.65858e-14 0)
(0.825 -2.19393e-14 0)
(0.825 1.70459e-14 0)
(0.825 -1.29625e-14 0)
(0.825 9.01854e-15 0)
(0.825 -5.49265e-15 0)
(0.825 2.40545e-15 0)
(0.825 6.98111e-16 0)
(0.825 -3.85682e-15 0)
(0.825 6.43564e-15 0)
(0.825 -1.14335e-14 0)
(0.825 -1.12807e-15 0)
(0.825 1.66299e-15 0)
(0.825 -6.72e-13 0)
(0.825 -5.27251e-13 0)
(0.875 2.28494e-13 0)
(0.875 -7.41294e-14 0)
(0.875 -6.57691e-14 0)
(0.875 2.52935e-14 0)
(0.875 -2.88166e-14 0)
(0.875 2.19767e-14 0)
(0.875 -1.79239e-14 0)
(0.875 1.39299e-14 0)
(0.875 -1.05773e-14 0)
(0.875 7.38922e-15 0)
(0.875 -4.49865e-15 0)
(0.875 1.93687e-15 0)
(0.875 6.08593e-16 0)
(0.875 -3.16039e-15 0)
(0.875 5.3902e-15 0)
(0.875 -9.00398e-15 0)
(0.875 3.1386e-15 0)
(0.875 -4.98203e-15 0)
(0.875 -3.26131e-13 0)
(0.875 -1.96877e-13 0)
(0.925 1.97865e-13 0)
(0.925 1.59641e-14 0)
(0.925 -3.23525e-14 0)
(0.925 1.81985e-14 0)
(0.925 -1.7562e-14 0)
(0.925 1.37955e-14 0)
(0.925 -1.11471e-14 0)
(0.925 8.66666e-15 0)
(0.925 -6.57287e-15 0)
(0.925 4.60663e-15 0)
(0.925 -2.801e-15 0)
(0.925 1.189e-15 0)
(0.925 3.95698e-16 0)
(0.925 -1.96134e-15 0)
(0.925 3.40661e-15 0)
(0.925 -5.40695e-15 0)
(0.925 3.92525e-15 0)
(0.925 -5.60313e-15 0)
(0.925 -1.05139e-13 0)
(0.925 -2.00279e-14 0)
(0.975 7.38729e-14 0)
(0.975 1.64893e-14 0)
(0.975 -8.92453e-15 0)
(0.975 6.28367e-15 0)
(0.975 -5.58379e-15 0)
(0.975 4.45921e-15 0)
(0.975 -3.58347e-15 0)
(0.975 2.78681e-15 0)
(0.975 -2.1101e-15 0)
(0.975 1.47974e-15 0)
(0.975 -8.98796e-16 0)
(0.975 3.78564e-16 0)
(0.975 1.29022e-16 0)
(0.975 -6.29474e-16 0)
(0.975 1.10541e-15 0)
(0.975 -1.69994e-15 0)
(0.975 1.63182e-15 0)
(0.975 -2.5416e-15 0)
(0.975 -1.37442e-14 0)
(0.975 1.47818e-14 0)
)
;

boundaryField
{
    top
    {
        type            fixedValue;
        value           uniform (1 0 0);
    }
    bottom
    {
        type            fixedValue;
        value           uniform (0 0 0);
    }
    inlet
    {
        type            zeroGradient;
    }
    outlet
    {
        type            zeroGradient;
    }
    frontAndBack
    {
        type            empty;
    }
}


// ************************************************************************* //
