# vtk DataFile Version 2.0
OUTPUT by 3D-VPM
ASCII
DATASET UNSTRUCTURED_GRID
POINTS 820 double
9.510565e-01	0.000000e+00	-3.090170e-01
9.442611e-01	0.000000e+00	-3.078203e-01
9.267277e-01	0.000000e+00	-3.047010e-01
8.963175e-01	0.000000e+00	-2.991555e-01
8.562911e-01	0.000000e+00	-2.916579e-01
8.054250e-01	0.000000e+00	-2.817457e-01
7.470317e-01	0.000000e+00	-2.699633e-01
6.809074e-01	0.000000e+00	-2.559818e-01
6.100852e-01	0.000000e+00	-2.403847e-01
5.354138e-01	0.000000e+00	-2.229691e-01
4.593635e-01	0.000000e+00	-2.042585e-01
3.837764e-01	0.000000e+00	-1.841224e-01
3.103069e-01	0.000000e+00	-1.630077e-01
2.415927e-01	0.000000e+00	-1.409228e-01
1.782654e-01	0.000000e+00	-1.183331e-01
1.234349e-01	0.000000e+00	-9.558566e-02
7.662509e-02	0.000000e+00	-7.318920e-02
4.106998e-02	0.000000e+00	-5.193053e-02
1.528206e-02	0.000000e+00	-3.215886e-02
2.347037e-03	0.000000e+00	-1.488740e-02
0.000000e+00	0.000000e+00	0.000000e+00
1.064939e-02	0.000000e+00	1.066461e-02
3.126595e-02	0.000000e+00	1.703450e-02
6.375031e-02	0.000000e+00	1.787236e-02
1.050105e-01	0.000000e+00	1.417221e-02
1.560448e-01	0.000000e+00	4.777214e-03
2.137742e-01	0.000000e+00	-9.048270e-03
2.782849e-01	0.000000e+00	-2.799567e-02
3.468570e-01	0.000000e+00	-5.051783e-02
4.187060e-01	0.000000e+00	-7.662000e-02
4.916930e-01	0.000000e+00	-1.047585e-01
5.642168e-01	0.000000e+00	-1.343226e-01
6.348639e-01	0.000000e+00	-1.641238e-01
7.013280e-01	0.000000e+00	-1.931337e-01
7.630418e-01	0.000000e+00	-2.206893e-01
8.172084e-01	0.000000e+00	-2.454799e-01
8.641863e-01	0.000000e+00	-2.673591e-01
9.009752e-01	0.000000e+00	-2.848204e-01
9.288372e-01	0.000000e+00	-2.982085e-01
9.448555e-01	0.000000e+00	-3.059908e-01
9.510565e-01	0.000000e+00	-3.090170e-01
9.510565e-01	1.052632e+00	-3.090170e-01
9.442611e-01	1.052632e+00	-3.078203e-01
9.267277e-01	1.052632e+00	-3.047010e-01
8.963175e-01	1.052632e+00	-2.991555e-01
8.562911e-01	1.052632e+00	-2.916579e-01
8.054250e-01	1.052632e+00	-2.817457e-01
7.470317e-01	1.052632e+00	-2.699633e-01
6.809074e-01	1.052632e+00	-2.559818e-01
6.100852e-01	1.052632e+00	-2.403847e-01
5.354138e-01	1.052632e+00	-2.229691e-01
4.593635e-01	1.052632e+00	-2.042585e-01
3.837764e-01	1.052632e+00	-1.841224e-01
3.103069e-01	1.052632e+00	-1.630077e-01
2.415927e-01	1.052632e+00	-1.409228e-01
1.782654e-01	1.052632e+00	-1.183331e-01
1.234349e-01	1.052632e+00	-9.558566e-02
7.662509e-02	1.052632e+00	-7.318920e-02
4.106998e-02	1.052632e+00	-5.193053e-02
1.528206e-02	1.052632e+00	-3.215886e-02
2.347037e-03	1.052632e+00	-1.488740e-02
0.000000e+00	1.052632e+00	0.000000e+00
1.064939e-02	1.052632e+00	1.066461e-02
3.126595e-02	1.052632e+00	1.703450e-02
6.375031e-02	1.052632e+00	1.787236e-02
1.050105e-01	1.052632e+00	1.417221e-02
1.560448e-01	1.052632e+00	4.777214e-03
2.137742e-01	1.052632e+00	-9.048270e-03
2.782849e-01	1.052632e+00	-2.799567e-02
3.468570e-01	1.052632e+00	-5.051783e-02
4.187060e-01	1.052632e+00	-7.662000e-02
4.916930e-01	1.052632e+00	-1.047585e-01
5.642168e-01	1.052632e+00	-1.343226e-01
6.348639e-01	1.052632e+00	-1.641238e-01
7.013280e-01	1.052632e+00	-1.931337e-01
7.630418e-01	1.052632e+00	-2.206893e-01
8.172084e-01	1.052632e+00	-2.454799e-01
8.641863e-01	1.052632e+00	-2.673591e-01
9.009752e-01	1.052632e+00	-2.848204e-01
9.288372e-01	1.052632e+00	-2.982085e-01
9.448555e-01	1.052632e+00	-3.059908e-01
9.510565e-01	1.052632e+00	-3.090170e-01
9.510565e-01	2.105263e+00	-3.090170e-01
9.442611e-01	2.105263e+00	-3.078203e-01
9.267277e-01	2.105263e+00	-3.047010e-01
8.963175e-01	2.105263e+00	-2.991555e-01
8.562911e-01	2.105263e+00	-2.916579e-01
8.054250e-01	2.105263e+00	-2.817457e-01
7.470317e-01	2.105263e+00	-2.699633e-01
6.809074e-01	2.105263e+00	-2.559818e-01
6.100852e-01	2.105263e+00	-2.403847e-01
5.354138e-01	2.105263e+00	-2.229691e-01
4.593635e-01	2.105263e+00	-2.042585e-01
3.837764e-01	2.105263e+00	-1.841224e-01
3.103069e-01	2.105263e+00	-1.630077e-01
2.415927e-01	2.105263e+00	-1.409228e-01
1.782654e-01	2.105263e+00	-1.183331e-01
1.234349e-01	2.105263e+00	-9.558566e-02
7.662509e-02	2.105263e+00	-7.318920e-02
4.106998e-02	2.105263e+00	-5.193053e-02
1.528206e-02	2.105263e+00	-3.215886e-02
2.347037e-03	2.105263e+00	-1.488740e-02
0.000000e+00	2.105263e+00	0.000000e+00
1.064939e-02	2.105263e+00	1.066461e-02
3.126595e-02	2.105263e+00	1.703450e-02
6.375031e-02	2.105263e+00	1.787236e-02
1.050105e-01	2.105263e+00	1.417221e-02
1.560448e-01	2.105263e+00	4.777214e-03
2.137742e-01	2.105263e+00	-9.048270e-03
2.782849e-01	2.105263e+00	-2.799567e-02
3.468570e-01	2.105263e+00	-5.051783e-02
4.187060e-01	2.105263e+00	-7.662000e-02
4.916930e-01	2.105263e+00	-1.047585e-01
5.642168e-01	2.105263e+00	-1.343226e-01
6.348639e-01	2.105263e+00	-1.641238e-01
7.013280e-01	2.105263e+00	-1.931337e-01
7.630418e-01	2.105263e+00	-2.206893e-01
8.172084e-01	2.105263e+00	-2.454799e-01
8.641863e-01	2.105263e+00	-2.673591e-01
9.009752e-01	2.105263e+00	-2.848204e-01
9.288372e-01	2.105263e+00	-2.982085e-01
9.448555e-01	2.105263e+00	-3.059908e-01
9.510565e-01	2.105263e+00	-3.090170e-01
9.510565e-01	3.157895e+00	-3.090170e-01
9.442611e-01	3.157895e+00	-3.078203e-01
9.267277e-01	3.157895e+00	-3.047010e-01
8.963175e-01	3.157895e+00	-2.991555e-01
8.562911e-01	3.157895e+00	-2.916579e-01
8.054250e-01	3.157895e+00	-2.817457e-01
7.470317e-01	3.157895e+00	-2.699633e-01
6.809074e-01	3.157895e+00	-2.559818e-01
6.100852e-01	3.157895e+00	-2.403847e-01
5.354138e-01	3.157895e+00	-2.229691e-01
4.593635e-01	3.157895e+00	-2.042585e-01
3.837764e-01	3.157895e+00	-1.841224e-01
3.103069e-01	3.157895e+00	-1.630077e-01
2.415927e-01	3.157895e+00	-1.409228e-01
1.782654e-01	3.157895e+00	-1.183331e-01
1.234349e-01	3.157895e+00	-9.558566e-02
7.662509e-02	3.157895e+00	-7.318920e-02
4.106998e-02	3.157895e+00	-5.193053e-02
1.528206e-02	3.157895e+00	-3.215886e-02
2.347037e-03	3.157895e+00	-1.488740e-02
0.000000e+00	3.157895e+00	0.000000e+00
1.064939e-02	3.157895e+00	1.066461e-02
3.126595e-02	3.157895e+00	1.703450e-02
6.375031e-02	3.157895e+00	1.787236e-02
1.050105e-01	3.157895e+00	1.417221e-02
1.560448e-01	3.157895e+00	4.777214e-03
2.137742e-01	3.157895e+00	-9.048270e-03
2.782849e-01	3.157895e+00	-2.799567e-02
3.468570e-01	3.157895e+00	-5.051783e-02
4.187060e-01	3.157895e+00	-7.662000e-02
4.916930e-01	3.157895e+00	-1.047585e-01
5.642168e-01	3.157895e+00	-1.343226e-01
6.348639e-01	3.157895e+00	-1.641238e-01
7.013280e-01	3.157895e+00	-1.931337e-01
7.630418e-01	3.157895e+00	-2.206893e-01
8.172084e-01	3.157895e+00	-2.454799e-01
8.641863e-01	3.157895e+00	-2.673591e-01
9.009752e-01	3.157895e+00	-2.848204e-01
9.288372e-01	3.157895e+00	-2.982085e-01
9.448555e-01	3.157895e+00	-3.059908e-01
9.510565e-01	3.157895e+00	-3.090170e-01
9.510565e-01	4.210526e+00	-3.090170e-01
9.442611e-01	4.210526e+00	-3.078203e-01
9.267277e-01	4.210526e+00	-3.047010e-01
8.963175e-01	4.210526e+00	-2.991555e-01
8.562911e-01	4.210526e+00	-2.916579e-01
8.054250e-01	4.210526e+00	-2.817457e-01
7.470317e-01	4.210526e+00	-2.699633e-01
6.809074e-01	4.210526e+00	-2.559818e-01
6.100852e-01	4.210526e+00	-2.403847e-01
5.354138e-01	4.210526e+00	-2.229691e-01
4.593635e-01	4.210526e+00	-2.042585e-01
3.837764e-01	4.210526e+00	-1.841224e-01
3.103069e-01	4.210526e+00	-1.630077e-01
2.415927e-01	4.210526e+00	-1.409228e-01
1.782654e-01	4.210526e+00	-1.183331e-01
1.234349e-01	4.210526e+00	-9.558566e-02
7.662509e-02	4.210526e+00	-7.318920e-02
4.106998e-02	4.210526e+00	-5.193053e-02
1.528206e-02	4.210526e+00	-3.215886e-02
2.347037e-03	4.210526e+00	-1.488740e-02
0.000000e+00	4.210526e+00	0.000000e+00
1.064939e-02	4.210526e+00	1.066461e-02
3.126595e-02	4.210526e+00	1.703450e-02
6.375031e-02	4.210526e+00	1.787236e-02
1.050105e-01	4.210526e+00	1.417221e-02
1.560448e-01	4.210526e+00	4.777214e-03
2.137742e-01	4.210526e+00	-9.048270e-03
2.782849e-01	4.210526e+00	-2.799567e-02
3.468570e-01	4.210526e+00	-5.051783e-02
4.187060e-01	4.210526e+00	-7.662000e-02
4.916930e-01	4.210526e+00	-1.047585e-01
5.642168e-01	4.210526e+00	-1.343226e-01
6.348639e-01	4.210526e+00	-1.641238e-01
7.013280e-01	4.210526e+00	-1.931337e-01
7.630418e-01	4.210526e+00	-2.206893e-01
8.172084e-01	4.210526e+00	-2.454799e-01
8.641863e-01	4.210526e+00	-2.673591e-01
9.009752e-01	4.210526e+00	-2.848204e-01
9.288372e-01	4.210526e+00	-2.982085e-01
9.448555e-01	4.210526e+00	-3.059908e-01
9.510565e-01	4.210526e+00	-3.090170e-01
9.510565e-01	5.263158e+00	-3.090170e-01
9.442611e-01	5.263158e+00	-3.078203e-01
9.267277e-01	5.263158e+00	-3.047010e-01
8.963175e-01	5.263158e+00	-2.991555e-01
8.562911e-01	5.263158e+00	-2.916579e-01
8.054250e-01	5.263158e+00	-2.817457e-01
7.470317e-01	5.263158e+00	-2.699633e-01
6.809074e-01	5.263158e+00	-2.559818e-01
6.100852e-01	5.263158e+00	-2.403847e-01
5.354138e-01	5.263158e+00	-2.229691e-01
4.593635e-01	5.263158e+00	-2.042585e-01
3.837764e-01	5.263158e+00	-1.841224e-01
3.103069e-01	5.263158e+00	-1.630077e-01
2.415927e-01	5.263158e+00	-1.409228e-01
1.782654e-01	5.263158e+00	-1.183331e-01
1.234349e-01	5.263158e+00	-9.558566e-02
7.662509e-02	5.263158e+00	-7.318920e-02
4.106998e-02	5.263158e+00	-5.193053e-02
1.528206e-02	5.263158e+00	-3.215886e-02
2.347037e-03	5.263158e+00	-1.488740e-02
0.000000e+00	5.263158e+00	0.000000e+00
1.064939e-02	5.263158e+00	1.066461e-02
3.126595e-02	5.263158e+00	1.703450e-02
6.375031e-02	5.263158e+00	1.787236e-02
1.050105e-01	5.263158e+00	1.417221e-02
1.560448e-01	5.263158e+00	4.777214e-03
2.137742e-01	5.263158e+00	-9.048270e-03
2.782849e-01	5.263158e+00	-2.799567e-02
3.468570e-01	5.263158e+00	-5.051783e-02
4.187060e-01	5.263158e+00	-7.662000e-02
4.916930e-01	5.263158e+00	-1.047585e-01
5.642168e-01	5.263158e+00	-1.343226e-01
6.348639e-01	5.263158e+00	-1.641238e-01
7.013280e-01	5.263158e+00	-1.931337e-01
7.630418e-01	5.263158e+00	-2.206893e-01
8.172084e-01	5.263158e+00	-2.454799e-01
8.641863e-01	5.263158e+00	-2.673591e-01
9.009752e-01	5.263158e+00	-2.848204e-01
9.288372e-01	5.263158e+00	-2.982085e-01
9.448555e-01	5.263158e+00	-3.059908e-01
9.510565e-01	5.263158e+00	-3.090170e-01
9.510565e-01	6.315789e+00	-3.090170e-01
9.442611e-01	6.315789e+00	-3.078203e-01
[...]
CELL_DATA 760
VECTORS V double
8.414222e-01	-6.903561e-02	-1.481714e-01
8.655429e-01	-6.886203e-02	-1.539854e-01
8.835574e-01	-6.841227e-02	-1.611251e-01
8.953227e-01	-6.761786e-02	-1.677077e-01
8.977869e-01	-6.645692e-02	-1.749507e-01
8.990985e-01	-6.491181e-02	-1.814169e-01
8.920599e-01	-6.297221e-02	-1.886195e-01
8.847486e-01	-6.061406e-02	-1.948474e-01
8.704134e-01	-5.780883e-02	-2.030067e-01
8.547723e-01	-5.452399e-02	-2.102986e-01
8.294662e-01	-5.073402e-02	-2.209670e-01
7.985429e-01	-4.642470e-02	-2.294963e-01
7.511920e-01	-4.162901e-02	-2.414343e-01
6.891654e-01	-3.639813e-02	-2.458347e-01
6.025118e-01	-3.077000e-02	-2.499631e-01
4.718307e-01	-2.486745e-02	-2.257505e-01
2.701149e-01	-1.869849e-02	-1.615037e-01
-1.746568e-02	-1.242916e-02	1.339098e-02
-4.218599e-01	-5.860916e-03	5.632875e-01
-3.427185e-01	7.201180e-04	2.173884e+00
2.327163e+00	8.433803e-03	2.330489e+00
2.541813e+00	1.519905e-02	7.853429e-01
2.210636e+00	2.214572e-02	5.701832e-02
1.925586e+00	2.899355e-02	-1.726834e-01
1.720229e+00	3.598353e-02	-3.166805e-01
1.570439e+00	4.295058e-02	-3.761008e-01
1.435580e+00	4.988903e-02	-4.216431e-01
1.336758e+00	5.662040e-02	-4.390517e-01
1.250657e+00	6.302651e-02	-4.543535e-01
1.181712e+00	6.890954e-02	-4.555826e-01
1.121880e+00	7.415396e-02	-4.573307e-01
1.071621e+00	7.862267e-02	-4.520441e-01
1.027480e+00	8.225341e-02	-4.484692e-01
9.872040e-01	8.503851e-02	-4.407932e-01
9.499819e-01	8.702930e-02	-4.347800e-01
9.115292e-01	8.832371e-02	-4.245308e-01
8.743615e-01	8.905004e-02	-4.150010e-01
8.341867e-01	8.935737e-02	-4.008419e-01
7.910580e-01	8.940134e-02	-3.843265e-01
7.483067e-01	8.935567e-02	-3.651808e-01
8.268565e-01	-4.834490e-02	-1.456064e-01
8.473441e-01	-4.822060e-02	-1.507477e-01
8.618064e-01	-4.790207e-02	-1.571586e-01
8.704922e-01	-4.733825e-02	-1.630566e-01
8.702432e-01	-4.650650e-02	-1.695833e-01
8.688586e-01	-4.538800e-02	-1.753152e-01
8.588591e-01	-4.397208e-02	-1.815994e-01
8.479890e-01	-4.224373e-02	-1.867518e-01
8.293180e-01	-4.018811e-02	-1.934220e-01
8.083289e-01	-3.779008e-02	-1.988722e-01
7.765399e-01	-3.501985e-02	-2.068676e-01
7.378785e-01	-3.192789e-02	-2.120617e-01
6.815722e-01	-2.849154e-02	-2.190584e-01
6.085177e-01	-2.476591e-02	-2.170666e-01
5.087144e-01	-2.077693e-02	-2.110495e-01
3.607088e-01	-1.660769e-02	-1.725835e-01
1.372948e-01	-1.225996e-02	-8.208961e-02
-1.815973e-01	-7.847158e-03	1.392312e-01
-6.033036e-01	-3.229427e-03	8.055598e-01
-4.198897e-01	1.390315e-03	2.663386e+00
2.682697e+00	6.790738e-03	2.686531e+00
2.844260e+00	1.150698e-02	8.787895e-01
2.433377e+00	1.632129e-02	6.276341e-02
2.097427e+00	2.103075e-02	-1.880938e-01
1.860556e+00	2.579407e-02	-3.425135e-01
1.689702e+00	3.049160e-02	-4.046629e-01
1.539108e+00	3.511754e-02	-4.520501e-01
1.427845e+00	3.955375e-02	-4.689685e-01
1.330748e+00	4.372840e-02	-4.834498e-01
1.251928e+00	4.753383e-02	-4.826527e-01
1.182689e+00	5.085970e-02	-4.821192e-01
1.123354e+00	5.367727e-02	-4.738669e-01
1.070406e+00	5.593675e-02	-4.672054e-01
1.021752e+00	5.764263e-02	-4.562191e-01
9.765983e-01	5.883611e-02	-4.469616e-01
9.307663e-01	5.958804e-02	-4.334902e-01
8.867531e-01	5.998682e-02	-4.208824e-01
8.402947e-01	6.013325e-02	-4.037769e-01
7.917013e-01	6.012962e-02	-3.846391e-01
7.448098e-01	6.008632e-02	-3.634743e-01
8.205603e-01	-2.041132e-02	-1.444977e-01
8.397184e-01	-2.035948e-02	-1.493911e-01
8.527007e-01	-2.022910e-02	-1.554981e-01
8.598587e-01	-1.999306e-02	-1.610647e-01
8.580672e-01	-1.963442e-02	-1.672105e-01
8.550997e-01	-1.913653e-02	-1.725389e-01
8.434753e-01	-1.848961e-02	-1.783466e-01
8.308705e-01	-1.768837e-02	-1.829818e-01
8.103097e-01	-1.670564e-02	-1.889887e-01
7.869169e-01	-1.558533e-02	-1.936042e-01
7.528468e-01	-1.431317e-02	-2.005559e-01
7.115487e-01	-1.290396e-02	-2.044947e-01
6.517235e-01	-1.134771e-02	-2.094650e-01
5.745622e-01	-9.680624e-03	-2.049542e-01
4.697695e-01	-7.912781e-03	-1.948925e-01
3.150126e-01	-6.076640e-03	-1.507199e-01
8.300543e-02	-4.168937e-03	-4.962956e-02
-2.484030e-01	-2.237592e-03	1.904513e-01
-6.768305e-01	-2.217486e-04	9.037364e-01
-4.509334e-01	1.786668e-03	2.860298e+00
2.823811e+00	4.115936e-03	2.827846e+00
2.961995e+00	6.124050e-03	9.151662e-01
2.518008e+00	8.137663e-03	6.494628e-02
2.160731e+00	1.006163e-02	-1.937708e-01
1.910383e+00	1.195220e-02	-3.516861e-01
1.730310e+00	1.375581e-02	-4.143880e-01
1.572805e+00	1.546787e-02	-4.619473e-01
1.456140e+00	1.704774e-02	-4.782621e-01
1.354665e+00	1.847793e-02	-4.921387e-01
1.271706e+00	1.974401e-02	-4.902777e-01
1.198803e+00	2.080929e-02	-4.886879e-01
1.136486e+00	2.166962e-02	-4.794062e-01
1.080554e+00	2.230664e-02	-4.716350e-01
1.029172e+00	2.277823e-02	-4.595321e-01
9.815359e-01	2.308030e-02	-4.492213e-01
9.334892e-01	2.324494e-02	-4.347584e-01
8.875244e-01	2.330740e-02	-4.212485e-01
8.394014e-01	2.330515e-02	-4.033477e-01
7.894759e-01	2.327468e-02	-3.835579e-01
7.416750e-01	2.324788e-02	-3.619444e-01
8.181564e-01	-1.021987e-02	-1.440743e-01
8.367413e-01	-1.019883e-02	-1.488614e-01
8.489682e-01	-1.014253e-02	-1.548174e-01
8.553536e-01	-1.003671e-02	-1.602209e-01
8.527739e-01	-9.871513e-03	-1.661790e-01
8.489675e-01	-9.623601e-03	-1.713016e-01
8.364747e-01	-9.310895e-03	-1.768664e-01
8.225756e-01	-8.913403e-03	-1.811551e-01
8.009429e-01	-8.440042e-03	-1.868041e-01
7.769189e-01	-7.876120e-03	-1.911444e-01
7.414933e-01	-7.236692e-03	-1.975313e-01
6.983593e-01	-6.499077e-03	-2.007042e-01
6.367966e-01	-5.693519e-03	-2.046675e-01
5.574788e-01	-4.817285e-03	-1.988603e-01
4.500621e-01	-3.882431e-03	-1.867165e-01
2.917643e-01	-2.906397e-03	-1.395966e-01
5.528746e-02	-1.892542e-03	-3.305678e-02
-2.825595e-01	-8.589901e-04	2.166392e-01
-7.144272e-01	2.207526e-04	9.539373e-01
-4.667684e-01	1.295452e-03	2.960740e+00
2.895386e+00	2.537632e-03	2.899523e+00
3.021246e+00	3.602414e-03	9.334729e-01
2.560219e+00	4.662080e-03	6.603501e-02
2.191957e+00	5.665509e-03	-1.965711e-01
1.934696e+00	6.645330e-03	-3.561621e-01
1.749915e+00	7.565558e-03	-4.190830e-01
1.588910e+00	8.430065e-03	-4.666775e-01
1.469551e+00	9.227196e-03	-4.826667e-01
1.365879e+00	9.935980e-03	-4.962128e-01
1.281345e+00	1.055513e-02	-4.939939e-01
1.206802e+00	1.109370e-02	-4.919490e-01
1.142499e+00	1.152511e-02	-4.819427e-01
1.085249e+00	1.186325e-02	-4.736839e-01
1.032973e+00	1.210146e-02	-4.612295e-01
9.842013e-01	1.226157e-02	-4.504412e-01
9.351559e-01	1.234257e-02	-4.355346e-01
8.883138e-01	1.238654e-02	-4.216232e-01
8.394626e-01	1.239674e-02	-4.033771e-01
7.889771e-01	1.238991e-02	-3.833155e-01
7.407055e-01	1.238125e-02	-3.614713e-01
8.170287e-01	-5.652038e-03	-1.438758e-01
8.351863e-01	-5.640917e-03	-1.485848e-01
8.470032e-01	-5.609412e-03	-1.544591e-01
8.529484e-01	-5.550036e-03	-1.597703e-01
8.496127e-01	-5.453848e-03	-1.655630e-01
8.453682e-01	-5.313557e-03	-1.705753e-01
8.324909e-01	-5.142206e-03	-1.760240e-01
8.184706e-01	-4.922501e-03	-1.802510e-01
7.963083e-01	-4.657584e-03	-1.857232e-01
7.711185e-01	-4.321792e-03	-1.897174e-01
7.348505e-01	-3.930845e-03	-1.957617e-01
6.909812e-01	-3.494562e-03	-1.985838e-01
6.283673e-01	-3.023043e-03	-2.019583e-01
5.476556e-01	-2.602697e-03	-1.953562e-01
4.386764e-01	-2.059383e-03	-1.819930e-01
2.783676e-01	-1.451798e-03	-1.331868e-01
3.928759e-02	-8.423910e-04	-2.349034e-02
-3.024534e-01	-2.228184e-04	2.318919e-01
-7.363280e-01	4.249643e-04	9.831804e-01
-4.759801e-01	1.069606e-03	3.019171e+00
2.936878e+00	1.812818e-03	2.941075e+00
3.055415e+00	2.447562e-03	9.440300e-01
2.584419e+00	3.075951e-03	6.665919e-02
2.209861e+00	3.666711e-03	-1.981767e-01
1.948489e+00	4.236314e-03	-3.587013e-01
1.760867e+00	4.759570e-03	-4.217059e-01
1.597943e+00	5.245293e-03	-4.693305e-01
1.477000e+00	5.789137e-03	-4.851133e-01
1.371965e+00	6.193460e-03	-4.984238e-01
1.286315e+00	6.531879e-03	-4.959101e-01
1.210949e+00	6.812802e-03	-4.936395e-01
1.146320e+00	7.042262e-03	-4.835546e-01
1.088277e+00	7.239766e-03	-4.750056e-01
1.034943e+00	7.382182e-03	-4.621089e-01
9.854724e-01	7.480321e-03	-4.510230e-01
9.358718e-01	7.528796e-03	-4.358681e-01
8.888576e-01	7.552134e-03	-4.218813e-01
8.396028e-01	7.558559e-03	-4.034444e-01
7.887819e-01	7.554715e-03	-3.832207e-01
7.403477e-01	7.550456e-03	-3.612968e-01
8.162902e-01	-3.263269e-03	-1.437457e-01
8.342273e-01	-3.270246e-03	-1.484142e-01
8.457736e-01	-3.250989e-03	-1.542348e-01
8.513785e-01	-3.214522e-03	-1.594763e-01
8.479403e-01	-3.152853e-03	-1.652371e-01
8.435635e-01	-3.100293e-03	-1.702112e-01
8.304251e-01	-2.983206e-03	-1.755872e-01
8.156739e-01	-2.839373e-03	-1.796351e-01
7.928298e-01	-2.655230e-03	-1.849119e-01
7.673772e-01	-2.422952e-03	-1.887969e-01
7.306813e-01	-2.183610e-03	-1.946511e-01
6.862588e-01	-1.957965e-03	-1.972266e-01
6.243713e-01	-1.643923e-03	-2.006739e-01
5.432280e-01	-1.425826e-03	-1.937768e-01
4.313766e-01	-1.061387e-03	-1.789645e-01
2.693180e-01	-6.837343e-04	-1.288570e-01
2.904121e-02	-2.880146e-04	-1.736396e-02
-3.149718e-01	1.069582e-04	2.414898e-01
-7.501197e-01	5.190632e-04	1.001596e+00
-4.817751e-01	9.283597e-04	3.055929e+00
2.962899e+00	1.399437e-03	2.967133e+00
3.076760e+00	1.800569e-03	9.506252e-01
2.599440e+00	2.196304e-03	6.704664e-02
2.220681e+00	2.566181e-03	-1.991470e-01
1.956593e+00	2.916068e-03	-3.601931e-01
1.767183e+00	3.242564e-03	-4.232185e-01
1.604559e+00	3.656144e-03	-4.712737e-01
1.482647e+00	3.905813e-03	-4.869681e-01
1.375551e+00	4.156143e-03	-4.997266e-01
1.289160e+00	4.374875e-03	-4.970067e-01
1.213193e+00	4.539913e-03	-4.945543e-01
1.147950e+00	4.645578e-03	-4.842423e-01
1.089802e+00	4.740133e-03	-4.756711e-01
1.036457e+00	4.815068e-03	-4.627848e-01
9.865967e-01	4.861090e-03	-4.515375e-01
9.365317e-01	4.922610e-03	-4.361754e-01
8.890415e-01	4.931701e-03	-4.219685e-01
8.396007e-01	4.933543e-03	-4.034434e-01
7.886059e-01	4.930206e-03	-3.831352e-01
7.400532e-01	4.941100e-03	-3.611530e-01
8.181997e-01	-2.031951e-03	-1.440820e-01
8.341225e-01	-2.027918e-03	-1.483955e-01
8.450437e-01	-2.017736e-03	-1.541017e-01
8.504345e-01	-1.999136e-03	-1.592994e-01
8.473344e-01	-1.969014e-03	-1.651190e-01
8.423723e-01	-2.012972e-03	-1.699708e-01
8.284587e-01	-1.890746e-03	-1.751715e-01
8.137953e-01	-1.785959e-03	-1.792214e-01
7.906844e-01	-1.686972e-03	-1.844115e-01
7.649283e-01	-1.545906e-03	-1.881944e-01
7.287700e-01	-1.390149e-03	-1.941419e-01
6.838055e-01	-1.220555e-03	-1.965215e-01
6.209246e-01	-1.022460e-03	-1.995662e-01
5.390928e-01	-7.442678e-04	-1.923017e-01
4.265985e-01	-5.084268e-04	-1.769822e-01
2.641309e-01	-3.004920e-04	-1.263752e-01
2.238334e-02	-5.642178e-05	-1.338317e-02
-3.230976e-01	1.664832e-04	2.477199e-01
-7.590170e-01	4.281018e-04	1.013476e+00
-4.855010e-01	6.873435e-04	3.079562e+00
2.979601e+00	9.846851e-04	2.983859e+00
3.090424e+00	1.235959e-03	9.548469e-01
2.609038e+00	1.508276e-03	6.729418e-02
2.227658e+00	1.737732e-03	-1.997727e-01
1.962051e+00	1.958240e-03	-3.611978e-01
1.773660e+00	2.172013e-03	-4.247697e-01
1.607876e+00	2.398439e-03	-4.722480e-01
1.483939e+00	2.470891e-03	-4.873924e-01
1.378076e+00	2.614791e-03	-5.006438e-01
1.291156e+00	2.750502e-03	-4.977764e-01
1.214341e+00	2.862803e-03	-4.950222e-01
1.148875e+00	2.952797e-03	-4.846325e-01
1.090544e+00	3.050986e-03	-4.759950e-01
1.036699e+00	3.116202e-03	-4.628930e-01
9.871745e-01	3.236728e-03	-4.518020e-01
9.372721e-01	3.228174e-03	-4.365202e-01
8.891279e-01	3.222197e-03	-4.220096e-01
8.395873e-01	3.219232e-03	-4.034370e-01
7.889172e-01	3.215980e-03	-3.832864e-01
7.420160e-01	3.213690e-03	-3.621109e-01
8.156133e-01	-1.153608e-03	-1.436265e-01
8.333998e-01	-1.136717e-03	-1.482670e-01
8.447644e-01	-1.128265e-03	-1.540508e-01
8.501336e-01	-1.137283e-03	-1.592431e-01
8.483559e-01	-1.117076e-03	-1.653181e-01
8.420260e-01	-1.065531e-03	-1.699010e-01
8.269472e-01	-1.024086e-03	-1.748519e-01
8.127829e-01	-9.952188e-04	-1.789984e-01
7.895841e-01	-1.001817e-03	-1.841549e-01
7.634806e-01	-9.211557e-04	-1.878382e-01
7.264287e-01	-8.175347e-04	-1.935182e-01
6.813616e-01	-6.618523e-04	-1.958191e-01
6.177835e-01	-5.811850e-04	-1.985566e-01
5.355488e-01	-3.458985e-04	-1.910376e-01
4.241163e-01	-2.550186e-04	-1.759525e-01
2.610389e-01	-1.259419e-04	-1.248958e-01
1.900624e-02	1.219685e-05	-1.136397e-02
-3.272483e-01	1.551367e-04	2.509022e-01
-7.645104e-01	3.055243e-04	1.020811e+00
-4.877962e-01	4.553827e-04	3.094121e+00
2.989753e+00	6.278639e-04	2.994026e+00
3.099985e+00	7.744008e-04	9.578010e-01
2.615441e+00	9.184545e-04	6.745934e-02
2.231817e+00	1.052971e-03	-2.001457e-01
1.965315e+00	1.181229e-03	-3.617987e-01
1.774749e+00	1.301715e-03	-4.250305e-01
1.608976e+00	1.329008e-03	-4.725711e-01
1.485681e+00	1.440062e-03	-4.879647e-01
1.379197e+00	1.547295e-03	-5.010510e-01
1.292289e+00	1.607959e-03	-4.982131e-01
1.215727e+00	1.676242e-03	-4.955870e-01
1.150347e+00	1.821891e-03	-4.852535e-01
1.091993e+00	1.842621e-03	-4.766276e-01
1.039084e+00	1.884474e-03	-4.639579e-01
9.885223e-01	1.896363e-03	-4.524188e-01
9.362576e-01	1.881563e-03	-4.360477e-01
8.888289e-01	1.884559e-03	-4.218676e-01
8.394132e-01	1.906270e-03	-4.033533e-01
7.883330e-01	1.903074e-03	-3.830026e-01
7.397025e-01	1.887471e-03	-3.609819e-01
8.153650e-01	-1.386691e-03	-1.435828e-01
8.329707e-01	-1.386746e-03	-1.481906e-01
8.451729e-01	-1.387393e-03	-1.541253e-01
8.500646e-01	-1.369458e-03	-1.592301e-01
8.458344e-01	-1.327674e-03	-1.648268e-01
8.407819e-01	-1.249766e-03	-1.696499e-01
8.273868e-01	-1.152552e-03	-1.749448e-01
8.134949e-01	-1.214848e-03	-1.791552e-01
7.896640e-01	-9.943289e-04	-1.841735e-01
7.625082e-01	-1.042308e-03	-1.875990e-01
7.253838e-01	-6.841076e-04	-1.932398e-01
6.806327e-01	-7.703493e-04	-1.956096e-01
6.165995e-01	-3.331820e-04	-1.981761e-01
5.341356e-01	-3.952215e-04	-1.905334e-01
4.230547e-01	6.587314e-05	-1.755120e-01
2.592165e-01	4.073765e-04	-1.240238e-01
1.638674e-02	6.047651e-04	-9.797756e-03
-3.305956e-01	6.545501e-04	2.534686e-01
-7.673077e-01	7.029938e-04	1.024546e+00
-4.889869e-01	7.646745e-04	3.101674e+00
2.995224e+00	8.467468e-04	2.999504e+00
3.103187e+00	9.267681e-04	9.587900e-01
2.617995e+00	9.943447e-04	6.752521e-02
2.234158e+00	1.107574e-03	-2.003557e-01
1.967039e+00	1.043809e-03	-3.621162e-01
1.776092e+00	8.626948e-04	-4.253521e-01
1.610035e+00	4.842185e-04	-4.728820e-01
1.486966e+00	6.472285e-04	-4.883868e-01
1.380254e+00	3.318211e-04	-5.014351e-01
1.292785e+00	4.631519e-04	-4.984042e-01
1.217014e+00	1.698117e-04	-4.961117e-01
1.151027e+00	3.217067e-04	-4.855401e-01
1.091369e+00	6.354571e-05	-4.763552e-01
1.037491e+00	1.199765e-04	-4.632467e-01
9.871562e-01	-9.736537e-05	-4.517936e-01
9.370226e-01	-3.943818e-05	-4.364040e-01
8.896369e-01	-5.389813e-05	-4.222511e-01
8.402950e-01	-5.995324e-05	-4.037771e-01
7.882303e-01	-5.492509e-05	-3.829527e-01
7.396265e-01	-5.385791e-05	-3.609448e-01
8.156225e-01	-2.070823e-04	-1.436281e-01
8.334455e-01	-2.351886e-04	-1.482751e-01
8.440727e-01	-1.807142e-04	-1.539247e-01
8.485769e-01	-1.278550e-04	-1.589515e-01
8.458838e-01	-1.051759e-04	-1.648364e-01
8.389872e-01	-8.489251e-05	-1.692878e-01
8.265291e-01	-6.788679e-05	-1.747635e-01
8.104100e-01	-5.114422e-05	-1.784758e-01
7.873280e-01	4.979469e-06	-1.836287e-01
7.593827e-01	4.828760e-06	-1.868300e-01
7.228379e-01	6.412563e-06	-1.925616e-01
6.768200e-01	-1.820889e-05	-1.945139e-01
6.123449e-01	-3.765943e-05	-1.968086e-01
5.299872e-01	-2.717258e-05	-1.890537e-01
4.109130e-01	1.085349e-05	-1.704748e-01
2.508636e-01	-1.622038e-05	-1.200274e-01
1.335570e-02	-7.477763e-06	-7.985472e-03
-3.297750e-01	2.971967e-08	2.528394e-01
-7.674754e-01	6.102320e-06	1.024770e+00
-4.893310e-01	1.103854e-05	3.103856e+00
2.997789e+00	1.608078e-05	3.002073e+00
3.106367e+00	2.016765e-05	9.597727e-01
2.621524e+00	2.411454e-05	6.761622e-02
2.232534e+00	2.744774e-05	-2.002099e-01
1.960182e+00	6.651159e-05	-3.608538e-01
1.764930e+00	6.960235e-05	-4.226791e-01
1.606107e+00	4.381720e-05	-4.717284e-01
1.483354e+00	1.053145e-04	-4.872004e-01
1.376912e+00	1.030932e-04	-5.002210e-01
1.290211e+00	1.032147e-04	-4.974121e-01
1.213929e+00	1.083559e-04	-4.948541e-01
1.149092e+00	7.974825e-05	-4.847240e-01
1.089173e+00	1.006817e-04	-4.753968e-01
1.036965e+00	1.198594e-04	-4.630118e-01
9.856842e-01	1.439210e-04	-4.511199e-01
9.371884e-01	1.696251e-04	-4.364812e-01
8.883367e-01	1.995876e-04	-4.216340e-01
8.393177e-01	2.108362e-04	-4.033075e-01
7.886774e-01	2.893598e-04	-3.831699e-01
7.398660e-01	2.788115e-04	-3.610616e-01
8.200819e-01	1.464294e-03	-1.444134e-01
8.302487e-01	1.464654e-03	-1.477064e-01
8.416182e-01	1.466345e-03	-1.534771e-01
8.482862e-01	1.450995e-03	-1.588970e-01
8.449756e-01	1.412857e-03	-1.646594e-01
8.401432e-01	1.426721e-03	-1.695211e-01
8.268680e-01	1.288802e-03	-1.748351e-01
8.124427e-01	1.351447e-03	-1.789235e-01
7.889241e-01	1.110246e-03	-1.840010e-01
7.624893e-01	1.135168e-03	-1.875943e-01
7.256830e-01	7.861091e-04	-1.933195e-01
6.812219e-01	7.990336e-04	-1.957790e-01
6.167375e-01	3.678155e-04	-1.982204e-01
5.334335e-01	4.580902e-04	-1.902830e-01
4.228078e-01	-3.716312e-05	-1.754096e-01
2.596129e-01	-3.782388e-04	-1.242135e-01
1.603630e-02	-5.760359e-04	-9.588223e-03
-3.309501e-01	-6.017517e-04	2.537404e-01
-7.676180e-01	-6.534298e-04	1.024960e+00
-4.890960e-01	-7.476484e-04	3.102366e+00
2.995669e+00	-8.349807e-04	2.999950e+00
3.103539e+00	-8.907989e-04	9.588989e-01
2.618227e+00	-9.886547e-04	6.753120e-02
2.235313e+00	-1.104532e-03	-2.004592e-01
1.967823e+00	-1.044478e-03	-3.622605e-01
1.775671e+00	-8.346019e-04	-4.252512e-01
1.610640e+00	-4.913672e-04	-4.730598e-01
1.487761e+00	-6.611865e-04	-4.886477e-01
1.380227e+00	-3.568446e-04	-5.014254e-01
1.292852e+00	-4.216347e-04	-4.984300e-01
1.216722e+00	-1.433627e-04	-4.959929e-01
1.150917e+00	-2.450404e-04	-4.854938e-01
1.091904e+00	-2.968724e-05	-4.765888e-01
1.038108e+00	-1.272370e-04	-4.635223e-01
9.879497e-01	-1.589543e-05	-4.521568e-01
9.380483e-01	-4.806186e-05	-4.368817e-01
8.906308e-01	-2.137831e-05	-4.227229e-01
8.426370e-01	-1.222595e-05	-4.049024e-01
7.927547e-01	-1.648688e-05	-3.851508e-01
7.380111e-01	-1.747584e-05	-3.601564e-01
8.155621e-01	1.522546e-03	-1.436175e-01
8.333186e-01	1.547808e-03	-1.482525e-01
8.446341e-01	1.484672e-03	-1.540271e-01
8.499757e-01	1.447834e-03	-1.592135e-01
8.462750e-01	1.311804e-03	-1.649126e-01
8.412971e-01	1.266487e-03	-1.697539e-01
8.275372e-01	1.207581e-03	-1.749766e-01
8.130810e-01	1.132686e-03	-1.790641e-01
7.901741e-01	1.086813e-03	-1.842925e-01
7.636611e-01	9.891467e-04	-1.878826e-01
7.272612e-01	8.835065e-04	-1.937400e-01
6.822814e-01	7.978033e-04	-1.960835e-01
6.173180e-01	7.032698e-04	-1.984070e-01
5.355921e-01	5.412353e-04	-1.910530e-01
4.247023e-01	3.945049e-04	-1.761956e-01
2.610372e-01	2.764259e-04	-1.248950e-01
1.856128e-02	1.168631e-04	-1.109792e-02
-3.278956e-01	-4.426293e-05	2.513985e-01
-7.636885e-01	-2.109899e-04	1.019713e+00
-4.873299e-01	-3.757598e-04	3.091163e+00
2.990952e+00	-5.649054e-04	2.995226e+00
3.099228e+00	-7.257459e-04	9.575668e-01
2.614520e+00	-8.842292e-04	6.743558e-02
2.231656e+00	-1.032227e-03	-2.001312e-01
1.965876e+00	-1.209319e-03	-3.619021e-01
1.774567e+00	-1.339950e-03	-4.249869e-01
1.608360e+00	-1.462404e-03	-4.723900e-01
1.485431e+00	-1.607956e-03	-4.878826e-01
1.379941e+00	-1.708982e-03	-5.013213e-01
1.292933e+00	-1.791470e-03	-4.984612e-01
1.216162e+00	-1.864841e-03	-4.957647e-01
1.150464e+00	-1.964423e-03	-4.853029e-01
1.090874e+00	-2.013267e-03	-4.761391e-01
1.037018e+00	-2.049481e-03	-4.630353e-01
9.871009e-01	-2.091007e-03	-4.517683e-01
9.369857e-01	-2.134914e-03	-4.363868e-01
8.892047e-01	-2.080189e-03	-4.220460e-01
8.395442e-01	-2.123723e-03	-4.034163e-01
7.883829e-01	-2.200618e-03	-3.830269e-01
7.397145e-01	-2.189005e-03	-3.609877e-01
8.158424e-01	2.166504e-03	-1.436669e-01
8.336545e-01	2.162030e-03	-1.483123e-01
8.447724e-01	2.155059e-03	-1.540523e-01
8.528876e-01	2.055201e-03	-1.597589e-01
8.484511e-01	2.021902e-03	-1.653366e-01
8.419541e-01	1.983690e-03	-1.698865e-01
8.289375e-01	1.902218e-03	-1.752727e-01
8.141446e-01	1.804838e-03	-1.792983e-01
7.908717e-01	1.677477e-03	-1.844552e-01
7.651581e-01	1.559162e-03	-1.882509e-01
7.281863e-01	1.390676e-03	-1.939864e-01
6.836239e-01	1.286549e-03	-1.964693e-01
6.202754e-01	1.063061e-03	-1.993575e-01
5.380389e-01	8.518255e-04	-1.919258e-01