# vtk DataFile Version 2.0
OUTPUT by 3D-VPM
ASCII
DATASET UNSTRUCTURED_GRID
POINTS 820 double
9.510565e-01	0.000000e+00	-3.090170e-01
9.442611e-01	0.000000e+00	-3.078203e-01
9.267277e-01	0.000000e+00	-3.047010e-01
8.963175e-01	0.000000e+00	-2.991555e-01
8.562911e-01	0.000000e+00	-2.916579e-01
8.054250e-01	0.000000e+00	-2.817457e-01
7.470317e-01	0.000000e+00	-2.699633e-01
6.809074e-01	0.000000e+00	-2.559818e-01
6.100852e-01	0.000000e+00	-2.403847e-01
5.354138e-01	0.000000e+00	-2.229691e-01
4.593635e-01	0.000000e+00	-2.042585e-01
3.837764e-01	0.000000e+00	-1.841224e-01
3.103069e-01	0.000000e+00	-1.630077e-01
2.415927e-01	0.000000e+00	-1.409228e-01
1.782654e-01	0.000000e+00	-1.183331e-01
1.234349e-01	0.000000e+00	-9.558566e-02
7.662509e-02	0.000000e+00	-7.318920e-02
4.106998e-02	0.000000e+00	-5.193053e-02
1.528206e-02	0.000000e+00	-3.215886e-02
2.347037e-03	0.000000e+00	-1.488740e-02
0.000000e+00	0.000000e+00	0.000000e+00
1.064939e-02	0.000000e+00	1.066461e-02
3.126595e-02	0.000000e+00	1.703450e-02
6.375031e-02	0.000000e+00	1.787236e-02
1.050105e-01	0.000000e+00	1.417221e-02
1.560448e-01	0.000000e+00	4.777214e-03
2.137742e-01	0.000000e+00	-9.048270e-03
2.782849e-01	0.000000e+00	-2.799567e-02
3.468570e-01	0.000000e+00	-5.051783e-02
4.187060e-01	0.000000e+00	-7.662000e-02
4.916930e-01	0.000000e+00	-1.047585e-01
5.642168e-01	0.000000e+00	-1.343226e-01
6.348639e-01	0.000000e+00	-1.641238e-01
7.013280e-01	0.000000e+00	-1.931337e-01
7.630418e-01	0.000000e+00	-2.206893e-01
8.172084e-01	0.000000e+00	-2.454799e-01
8.641863e-01	0.000000e+00	-2.673591e-01
9.009752e-01	0.000000e+00	-2.848204e-01
9.288372e-01	0.000000e+00	-2.982085e-01
9.448555e-01	0.000000e+00	-3.059908e-01
9.510565e-01	0.000000e+00	-3.090170e-01
9.510565e-01	1.052632e+00	-3.090170e-01
9.442611e-01	1.052632e+00	-3.078203e-01
9.267277e-01	1.052632e+00	-3.047010e-01
8.963175e-01	1.052632e+00	-2.991555e-01
8.562911e-01	1.052632e+00	-2.916579e-01
8.054250e-01	1.052632e+00	-2.817457e-01
7.470317e-01	1.052632e+00	-2.699633e-01
6.809074e-01	1.052632e+00	-2.559818e-01
6.100852e-01	1.052632e+00	-2.403847e-01
5.354138e-01	1.052632e+00	-2.229691e-01
4.593635e-01	1.052632e+00	-2.042585e-01
3.837764e-01	1.052632e+00	-1.841224e-01
3.103069e-01	1.052632e+00	-1.630077e-01
2.415927e-01	1.052632e+00	-1.409228e-01
1.782654e-01	1.052632e+00	-1.183331e-01
1.234349e-01	1.052632e+00	-9.558566e-02
7.662509e-02	1.052632e+00	-7.318920e-02
4.106998e-02	1.052632e+00	-5.193053e-02
1.528206e-02	1.052632e+00	-3.215886e-02
2.347037e-03	1.052632e+00	-1.488740e-02
0.000000e+00	1.052632e+00	0.000000e+00
1.064939e-02	1.052632e+00	1.066461e-02
3.126595e-02	1.052632e+00	1.703450e-02
6.375031e-02	1.052632e+00	1.787236e-02
1.050105e-01	1.052632e+00	1.417221e-02
1.560448e-01	1.052632e+00	4.777214e-03
2.137742e-01	1.052632e+00	-9.048270e-03
2.782849e-01	1.052632e+00	-2.799567e-02
3.468570e-01	1.052632e+00	-5.051783e-02
4.187060e-01	1.052632e+00	-7.662000e-02
4.916930e-01	1.052632e+00	-1.047585e-01
5.642168e-01	1.052632e+00	-1.343226e-01
6.348639e-01	1.052632e+00	-1.641238e-01
7.013280e-01	1.052632e+00	-1.931337e-01
7.630418e-01	1.052632e+00	-2.206893e-01
8.172084e-01	1.052632e+00	-2.454799e-01
8.641863e-01	1.052632e+00	-2.673591e-01
9.009752e-01	1.052632e+00	-2.848204e-01
9.288372e-01	1.052632e+00	-2.982085e-01
9.448555e-01	1.052632e+00	-3.059908e-01
9.510565e-01	1.052632e+00	-3.090170e-01
9.510565e-01	2.105263e+00	-3.090170e-01
9.442611e-01	2.105263e+00	-3.078203e-01
9.267277e-01	2.105263e+00	-3.047010e-01
8.963175e-01	2.105263e+00	-2.991555e-01
8.562911e-01	2.105263e+00	-2.916579e-01
8.054250e-01	2.105263e+00	-2.817457e-01
7.470317e-01	2.105263e+00	-2.699633e-01
6.809074e-01	2.105263e+00	-2.559818e-01
6.100852e-01	2.105263e+00	-2.403847e-01
5.354138e-01	2.105263e+00	-2.229691e-01
4.593635e-01	2.105263e+00	-2.042585e-01
3.837764e-01	2.105263e+00	-1.841224e-01
3.103069e-01	2.105263e+00	-1.630077e-01
2.415927e-01	2.105263e+00	-1.409228e-01
1.782654e-01	2.105263e+00	-1.183331e-01
1.234349e-01	2.105263e+00	-9.558566e-02
7.662509e-02	2.105263e+00	-7.318920e-02
4.106998e-02	2.105263e+00	-5.193053e-02
1.528206e-02	2.105263e+00	-3.215886e-02
2.347037e-03	2.105263e+00	-1.488740e-02
0.000000e+00	2.105263e+00	0.000000e+00
1.064939e-02	2.105263e+00	1.066461e-02
3.126595e-02	2.105263e+00	1.703450e-02
6.375031e-02	2.105263e+00	1.787236e-02
1.050105e-01	2.105263e+00	1.417221e-02
1.560448e-01	2.105263e+00	4.777214e-03
2.137742e-01	2.105263e+00	-9.048270e-03
2.782849e-01	2.105263e+00	-2.799567e-02
3.468570e-01	2.105263e+00	-5.051783e-02
4.187060e-01	2.105263e+00	-7.662000e-02
4.916930e-01	2.105263e+00	-1.047585e-01
5.642168e-01	2.105263e+00	-1.343226e-01
6.348639e-01	2.105263e+00	-1.641238e-01
7.013280e-01	2.105263e+00	-1.931337e-01
7.630418e-01	2.105263e+00	-2.206893e-01
8.172084e-01	2.105263e+00	-2.454799e-01
8.641863e-01	2.105263e+00	-2.673591e-01
9.009752e-01	2.105263e+00	-2.848204e-01
9.288372e-01	2.105263e+00	-2.982085e-01
9.448555e-01	2.105263e+00	-3.059908e-01
9.510565e-01	2.105263e+00	-3.090170e-01
9.510565e-01	3.157895e+00	-3.090170e-01
9.442611e-01	3.157895e+00	-3.078203e-01
9.267277e-01	3.157895e+00	-3.047010e-01
8.963175e-01	3.157895e+00	-2.991555e-01
8.562911e-01	3.157895e+00	-2.916579e-01
8.054250e-01	3.157895e+00	-2.817457e-01
7.470317e-01	3.157895e+00	-2.699633e-01
6.809074e-01	3.157895e+00	-2.559818e-01
6.100852e-01	3.157895e+00	-2.403847e-01
5.354138e-01	3.157895e+00	-2.229691e-01
4.593635e-01	3.157895e+00	-2.042585e-01
3.837764e-01	3.157895e+00	-1.841224e-01
3.103069e-01	3.157895e+00	-1.630077e-01
2.415927e-01	3.157895e+00	-1.409228e-01
1.782654e-01	3.157895e+00	-1.183331e-01
1.234349e-01	3.157895e+00	-9.558566e-02
7.662509e-02	3.157895e+00	-7.318920e-02
4.106998e-02	3.157895e+00	-5.193053e-02
1.528206e-02	3.157895e+00	-3.215886e-02
2.347037e-03	3.157895e+00	-1.488740e-02
0.000000e+00	3.157895e+00	0.000000e+00
1.064939e-02	3.157895e+00	1.066461e-02
3.126595e-02	3.157895e+00	1.703450e-02
6.375031e-02	3.157895e+00	1.787236e-02
1.050105e-01	3.157895e+00	1.417221e-02
1.560448e-01	3.157895e+00	4.777214e-03
2.137742e-01	3.157895e+00	-9.048270e-03
2.782849e-01	3.157895e+00	-2.799567e-02
3.468570e-01	3.157895e+00	-5.051783e-02
4.187060e-01	3.157895e+00	-7.662000e-02
4.916930e-01	3.157895e+00	-1.047585e-01
5.642168e-01	3.157895e+00	-1.343226e-01
6.348639e-01	3.157895e+00	-1.641238e-01
7.013280e-01	3.157895e+00	-1.931337e-01
7.630418e-01	3.157895e+00	-2.206893e-01
8.172084e-01	3.157895e+00	-2.454799e-01
8.641863e-01	3.157895e+00	-2.673591e-01
9.009752e-01	3.157895e+00	-2.848204e-01
9.288372e-01	3.157895e+00	-2.982085e-01
9.448555e-01	3.157895e+00	-3.059908e-01
9.510565e-01	3.157895e+00	-3.090170e-01
9.510565e-01	4.210526e+00	-3.090170e-01
9.442611e-01	4.210526e+00	-3.078203e-01
9.267277e-01	4.210526e+00	-3.047010e-01
8.963175e-01	4.210526e+00	-2.991555e-01
8.562911e-01	4.210526e+00	-2.916579e-01
8.054250e-01	4.210526e+00	-2.817457e-01
7.470317e-01	4.210526e+00	-2.699633e-01
6.809074e-01	4.210526e+00	-2.559818e-01
6.100852e-01	4.210526e+00	-2.403847e-01
5.354138e-01	4.210526e+00	-2.229691e-01
4.593635e-01	4.210526e+00	-2.042585e-01
3.837764e-01	4.210526e+00	-1.841224e-01
3.103069e-01	4.210526e+00	-1.630077e-01
2.415927e-01	4.210526e+00	-1.409228e-01
1.782654e-01	4.210526e+00	-1.183331e-01
1.234349e-01	4.210526e+00	-9.558566e-02
7.662509e-02	4.210526e+00	-7.318920e-02
4.106998e-02	4.210526e+00	-5.193053e-02
1.528206e-02	4.210526e+00	-3.215886e-02
2.347037e-03	4.210526e+00	-1.488740e-02
0.000000e+00	4.210526e+00	0.000000e+00
1.064939e-02	4.210526e+00	1.066461e-02
3.126595e-02	4.210526e+00	1.703450e-02
6.375031e-02	4.210526e+00	1.787236e-02
1.050105e-01	4.210526e+00	1.417221e-02
1.560448e-01	4.210526e+00	4.777214e-03
2.137742e-01	4.210526e+00	-9.048270e-03
2.782849e-01	4.210526e+00	-2.799567e-02
3.468570e-01	4.210526e+00	-5.051783e-02
4.187060e-01	4.210526e+00	-7.662000e-02
4.916930e-01	4.210526e+00	-1.047585e-01
5.642168e-01	4.210526e+00	-1.343226e-01
6.348639e-01	4.210526e+00	-1.641238e-01
7.013280e-01	4.210526e+00	-1.931337e-01
7.630418e-01	4.210526e+00	-2.206893e-01
8.172084e-01	4.210526e+00	-2.454799e-01
8.641863e-01	4.210526e+00	-2.673591e-01
9.009752e-01	4.210526e+00	-2.848204e-01
9.288372e-01	4.210526e+00	-2.982085e-01
9.448555e-01	4.210526e+00	-3.059908e-01
9.510565e-01	4.210526e+00	-3.090170e-01
9.510565e-01	5.263158e+00	-3.090170e-01
9.442611e-01	5.263158e+00	-3.078203e-01
9.267277e-01	5.263158e+00	-3.047010e-01
8.963175e-01	5.263158e+00	-2.991555e-01
8.562911e-01	5.263158e+00	-2.916579e-01
8.054250e-01	5.263158e+00	-2.817457e-01
7.470317e-01	5.263158e+00	-2.699633e-01
6.809074e-01	5.263158e+00	-2.559818e-01
6.100852e-01	5.263158e+00	-2.403847e-01
5.354138e-01	5.263158e+00	-2.229691e-01
4.593635e-01	5.263158e+00	-2.042585e-01
3.837764e-01	5.263158e+00	-1.841224e-01
3.103069e-01	5.263158e+00	-1.630077e-01
2.415927e-01	5.263158e+00	-1.409228e-01
1.782654e-01	5.263158e+00	-1.183331e-01
1.234349e-01	5.263158e+00	-9.558566e-02
7.662509e-02	5.263158e+00	-7.318920e-02
4.106998e-02	5.263158e+00	-5.193053e-02
1.528206e-02	5.263158e+00	-3.215886e-02
2.347037e-03	5.263158e+00	-1.488740e-02
0.000000e+00	5.263158e+00	0.000000e+00
1.064939e-02	5.263158e+00	1.066461e-02
3.126595e-02	5.263158e+00	1.703450e-02
6.375031e-02	5.263158e+00	1.787236e-02
1.050105e-01	5.263158e+00	1.417221e-02
1.560448e-01	5.263158e+00	4.777214e-03
2.137742e-01	5.263158e+00	-9.048270e-03
2.782849e-01	5.263158e+00	-2.799567e-02
3.468570e-01	5.263158e+00	-5.051783e-02
4.187060e-01	5.263158e+00	-7.662000e-02
4.916930e-01	5.263158e+00	-1.047585e-01
5.642168e-01	5.263158e+00	-1.343226e-01
6.348639e-01	5.263158e+00	-1.641238e-01
7.013280e-01	5.263158e+00	-1.931337e-01
7.630418e-01	5.263158e+00	-2.206893e-01
8.172084e-01	5.263158e+00	-2.454799e-01
8.641863e-01	5.263158e+00	-2.673591e-01
9.009752e-01	5.263158e+00	-2.848204e-01
9.288372e-01	5.263158e+00	-2.982085e-01
9.448555e-01	5.263158e+00	-3.059908e-01
9.510565e-01	5.263158e+00	-3.090170e-01
9.510565e-01	6.315789e+00	-3.090170e-01
9.442611e-01	6.315789e+00	-3.078203e-01
[...]
CELL_DATA 760
VECTORS V double
8.550164e-01	-4.616470e-02	-1.505653e-01
8.826455e-01	-4.610943e-02	-1.570281e-01
9.043666e-01	-4.596013e-02	-1.649198e-01
9.195718e-01	-4.567970e-02	-1.722499e-01
9.250770e-01	-4.523950e-02	-1.802686e-01
9.291194e-01	-4.460506e-02	-1.874744e-01
9.245481e-01	-4.374090e-02	-1.954888e-01
9.196189e-01	-4.260255e-02	-2.025268e-01
9.076883e-01	-4.114203e-02	-2.117004e-01
8.947193e-01	-3.931170e-02	-2.201267e-01
8.725738e-01	-3.707198e-02	-2.324507e-01
8.454789e-01	-3.440657e-02	-2.429854e-01
8.027301e-01	-3.131424e-02	-2.579988e-01
7.469028e-01	-2.783888e-02	-2.664304e-01
6.681243e-01	-2.401583e-02	-2.771836e-01
5.484560e-01	-1.994267e-02	-2.624124e-01
3.609415e-01	-1.563961e-02	-2.158096e-01
9.409811e-02	-1.123716e-02	-7.214529e-02
-2.993221e-01	-6.605825e-03	3.996692e-01
-2.911804e-01	-1.952837e-03	1.846975e+00
2.094378e+00	3.515375e-03	2.097371e+00
2.349151e+00	8.324780e-03	7.258160e-01
2.073259e+00	1.327736e-02	5.347499e-02
1.823606e+00	1.817524e-02	-1.635380e-01
1.640332e+00	2.319053e-02	-3.019720e-01
1.505276e+00	2.819881e-02	-3.604951e-01
1.381007e+00	3.318341e-02	-4.056146e-01
1.289963e+00	3.799633e-02	-4.236820e-01
1.210048e+00	4.253053e-02	-4.396008e-01
1.145885e+00	4.663110e-02	-4.417703e-01
1.089954e+00	5.018721e-02	-4.443163e-01
1.043174e+00	5.311139e-02	-4.400445e-01
1.002356e+00	5.537401e-02	-4.375033e-01
9.654875e-01	5.700126e-02	-4.310966e-01
9.320531e-01	5.807162e-02	-4.265745e-01
8.978936e-01	5.870200e-02	-4.181803e-01
8.654825e-01	5.901995e-02	-4.107867e-01
8.302098e-01	5.914345e-02	-3.989309e-01
7.915607e-01	5.916295e-02	-3.845708e-01
7.522434e-01	5.914973e-02	-3.671020e-01
8.503787e-01	-3.045860e-02	-1.497486e-01
8.766446e-01	-3.042715e-02	-1.559605e-01
8.968156e-01	-3.033949e-02	-1.635429e-01
9.103817e-01	-3.016799e-02	-1.705285e-01
9.141000e-01	-2.988772e-02	-1.781296e-01
9.160806e-01	-2.947031e-02	-1.848434e-01
9.090489e-01	-2.888854e-02	-1.922117e-01
9.010952e-01	-2.811198e-02	-1.984473e-01
8.854676e-01	-2.711059e-02	-2.065178e-01
8.679972e-01	-2.585659e-02	-2.135523e-01
8.405248e-01	-2.432870e-02	-2.239130e-01
8.071324e-01	-2.252116e-02	-2.319649e-01
7.571489e-01	-2.043707e-02	-2.433489e-01
6.927281e-01	-1.810778e-02	-2.471056e-01
6.039245e-01	-1.555655e-02	-2.505492e-01
4.713870e-01	-1.284638e-02	-2.255383e-01
2.680175e-01	-9.987986e-03	-1.602496e-01
-2.136300e-02	-7.065842e-03	1.637907e-02
-4.273985e-01	-3.993202e-03	5.706829e-01
-3.458078e-01	-9.085876e-04	2.193480e+00
2.346811e+00	2.709474e-03	2.350164e+00
2.564536e+00	5.880442e-03	7.923634e-01
2.232356e+00	9.129146e-03	5.757854e-02
1.946732e+00	1.231991e-02	-1.745797e-01
1.741119e+00	1.555963e-02	-3.205262e-01
1.590981e+00	1.876390e-02	-3.810202e-01
1.455200e+00	2.192074e-02	-4.274055e-01
1.354759e+00	2.493787e-02	-4.449639e-01
1.266314e+00	2.775214e-02	-4.600418e-01
1.194196e+00	3.027281e-02	-4.603955e-01
1.130527e+00	3.243782e-02	-4.608558e-01
1.076319e+00	3.419999e-02	-4.540260e-01
1.028408e+00	3.554764e-02	-4.488741e-01
9.850392e-01	3.650282e-02	-4.398266e-01
9.458743e-01	3.711897e-02	-4.329000e-01
9.069608e-01	3.747214e-02	-4.224032e-01
8.707971e-01	3.764347e-02	-4.133091e-01
8.326868e-01	3.770626e-02	-4.001212e-01
7.919562e-01	3.771392e-02	-3.847629e-01
7.512310e-01	3.770579e-02	-3.666079e-01
8.497395e-01	-1.004011e-02	-1.496360e-01
8.756329e-01	-1.003843e-02	-1.557805e-01
8.952288e-01	-1.002888e-02	-1.632535e-01
9.080218e-01	-9.999327e-03	-1.700864e-01
9.108034e-01	-9.934291e-03	-1.774872e-01
9.117196e-01	-9.816820e-03	-1.839635e-01
9.035150e-01	-9.631807e-03	-1.910416e-01
8.942719e-01	-9.366072e-03	-1.969447e-01
8.772305e-01	-9.009807e-03	-2.045967e-01
8.581904e-01	-8.556544e-03	-2.111395e-01
8.289871e-01	-8.003657e-03	-2.208394e-01
7.936393e-01	-7.354077e-03	-2.280871e-01
7.414651e-01	-6.612715e-03	-2.383081e-01
6.744408e-01	-5.792460e-03	-2.405822e-01
5.825609e-01	-4.901052e-03	-2.416861e-01
4.459766e-01	-3.958496e-03	-2.133805e-01
2.375312e-01	-2.966020e-03	-1.420217e-01
-5.914662e-02	-1.951263e-03	4.534788e-02
-4.692132e-01	-8.840804e-04	6.265158e-01
-3.635458e-01	1.852994e-04	2.305993e+00
2.427770e+00	1.431370e-03	2.431240e+00
2.632286e+00	2.509534e-03	8.132960e-01
2.281155e+00	3.593281e-03	5.883719e-02
1.983267e+00	4.630239e-03	-1.778561e-01
1.769866e+00	5.649058e-03	-3.258182e-01
1.614353e+00	6.618646e-03	-3.866176e-01
1.474490e+00	7.534294e-03	-4.330712e-01
1.370799e+00	8.371507e-03	-4.502321e-01
1.279569e+00	9.118177e-03	-4.648570e-01
1.205013e+00	9.757410e-03	-4.645658e-01
1.139132e+00	1.028147e-02	-4.643634e-01
1.082924e+00	1.068684e-02	-4.568120e-01
1.033208e+00	1.097869e-02	-4.509695e-01
9.882751e-01	1.116977e-02	-4.412714e-01
9.478205e-01	1.127965e-02	-4.337908e-01
9.079388e-01	1.133232e-02	-4.228587e-01
8.711353e-01	1.135132e-02	-4.134697e-01
8.326728e-01	1.135580e-02	-4.001145e-01
7.917796e-01	1.135621e-02	-3.846771e-01
7.509984e-01	1.135631e-02	-3.664944e-01
8.500961e-01	-3.805144e-03	-1.496988e-01
8.759402e-01	-3.808595e-03	-1.558352e-01
8.953904e-01	-3.814399e-03	-1.632830e-01
9.079234e-01	-3.818234e-03	-1.700680e-01
9.103354e-01	-3.813281e-03	-1.773960e-01
9.107928e-01	-3.791296e-03	-1.837765e-01
9.020573e-01	-3.744047e-03	-1.907333e-01
8.922224e-01	-3.664055e-03	-1.964933e-01
8.745337e-01	-3.545506e-03	-2.039677e-01
8.547855e-01	-3.384431e-03	-2.103018e-01
8.248108e-01	-3.178823e-03	-2.197269e-01
7.886021e-01	-2.929136e-03	-2.266394e-01
7.354675e-01	-2.636836e-03	-2.363805e-01
6.673099e-01	-2.306732e-03	-2.380385e-01
5.740952e-01	-1.941828e-03	-2.381740e-01
4.357736e-01	-1.550486e-03	-2.084988e-01
2.251648e-01	-1.133702e-03	-1.346277e-01
-7.458300e-02	-7.039535e-04	5.718300e-02
-4.863616e-01	-2.496087e-04	6.494132e-01
-3.708211e-01	2.065670e-04	2.352141e+00
2.460819e+00	7.371227e-04	2.464335e+00
2.659700e+00	1.193532e-03	8.217661e-01
2.300679e+00	1.648171e-03	5.934076e-02
1.997677e+00	2.077930e-03	-1.791484e-01
1.781022e+00	2.493986e-03	-3.278718e-01
1.623263e+00	2.883350e-03	-3.887516e-01
1.481712e+00	3.244493e-03	-4.351925e-01
1.376699e+00	3.568657e-03	-4.521701e-01
1.284366e+00	3.852546e-03	-4.665999e-01
1.208873e+00	4.091377e-03	-4.660540e-01
1.142168e+00	4.283995e-03	-4.656009e-01
1.085236e+00	4.430743e-03	-4.577874e-01
1.034885e+00	4.534924e-03	-4.517015e-01
9.894151e-01	4.602325e-03	-4.417804e-01
9.485323e-01	4.640896e-03	-4.341165e-01
9.083485e-01	4.659994e-03	-4.230495e-01
8.713746e-01	4.668515e-03	-4.135833e-01
8.328592e-01	4.673276e-03	-4.002040e-01
7.919849e-01	4.677141e-03	-3.847768e-01
7.512463e-01	4.679745e-03	-3.666153e-01
8.503187e-01	-1.698217e-03	-1.497380e-01
8.761442e-01	-1.700370e-03	-1.558715e-01
8.955365e-01	-1.704136e-03	-1.633096e-01
9.079663e-01	-1.707445e-03	-1.700760e-01
9.102305e-01	-1.707269e-03	-1.773755e-01
9.104982e-01	-1.700110e-03	-1.837170e-01
9.015339e-01	-1.682299e-03	-1.906227e-01
8.914354e-01	-1.650214e-03	-1.963200e-01
8.734515e-01	-1.600773e-03	-2.037153e-01
8.533749e-01	-1.531657e-03	-2.099548e-01
8.230379e-01	-1.441441e-03	-2.192545e-01
7.864207e-01	-1.329848e-03	-2.260125e-01
7.328265e-01	-1.197131e-03	-2.355316e-01
6.641242e-01	-1.045168e-03	-2.369022e-01
5.702663e-01	-8.751443e-04	-2.365854e-01
4.311109e-01	-6.909055e-04	-2.062679e-01
2.194674e-01	-4.930182e-04	-1.312212e-01
-8.173682e-02	-2.876669e-04	6.266786e-02
-4.943359e-01	-6.966236e-05	6.600609e-01
-3.742070e-01	1.496071e-04	2.373618e+00
2.476158e+00	4.043893e-04	2.479696e+00
2.672351e+00	6.227430e-04	8.256751e-01
2.309620e+00	8.389081e-04	5.957137e-02
2.004209e+00	1.041502e-03	-1.797342e-01
1.786017e+00	1.235533e-03	-3.287914e-01
1.627197e+00	1.414803e-03	-3.896937e-01
1.484851e+00	1.578668e-03	-4.361143e-01
1.379219e+00	1.723375e-03	-4.529978e-01
1.286376e+00	1.847841e-03	-4.673301e-01
1.210457e+00	1.950463e-03	-4.666644e-01
1.143382e+00	2.031332e-03	-4.660960e-01
1.086133e+00	2.091234e-03	-4.581658e-01
1.035510e+00	2.132237e-03	-4.519742e-01
9.898160e-01	2.157448e-03	-4.419595e-01
9.487627e-01	2.170843e-03	-4.342220e-01
9.084695e-01	2.176880e-03	-4.231058e-01
8.714491e-01	2.179589e-03	-4.136186e-01
8.329405e-01	2.181742e-03	-4.002431e-01
7.921003e-01	2.184041e-03	-3.848329e-01
7.513971e-01	2.185675e-03	-3.666890e-01
8.504575e-01	-8.504842e-04	-1.497624e-01
8.762690e-01	-8.518914e-04	-1.558937e-01
8.956225e-01	-8.543819e-04	-1.633253e-01
9.079901e-01	-8.566547e-04	-1.700805e-01
9.101751e-01	-8.568951e-04	-1.773647e-01
9.103506e-01	-8.533171e-04	-1.836872e-01
9.012794e-01	-8.443009e-04	-1.905689e-01
8.910570e-01	-8.282491e-04	-1.962366e-01
8.729311e-01	-8.036644e-04	-2.035939e-01
8.526930e-01	-7.692769e-04	-2.097870e-01
8.221740e-01	-7.241911e-04	-2.190244e-01
7.853487e-01	-6.680682e-04	-2.257044e-01
7.315172e-01	-6.008513e-04	-2.351108e-01
6.625318e-01	-5.233393e-04	-2.363341e-01
5.683378e-01	-4.360281e-04	-2.357854e-01
4.287470e-01	-3.408430e-04	-2.051368e-01
2.165635e-01	-2.380867e-04	-1.294849e-01
-8.539690e-02	-1.310446e-04	6.547405e-02
-4.984245e-01	-1.713105e-05	6.655202e-01
-3.759434e-01	9.754509e-05	2.384632e+00
2.484007e+00	2.306720e-04	2.487557e+00
2.678797e+00	3.444444e-04	8.276665e-01
2.314147e+00	4.565768e-04	5.968815e-02
2.007491e+00	5.610301e-04	-1.800285e-01
1.788503e+00	6.603045e-04	-3.292491e-01
1.629133e+00	7.511912e-04	-3.901573e-01
1.486375e+00	8.333991e-04	-4.365621e-01
1.380426e+00	9.051453e-04	-4.533941e-01
1.287323e+00	9.660544e-04	-4.676740e-01
1.211188e+00	1.015547e-03	-4.669464e-01
1.143931e+00	1.053909e-03	-4.663196e-01
1.086527e+00	1.081785e-03	-4.583320e-01
1.035774e+00	1.100442e-03	-4.520895e-01
9.899774e-01	1.111635e-03	-4.420315e-01
9.488506e-01	1.117496e-03	-4.342622e-01
9.085166e-01	1.120291e-03	-4.231278e-01
8.714871e-01	1.121923e-03	-4.136367e-01
8.329938e-01	1.123530e-03	-4.002687e-01
7.921783e-01	1.125187e-03	-3.848708e-01
7.514965e-01	1.126295e-03	-3.667374e-01
8.505549e-01	-4.527385e-04	-1.497796e-01
8.763611e-01	-4.536800e-04	-1.559100e-01
8.956933e-01	-4.554482e-04	-1.633382e-01
9.080223e-01	-4.573090e-04	-1.700865e-01
9.101564e-01	-4.580898e-04	-1.773611e-01
9.102750e-01	-4.565867e-04	-1.836720e-01
9.011432e-01	-4.518534e-04	-1.905401e-01
8.908546e-01	-4.431552e-04	-1.961921e-01
8.726542e-01	-4.298472e-04	-2.035294e-01
8.523312e-01	-4.113280e-04	-2.096980e-01
8.217155e-01	-3.871128e-04	-2.189023e-01
7.847784e-01	-3.569690e-04	-2.255405e-01
7.308184e-01	-3.208015e-04	-2.348862e-01
6.616787e-01	-2.789801e-04	-2.360298e-01
5.673009e-01	-2.317259e-04	-2.353552e-01
4.274719e-01	-1.800547e-04	-2.045268e-01
2.149932e-01	-1.241259e-04	-1.285460e-01
-8.737966e-02	-6.574563e-05	6.699423e-02
-5.006414e-01	-3.537989e-06	6.684803e-01
-3.768848e-01	5.911247e-05	2.390603e+00
2.488255e+00	1.317977e-04	2.491811e+00
2.682275e+00	1.938086e-04	8.287413e-01
2.316582e+00	2.547625e-04	5.975096e-02
2.009248e+00	3.113366e-04	-1.801861e-01
1.789826e+00	3.648646e-04	-3.294927e-01
1.630157e+00	4.136132e-04	-3.904026e-01
1.487177e+00	4.574506e-04	-4.367974e-01
1.381055e+00	4.954736e-04	-4.536009e-01
1.287813e+00	5.275531e-04	-4.678522e-01
1.211565e+00	5.534686e-04	-4.670917e-01
1.144212e+00	5.734659e-04	-4.664342e-01
1.086729e+00	5.879797e-04	-4.584170e-01
1.035911e+00	5.977649e-04	-4.521492e-01
9.900645e-01	6.038078e-04	-4.420704e-01
9.489042e-01	6.072432e-04	-4.342867e-01
9.085537e-01	6.092087e-04	-4.231450e-01
8.715230e-01	6.105878e-04	-4.136537e-01
8.330395e-01	6.118738e-04	-4.002907e-01
7.922374e-01	6.130505e-04	-3.848995e-01
7.515668e-01	6.137879e-04	-3.667717e-01
8.506155e-01	-2.396842e-04	-1.497903e-01
8.764210e-01	-2.401858e-04	-1.559207e-01
8.957436e-01	-2.411583e-04	-1.633474e-01
9.080522e-01	-2.422371e-04	-1.700921e-01
9.101563e-01	-2.427621e-04	-1.773611e-01
9.102395e-01	-2.419664e-04	-1.836648e-01
9.010699e-01	-2.392233e-04	-1.905246e-01
8.907424e-01	-2.341599e-04	-1.961674e-01
8.725008e-01	-2.265864e-04	-2.034936e-01
8.521317e-01	-2.163462e-04	-2.096489e-01
8.214637e-01	-2.032575e-04	-2.188352e-01
7.844657e-01	-1.871695e-04	-2.254506e-01
7.304352e-01	-1.679400e-04	-2.347631e-01
6.612103e-01	-1.456666e-04	-2.358627e-01
5.667305e-01	-1.204040e-04	-2.351186e-01
4.267690e-01	-9.267916e-05	-2.041905e-01
2.141260e-01	-6.259229e-05	-1.280275e-01
-8.847620e-02	-3.113897e-05	6.783495e-02
-5.018685e-01	2.400022e-06	6.701188e-01
-3.774060e-01	3.618124e-05	2.393909e+00
2.490606e+00	7.535199e-05	2.494165e+00
2.684197e+00	1.087291e-04	8.293351e-01
2.317924e+00	1.414775e-04	5.978558e-02
2.010214e+00	1.718025e-04	-1.802727e-01
1.790551e+00	2.004260e-04	-3.296262e-01
1.630716e+00	2.264451e-04	-3.905364e-01
1.487612e+00	2.498232e-04	-4.369253e-01
1.381396e+00	2.701003e-04	-4.537127e-01
1.288078e+00	2.871976e-04	-4.679483e-01
1.211767e+00	3.009603e-04	-4.671697e-01
1.144363e+00	3.114816e-04	-4.664959e-01
1.086838e+00	3.189906e-04	-4.584632e-01
1.035987e+00	3.239310e-04	-4.521823e-01
9.901152e-01	3.268917e-04	-4.420931e-01
9.489384e-01	3.285205e-04	-4.343024e-01
9.085796e-01	3.294233e-04	-4.231571e-01
8.715481e-01	3.300465e-04	-4.136656e-01
8.330694e-01	3.306428e-04	-4.003050e-01
7.922742e-01	3.312124e-04	-3.849174e-01
7.516094e-01	3.315820e-04	-3.667926e-01
8.506390e-01	-9.909954e-04	-1.497944e-01
8.764441e-01	-9.928091e-04	-1.559248e-01
8.957621e-01	-9.982684e-04	-1.633507e-01
9.080603e-01	-9.898543e-04	-1.700936e-01
9.101485e-01	-9.626489e-04	-1.773595e-01
9.102118e-01	-9.941389e-04	-1.836593e-01
9.010214e-01	-8.529974e-04	-1.905143e-01
8.906740e-01	-9.116356e-04	-1.961523e-01
8.724135e-01	-6.797764e-04	-2.034732e-01
8.520248e-01	-7.608022e-04	-2.096226e-01
8.213343e-01	-4.410538e-04	-2.188007e-01
7.843081e-01	-5.385557e-04	-2.254053e-01
7.302426e-01	-1.507371e-04	-2.347012e-01
6.609735e-01	-2.627232e-04	-2.357783e-01
5.664401e-01	1.767958e-04	-2.349981e-01
4.264093e-01	4.598668e-04	-2.040184e-01
2.136811e-01	5.990613e-04	-1.277615e-01
-8.903918e-02	5.664170e-04	6.826660e-02
-5.024982e-01	5.585995e-04	6.709597e-01
-3.776732e-01	5.645858e-04	2.395604e+00
2.491809e+00	5.819645e-04	2.495370e+00
2.685179e+00	6.057707e-04	8.296384e-01
2.318609e+00	6.429863e-04	5.980323e-02
2.010706e+00	7.030188e-04	-1.803168e-01
1.790921e+00	5.898258e-04	-3.296942e-01
1.631002e+00	3.305715e-04	-3.906048e-01
1.487836e+00	-8.738917e-05	-4.369911e-01
1.381573e+00	4.350210e-05	-4.537707e-01
1.288215e+00	-3.281121e-04	-4.679982e-01
1.211871e+00	-2.172029e-04	-4.672097e-01
1.144438e+00	-5.262266e-04	-4.665263e-01
1.086888e+00	-4.370457e-04	-4.584843e-01
1.036017e+00	-6.630873e-04	-4.521955e-01
9.901313e-01	-6.007554e-04	-4.421002e-01
9.489454e-01	-7.399597e-04	-4.343056e-01
9.085825e-01	-7.078389e-04	-4.231584e-01
8.715509e-01	-7.351313e-04	-4.136669e-01
8.330752e-01	-7.438635e-04	-4.003078e-01
7.922842e-01	-7.386342e-04	-3.849223e-01
7.516234e-01	-7.368927e-04	-3.667994e-01
8.509199e-01	-8.729541e-07	-1.498439e-01
8.768527e-01	-9.425040e-07	-1.559975e-01
8.955578e-01	-1.117710e-06	-1.633135e-01
9.071093e-01	-1.422579e-06	-1.699155e-01
9.103514e-01	-1.840563e-06	-1.773991e-01
9.081540e-01	-2.290472e-06	-1.832440e-01
8.999500e-01	-2.639926e-06	-1.902878e-01
8.881532e-01	-2.779161e-06	-1.955971e-01
8.705486e-01	-2.687366e-06	-2.030383e-01
8.489726e-01	-2.428515e-06	-2.088717e-01
8.185251e-01	-2.092579e-06	-2.180524e-01
7.807225e-01	-1.749382e-06	-2.243748e-01
7.263772e-01	-1.434968e-06	-2.334588e-01
6.567333e-01	-1.162460e-06	-2.342657e-01
5.547920e-01	-9.295170e-07	-2.301657e-01
4.187455e-01	-7.318637e-07	-2.003516e-01
2.114213e-01	-5.602785e-07	-1.264104e-01
-8.733538e-02	-4.113023e-07	6.696028e-02
-5.017399e-01	-2.743258e-07	6.699471e-01
-3.776399e-01	-1.508828e-07	2.395393e+00
2.492708e+00	-1.823379e-08	2.496270e+00
2.687002e+00	9.087336e-08	8.302018e-01
2.321187e+00	1.985727e-07	5.986973e-02
2.008396e+00	3.029821e-07	-1.801096e-01
1.782802e+00	4.109414e-07	-3.281995e-01
1.618922e+00	5.242435e-07	-3.877119e-01
1.483663e+00	6.491039e-07	-4.357654e-01
1.377833e+00	7.913991e-07	-4.525423e-01
1.284803e+00	9.612167e-07	-4.667585e-01
1.209234e+00	1.169490e-06	-4.661932e-01
1.141587e+00	1.428629e-06	-4.653642e-01
1.085170e+00	1.745255e-06	-4.577594e-01
1.033684e+00	2.113204e-06	-4.511774e-01
9.891521e-01	2.505495e-06	-4.416630e-01
9.470463e-01	2.875884e-06	-4.334364e-01
9.087711e-01	3.180387e-06	-4.232463e-01
8.706729e-01	3.397408e-06	-4.132502e-01
8.328819e-01	3.537950e-06	-4.002150e-01
7.926521e-01	3.625355e-06	-3.851010e-01
7.518761e-01	3.670252e-06	-3.669227e-01
8.506507e-01	9.889787e-04	-1.497965e-01
8.764584e-01	9.906324e-04	-1.559274e-01
8.957789e-01	9.957020e-04	-1.633538e-01
9.080786e-01	9.866391e-04	-1.700971e-01
9.101660e-01	9.585959e-04	-1.773630e-01
9.102255e-01	9.892552e-04	-1.836620e-01
9.010287e-01	8.475453e-04	-1.905159e-01
8.906746e-01	9.060408e-04	-1.961524e-01
8.724087e-01	6.744537e-04	-2.034721e-01
8.520170e-01	7.560291e-04	-2.096207e-01
8.213254e-01	4.369487e-04	-2.187983e-01
7.842993e-01	5.351203e-04	-2.254028e-01
7.302344e-01	1.479144e-04	-2.346985e-01
6.609660e-01	2.604348e-04	-2.357756e-01
5.664331e-01	-1.786231e-04	-2.349952e-01
4.264025e-01	-4.612988e-04	-2.040151e-01
2.136742e-01	-6.001465e-04	-1.277574e-01
-8.904657e-02	-5.671982e-04	6.827226e-02
-5.025055e-01	-5.590987e-04	6.709694e-01
-3.776760e-01	-5.648290e-04	2.395622e+00
2.491821e+00	-5.819310e-04	2.495382e+00
2.685188e+00	-6.055089e-04	8.296414e-01
2.318616e+00	-6.424990e-04	5.980341e-02
2.010711e+00	-7.023134e-04	-1.803172e-01
1.790925e+00	-5.888962e-04	-3.296950e-01
1.631006e+00	-3.294086e-04	-3.906058e-01
1.487840e+00	8.880581e-05	-4.369923e-01
1.381577e+00	-4.180056e-05	-4.537722e-01
1.288220e+00	3.301484e-04	-4.680000e-01
1.211877e+00	2.196443e-04	-4.672120e-01
1.144445e+00	5.291678e-04	-4.665292e-01
1.086897e+00	4.405969e-04	-4.584879e-01
1.036027e+00	6.673541e-04	-4.521999e-01
9.901423e-01	6.058022e-04	-4.421051e-01
9.489563e-01	7.457704e-04	-4.343106e-01
9.085923e-01	7.143094e-04	-4.231630e-01
8.715592e-01	7.420998e-04	-4.136709e-01
8.330824e-01	7.511721e-04	-4.003113e-01
7.922911e-01	7.461594e-04	-3.849256e-01
7.516302e-01	7.445283e-04	-3.668027e-01
8.506423e-01	2.369616e-04	-1.497950e-01
8.764528e-01	2.372367e-04	-1.559264e-01
8.957798e-01	2.377033e-04	-1.633540e-01
9.080897e-01	2.380418e-04	-1.700991e-01
9.101898e-01	2.377772e-04	-1.773676e-01
9.102633e-01	2.364052e-04	-1.836696e-01
9.010805e-01	2.334779e-04	-1.905268e-01
8.907404e-01	2.286171e-04	-1.961669e-01
8.724897e-01	2.215108e-04	-2.034910e-01
8.521157e-01	2.118687e-04	-2.096450e-01
8.214463e-01	1.994135e-04	-2.188305e-01
7.844486e-01	1.839368e-04	-2.254457e-01
7.304192e-01	1.652693e-04	-2.347579e-01
6.611954e-01	1.434980e-04	-2.358574e-01
5.667165e-01	1.186828e-04	-2.351127e-01
4.267553e-01	9.135446e-05	-2.041839e-01
2.141120e-01	6.162673e-05	-1.280192e-01
-8.849133e-02	3.049740e-05	6.784656e-02
-5.018835e-01	-2.733677e-06	6.701388e-01
-3.774118e-01	-3.622980e-05	2.393946e+00
2.490631e+00	-7.508770e-05	2.494190e+00
2.684217e+00	-1.082043e-04	8.293412e-01
2.317939e+00	-1.406950e-04	5.978595e-02
2.010225e+00	-1.707725e-04	-1.802737e-01
1.790561e+00	-1.991456e-04	-3.296279e-01
1.630724e+00	-2.249113e-04	-3.905384e-01
1.487620e+00	-2.480243e-04	-4.369277e-01
1.381405e+00	-2.680181e-04	-4.537156e-01
1.288088e+00	-2.847999e-04	-4.679518e-01
1.211779e+00	-2.981994e-04	-4.671741e-01
1.144377e+00	-3.082884e-04	-4.665015e-01
1.086855e+00	-3.152761e-04	-4.584703e-01
1.036007e+00	-3.195926e-04	-4.521910e-01
9.901374e-01	-3.218328e-04	-4.421030e-01
9.489613e-01	-3.226845e-04	-4.343129e-01
9.086014e-01	-3.228259e-04	-4.231673e-01
8.715677e-01	-3.227900e-04	-4.136749e-01
8.330871e-01	-3.228781e-04	-4.003135e-01
7.922911e-01	-3.231027e-04	-3.849256e-01
7.516263e-01	-3.232960e-04	-3.668008e-01
8.506046e-01	4.490024e-04	-1.497883e-01
8.764173e-01	4.496179e-04	-1.559201e-01
8.957530e-01	4.507499e-04	-1.633491e-01
9.080787e-01	4.518720e-04	-1.700971e-01
9.102009e-01	4.521446e-04	-1.773698e-01
9.103013e-01	4.505871e-04	-1.836773e-01
9.011499e-01	4.462068e-04	-1.905415e-01
8.908455e-01	4.380595e-04	-1.961901e-01
8.726351e-01	4.253331e-04	-2.035249e-01
8.523072e-01	4.073653e-04	-2.096921e-01
8.216904e-01	3.836710e-04	-2.188956e-01
7.847539e-01	3.540263e-04	-2.255334e-01
7.307954e-01	3.183398e-04	-2.348788e-01
6.616570e-01	2.769779e-04	-2.360221e-01