# vtk DataFile Version 2.0
OUTPUT by 3D-VPM
ASCII
DATASET UNSTRUCTURED_GRID
POINTS 820 double
9.510565e-01	0.000000e+00	-3.090170e-01
9.442611e-01	0.000000e+00	-3.078203e-01
9.267277e-01	0.000000e+00	-3.047010e-01
8.963175e-01	0.000000e+00	-2.991555e-01
8.562911e-01	0.000000e+00	-2.916579e-01
8.054250e-01	0.000000e+00	-2.817457e-01
7.470317e-01	0.000000e+00	-2.699633e-01
6.809074e-01	0.000000e+00	-2.559818e-01
6.100852e-01	0.000000e+00	-2.403847e-01
5.354138e-01	0.000000e+00	-2.229691e-01
4.593635e-01	0.000000e+00	-2.042585e-01
3.837764e-01	0.000000e+00	-1.841224e-01
3.103069e-01	0.000000e+00	-1.630077e-01
2.415927e-01	0.000000e+00	-1.409228e-01
1.782654e-01	0.000000e+00	-1.183331e-01
1.234349e-01	0.000000e+00	-9.558566e-02
7.662509e-02	0.000000e+00	-7.318920e-02
4.106998e-02	0.000000e+00	-5.193053e-02
1.528206e-02	0.000000e+00	-3.215886e-02
2.347037e-03	0.000000e+00	-1.488740e-02
0.000000e+00	0.000000e+00	0.000000e+00
1.064939e-02	0.000000e+00	1.066461e-02
3.126595e-02	0.000000e+00	1.703450e-02
6.375031e-02	0.000000e+00	1.787236e-02
1.050105e-01	0.000000e+00	1.417221e-02
1.560448e-01	0.000000e+00	4.777214e-03
2.137742e-01	0.000000e+00	-9.048270e-03
2.782849e-01	0.000000e+00	-2.799567e-02
3.468570e-01	0.000000e+00	-5.051783e-02
4.187060e-01	0.000000e+00	-7.662000e-02
4.916930e-01	0.000000e+00	-1.047585e-01
5.642168e-01	0.000000e+00	-1.343226e-01
6.348639e-01	0.000000e+00	-1.641238e-01
7.013280e-01	0.000000e+00	-1.931337e-01
7.630418e-01	0.000000e+00	-2.206893e-01
8.172084e-01	0.000000e+00	-2.454799e-01
8.641863e-01	0.000000e+00	-2.673591e-01
9.009752e-01	0.000000e+00	-2.848204e-01
9.288372e-01	0.000000e+00	-2.982085e-01
9.448555e-01	0.000000e+00	-3.059908e-01
9.510565e-01	0.000000e+00	-3.090170e-01
9.510565e-01	1.052632e+00	-3.090170e-01
9.442611e-01	1.052632e+00	-3.078203e-01
9.267277e-01	1.052632e+00	-3.047010e-01
8.963175e-01	1.052632e+00	-2.991555e-01
8.562911e-01	1.052632e+00	-2.916579e-01
8.054250e-01	1.052632e+00	-2.817457e-01
7.470317e-01	1.052632e+00	-2.699633e-01
6.809074e-01	1.052632e+00	-2.559818e-01
6.100852e-01	1.052632e+00	-2.403847e-01
5.354138e-01	1.052632e+00	-2.229691e-01
4.593635e-01	1.052632e+00	-2.042585e-01
3.837764e-01	1.052632e+00	-1.841224e-01
3.103069e-01	1.052632e+00	-1.630077e-01
2.415927e-01	1.052632e+00	-1.409228e-01
1.782654e-01	1.052632e+00	-1.183331e-01
1.234349e-01	1.052632e+00	-9.558566e-02
7.662509e-02	1.052632e+00	-7.318920e-02
4.106998e-02	1.052632e+00	-5.193053e-02
1.528206e-02	1.052632e+00	-3.215886e-02
2.347037e-03	1.052632e+00	-1.488740e-02
0.000000e+00	1.052632e+00	0.000000e+00
1.064939e-02	1.052632e+00	1.066461e-02
3.126595e-02	1.052632e+00	1.703450e-02
6.375031e-02	1.052632e+00	1.787236e-02
1.050105e-01	1.052632e+00	1.417221e-02
1.560448e-01	1.052632e+00	4.777214e-03
2.137742e-01	1.052632e+00	-9.048270e-03
2.782849e-01	1.052632e+00	-2.799567e-02
3.468570e-01	1.052632e+00	-5.051783e-02
4.187060e-01	1.052632e+00	-7.662000e-02
4.916930e-01	1.052632e+00	-1.047585e-01
5.642168e-01	1.052632e+00	-1.343226e-01
6.348639e-01	1.052632e+00	-1.641238e-01
7.013280e-01	1.052632e+00	-1.931337e-01
7.630418e-01	1.052632e+00	-2.206893e-01
8.172084e-01	1.052632e+00	-2.454799e-01
8.641863e-01	1.052632e+00	-2.673591e-01
9.009752e-01	1.052632e+00	-2.848204e-01
9.288372e-01	1.052632e+00	-2.982085e-01
9.448555e-01	1.052632e+00	-3.059908e-01
9.510565e-01	1.052632e+00	-3.090170e-01
9.510565e-01	2.105263e+00	-3.090170e-01
9.442611e-01	2.105263e+00	-3.078203e-01
9.267277e-01	2.105263e+00	-3.047010e-01
8.963175e-01	2.105263e+00	-2.991555e-01
8.562911e-01	2.105263e+00	-2.916579e-01
8.054250e-01	2.105263e+00	-2.817457e-01
7.470317e-01	2.105263e+00	-2.699633e-01
6.809074e-01	2.105263e+00	-2.559818e-01
6.100852e-01	2.105263e+00	-2.403847e-01
5.354138e-01	2.105263e+00	-2.229691e-01
4.593635e-01	2.105263e+00	-2.042585e-01
3.837764e-01	2.105263e+00	-1.841224e-01
3.103069e-01	2.105263e+00	-1.630077e-01
2.415927e-01	2.105263e+00	-1.409228e-01
1.782654e-01	2.105263e+00	-1.183331e-01
1.234349e-01	2.105263e+00	-9.558566e-02
7.662509e-02	2.105263e+00	-7.318920e-02
4.106998e-02	2.105263e+00	-5.193053e-02
1.528206e-02	2.105263e+00	-3.215886e-02
2.347037e-03	2.105263e+00	-1.488740e-02
0.000000e+00	2.105263e+00	0.000000e+00
1.064939e-02	2.105263e+00	1.066461e-02
3.126595e-02	2.105263e+00	1.703450e-02
6.375031e-02	2.105263e+00	1.787236e-02
1.050105e-01	2.105263e+00	1.417221e-02
1.560448e-01	2.105263e+00	4.777214e-03
2.137742e-01	2.105263e+00	-9.048270e-03
2.782849e-01	2.105263e+00	-2.799567e-02
3.468570e-01	2.105263e+00	-5.051783e-02
4.187060e-01	2.105263e+00	-7.662000e-02
4.916930e-01	2.105263e+00	-1.047585e-01
5.642168e-01	2.105263e+00	-1.343226e-01
6.348639e-01	2.105263e+00	-1.641238e-01
7.013280e-01	2.105263e+00	-1.931337e-01
7.630418e-01	2.105263e+00	-2.206893e-01
8.172084e-01	2.105263e+00	-2.454799e-01
8.641863e-01	2.105263e+00	-2.673591e-01
9.009752e-01	2.105263e+00	-2.848204e-01
9.288372e-01	2.105263e+00	-2.982085e-01
9.448555e-01	2.105263e+00	-3.059908e-01
9.510565e-01	2.105263e+00	-3.090170e-01
9.510565e-01	3.157895e+00	-3.090170e-01
9.442611e-01	3.157895e+00	-3.078203e-01
9.267277e-01	3.157895e+00	-3.047010e-01
8.963175e-01	3.157895e+00	-2.991555e-01
8.562911e-01	3.157895e+00	-2.916579e-01
8.054250e-01	3.157895e+00	-2.817457e-01
7.470317e-01	3.157895e+00	-2.699633e-01
6.809074e-01	3.157895e+00	-2.559818e-01
6.100852e-01	3.157895e+00	-2.403847e-01
5.354138e-01	3.157895e+00	-2.229691e-01
4.593635e-01	3.157895e+00	-2.042585e-01
3.837764e-01	3.157895e+00	-1.841224e-01
3.103069e-01	3.157895e+00	-1.630077e-01
2.415927e-01	3.157895e+00	-1.409228e-01
1.782654e-01	3.157895e+00	-1.183331e-01
1.234349e-01	3.157895e+00	-9.558566e-02
7.662509e-02	3.157895e+00	-7.318920e-02
4.106998e-02	3.157895e+00	-5.193053e-02
1.528206e-02	3.157895e+00	-3.215886e-02
2.347037e-03	3.157895e+00	-1.488740e-02
0.000000e+00	3.157895e+00	0.000000e+00
1.064939e-02	3.157895e+00	1.066461e-02
3.126595e-02	3.157895e+00	1.703450e-02
6.375031e-02	3.157895e+00	1.787236e-02
1.050105e-01	3.157895e+00	1.417221e-02
1.560448e-01	3.157895e+00	4.777214e-03
2.137742e-01	3.157895e+00	-9.048270e-03
2.782849e-01	3.157895e+00	-2.799567e-02
3.468570e-01	3.157895e+00	-5.051783e-02
4.187060e-01	3.157895e+00	-7.662000e-02
4.916930e-01	3.157895e+00	-1.047585e-01
5.642168e-01	3.157895e+00	-1.343226e-01
6.348639e-01	3.157895e+00	-1.641238e-01
7.013280e-01	3.157895e+00	-1.931337e-01
7.630418e-01	3.157895e+00	-2.206893e-01
8.172084e-01	3.157895e+00	-2.454799e-01
8.641863e-01	3.157895e+00	-2.673591e-01
9.009752e-01	3.157895e+00	-2.848204e-01
9.288372e-01	3.157895e+00	-2.982085e-01
9.448555e-01	3.157895e+00	-3.059908e-01
9.510565e-01	3.157895e+00	-3.090170e-01
9.510565e-01	4.210526e+00	-3.090170e-01
9.442611e-01	4.210526e+00	-3.078203e-01
9.267277e-01	4.210526e+00	-3.047010e-01
8.963175e-01	4.210526e+00	-2.991555e-01
8.562911e-01	4.210526e+00	-2.916579e-01
8.054250e-01	4.210526e+00	-2.817457e-01
7.470317e-01	4.210526e+00	-2.699633e-01
6.809074e-01	4.210526e+00	-2.559818e-01
6.100852e-01	4.210526e+00	-2.403847e-01
5.354138e-01	4.210526e+00	-2.229691e-01
4.593635e-01	4.210526e+00	-2.042585e-01
3.837764e-01	4.210526e+00	-1.841224e-01
3.103069e-01	4.210526e+00	-1.630077e-01
2.415927e-01	4.210526e+00	-1.409228e-01
1.782654e-01	4.210526e+00	-1.183331e-01
1.234349e-01	4.210526e+00	-9.558566e-02
7.662509e-02	4.210526e+00	-7.318920e-02
4.106998e-02	4.210526e+00	-5.193053e-02
1.528206e-02	4.210526e+00	-3.215886e-02
2.347037e-03	4.210526e+00	-1.488740e-02
0.000000e+00	4.210526e+00	0.000000e+00
1.064939e-02	4.210526e+00	1.066461e-02
3.126595e-02	4.210526e+00	1.703450e-02
6.375031e-02	4.210526e+00	1.787236e-02
1.050105e-01	4.210526e+00	1.417221e-02
1.560448e-01	4.210526e+00	4.777214e-03
2.137742e-01	4.210526e+00	-9.048270e-03
2.782849e-01	4.210526e+00	-2.799567e-02
3.468570e-01	4.210526e+00	-5.051783e-02
4.187060e-01	4.210526e+00	-7.662000e-02
4.916930e-01	4.210526e+00	-1.047585e-01
5.642168e-01	4.210526e+00	-1.343226e-01
6.348639e-01	4.210526e+00	-1.641238e-01
7.013280e-01	4.210526e+00	-1.931337e-01
7.630418e-01	4.210526e+00	-2.206893e-01
8.172084e-01	4.210526e+00	-2.454799e-01
8.641863e-01	4.210526e+00	-2.673591e-01
9.009752e-01	4.210526e+00	-2.848204e-01
9.288372e-01	4.210526e+00	-2.982085e-01
9.448555e-01	4.210526e+00	-3.059908e-01
9.510565e-01	4.210526e+00	-3.090170e-01
9.510565e-01	5.263158e+00	-3.090170e-01
9.442611e-01	5.263158e+00	-3.078203e-01
9.267277e-01	5.263158e+00	-3.047010e-01
8.963175e-01	5.263158e+00	-2.991555e-01
8.562911e-01	5.263158e+00	-2.916579e-01
8.054250e-01	5.263158e+00	-2.817457e-01
7.470317e-01	5.263158e+00	-2.699633e-01
6.809074e-01	5.263158e+00	-2.559818e-01
6.100852e-01	5.263158e+00	-2.403847e-01
5.354138e-01	5.263158e+00	-2.229691e-01
4.593635e-01	5.263158e+00	-2.042585e-01
3.837764e-01	5.263158e+00	-1.841224e-01
3.103069e-01	5.263158e+00	-1.630077e-01
2.415927e-01	5.263158e+00	-1.409228e-01
1.782654e-01	5.263158e+00	-1.183331e-01
1.234349e-01	5.263158e+00	-9.558566e-02
7.662509e-02	5.263158e+00	-7.318920e-02
4.106998e-02	5.263158e+00	-5.193053e-02
1.528206e-02	5.263158e+00	-3.215886e-02
2.347037e-03	5.263158e+00	-1.488740e-02
0.000000e+00	5.263158e+00	0.000000e+00
1.064939e-02	5.263158e+00	1.066461e-02
3.126595e-02	5.263158e+00	1.703450e-02
6.375031e-02	5.263158e+00	1.787236e-02
1.050105e-01	5.263158e+00	1.417221e-02
1.560448e-01	5.263158e+00	4.777214e-03
2.137742e-01	5.263158e+00	-9.048270e-03
2.782849e-01	5.263158e+00	-2.799567e-02
3.468570e-01	5.263158e+00	-5.051783e-02
4.187060e-01	5.263158e+00	-7.662000e-02
4.916930e-01	5.263158e+00	-1.047585e-01
5.642168e-01	5.263158e+00	-1.343226e-01
6.348639e-01	5.263158e+00	-1.641238e-01
7.013280e-01	5.263158e+00	-1.931337e-01
7.630418e-01	5.263158e+00	-2.206893e-01
8.172084e-01	5.263158e+00	-2.454799e-01
8.641863e-01	5.263158e+00	-2.673591e-01
9.009752e-01	5.263158e+00	-2.848204e-01
9.288372e-01	5.263158e+00	-2.982085e-01
9.448555e-01	5.263158e+00	-3.059908e-01
9.510565e-01	5.263158e+00	-3.090170e-01
9.510565e-01	6.315789e+00	-3.090170e-01
9.442611e-01	6.315789e+00	-3.078203e-01
[...]
CELL_DATA 760
VECTORS V double
8.414271e-01	-6.902886e-02	-1.481722e-01
8.655489e-01	-6.885528e-02	-1.539865e-01
8.835650e-01	-6.840553e-02	-1.611265e-01
8.953321e-01	-6.761114e-02	-1.677094e-01
8.977984e-01	-6.645024e-02	-1.749529e-01
8.991123e-01	-6.490518e-02	-1.814196e-01
8.920760e-01	-6.296565e-02	-1.886229e-01
8.847670e-01	-6.060759e-02	-1.948514e-01
8.704343e-01	-5.780253e-02	-2.030116e-01
8.547958e-01	-5.451792e-02	-2.103044e-01
8.294927e-01	-5.072828e-02	-2.209741e-01
7.985730e-01	-4.641942e-02	-2.295050e-01
7.512262e-01	-4.162430e-02	-2.414453e-01
6.892052e-01	-3.639407e-02	-2.458489e-01
6.025588e-01	-3.076668e-02	-2.499826e-01
4.718876e-01	-2.486491e-02	-2.257778e-01
2.701844e-01	-1.869674e-02	-1.615453e-01
-1.737820e-02	-1.242819e-02	1.332392e-02
-4.217623e-01	-5.860717e-03	5.631572e-01
-3.426772e-01	7.195782e-04	2.173623e+00
2.326979e+00	8.432446e-03	2.330304e+00
2.541664e+00	1.519701e-02	7.852966e-01
2.210532e+00	2.214304e-02	5.701564e-02
1.925513e+00	2.899026e-02	-1.726768e-01
1.720175e+00	3.597966e-02	-3.166704e-01
1.570397e+00	4.294614e-02	-3.760908e-01
1.435549e+00	4.988402e-02	-4.216338e-01
1.336734e+00	5.661482e-02	-4.390437e-01
1.250639e+00	6.302034e-02	-4.543469e-01
1.181699e+00	6.890277e-02	-4.555774e-01
1.121871e+00	7.414659e-02	-4.573269e-01
1.071614e+00	7.861471e-02	-4.520413e-01
1.027475e+00	8.224494e-02	-4.484673e-01
9.872017e-01	8.502958e-02	-4.407921e-01
9.499810e-01	8.702000e-02	-4.347796e-01
9.115294e-01	8.831413e-02	-4.245310e-01
8.743628e-01	8.904028e-02	-4.150015e-01
8.341887e-01	8.934750e-02	-4.008429e-01
7.910605e-01	8.939142e-02	-3.843277e-01
7.483095e-01	8.934573e-02	-3.651822e-01
8.268614e-01	-4.834051e-02	-1.456073e-01
8.473505e-01	-4.821621e-02	-1.507489e-01
8.618146e-01	-4.789769e-02	-1.571601e-01
8.705023e-01	-4.733390e-02	-1.630584e-01
8.702556e-01	-4.650220e-02	-1.695857e-01
8.688734e-01	-4.538376e-02	-1.753181e-01
8.588765e-01	-4.396792e-02	-1.816031e-01
8.480093e-01	-4.223967e-02	-1.867563e-01
8.293415e-01	-4.018420e-02	-1.934275e-01
8.083562e-01	-3.778636e-02	-1.988789e-01
7.765716e-01	-3.501640e-02	-2.068761e-01
7.379153e-01	-3.192475e-02	-2.120723e-01
6.816149e-01	-2.848878e-02	-2.190721e-01
6.085679e-01	-2.476359e-02	-2.170845e-01
5.087736e-01	-2.077510e-02	-2.110741e-01
3.607801e-01	-1.660637e-02	-1.726176e-01
1.373812e-01	-1.225916e-02	-8.214123e-02
-1.814899e-01	-7.846880e-03	1.391488e-01
-6.031849e-01	-3.229673e-03	8.054014e-01
-4.198400e-01	1.389565e-03	2.663071e+00
2.682476e+00	6.789424e-03	2.686310e+00
2.844081e+00	1.150520e-02	8.787342e-01
2.433253e+00	1.631905e-02	6.276022e-02
2.097338e+00	2.102807e-02	-1.880858e-01
1.860490e+00	2.579099e-02	-3.425012e-01
1.689651e+00	3.048812e-02	-4.046506e-01
1.539067e+00	3.511367e-02	-4.520382e-01
1.427812e+00	3.954950e-02	-4.689579e-01
1.330722e+00	4.372377e-02	-4.834404e-01
1.251907e+00	4.752883e-02	-4.826446e-01
1.182672e+00	5.085436e-02	-4.821123e-01
1.123341e+00	5.367159e-02	-4.738612e-01
1.070395e+00	5.593080e-02	-4.672007e-01
1.021744e+00	5.763644e-02	-4.562154e-01
9.765922e-01	5.882974e-02	-4.469588e-01
9.307622e-01	5.958154e-02	-4.334883e-01
8.867510e-01	5.998024e-02	-4.208814e-01
8.402940e-01	6.012662e-02	-4.037766e-01
7.917020e-01	6.012298e-02	-3.846394e-01
7.448114e-01	6.007967e-02	-3.634751e-01
8.205662e-01	-2.040977e-02	-1.444987e-01
8.397258e-01	-2.035794e-02	-1.493924e-01
8.527100e-01	-2.022758e-02	-1.554998e-01
8.598701e-01	-1.999157e-02	-1.610669e-01
8.580808e-01	-1.963298e-02	-1.672132e-01
8.551158e-01	-1.913514e-02	-1.725422e-01
8.434942e-01	-1.848831e-02	-1.783506e-01
8.308924e-01	-1.768714e-02	-1.829867e-01
8.103351e-01	-1.670454e-02	-1.889946e-01
7.869465e-01	-1.558435e-02	-1.936115e-01
7.528809e-01	-1.431233e-02	-2.005650e-01
7.115879e-01	-1.290326e-02	-2.045060e-01
6.517692e-01	-1.134718e-02	-2.094797e-01
5.746158e-01	-9.680269e-03	-2.049733e-01
4.698327e-01	-7.912616e-03	-1.949187e-01
3.150885e-01	-6.076672e-03	-1.507562e-01
8.309730e-02	-4.169174e-03	-4.968449e-02
-2.482887e-01	-2.238035e-03	1.903637e-01
-6.767044e-01	-2.224074e-04	9.035681e-01
-4.508806e-01	1.785796e-03	2.859963e+00
2.823576e+00	4.114817e-03	2.827611e+00
2.961804e+00	6.122721e-03	9.151073e-01
2.517876e+00	8.136123e-03	6.494286e-02
2.160636e+00	1.005989e-02	-1.937623e-01
1.910312e+00	1.195026e-02	-3.516731e-01
1.730255e+00	1.375370e-02	-4.143748e-01
1.572762e+00	1.546559e-02	-4.619346e-01
1.456106e+00	1.704531e-02	-4.782507e-01
1.354637e+00	1.847537e-02	-4.921286e-01
1.271684e+00	1.974132e-02	-4.902691e-01
1.198785e+00	2.080653e-02	-4.886806e-01
1.136472e+00	2.166678e-02	-4.794002e-01
1.080543e+00	2.230378e-02	-4.716301e-01
1.029164e+00	2.277535e-02	-4.595284e-01
9.815300e-01	2.307741e-02	-4.492186e-01
9.334855e-01	2.324205e-02	-4.347566e-01
8.875227e-01	2.330452e-02	-4.212477e-01
8.394014e-01	2.330228e-02	-4.033477e-01
7.894774e-01	2.327182e-02	-3.835586e-01
7.416774e-01	2.324503e-02	-3.619456e-01
8.181627e-01	-1.021885e-02	-1.440755e-01
8.367491e-01	-1.019781e-02	-1.488628e-01
8.489781e-01	-1.014153e-02	-1.548192e-01
8.553657e-01	-1.003572e-02	-1.602231e-01
8.527884e-01	-9.870555e-03	-1.661819e-01
8.489846e-01	-9.622699e-03	-1.713050e-01
8.364946e-01	-9.310048e-03	-1.768706e-01
8.225989e-01	-8.912626e-03	-1.811602e-01
8.009697e-01	-8.439347e-03	-1.868104e-01
7.769496e-01	-7.875517e-03	-1.911520e-01
7.415287e-01	-7.236177e-03	-1.975408e-01
6.984002e-01	-6.498684e-03	-2.007159e-01
6.368441e-01	-5.693251e-03	-2.046827e-01
5.575344e-01	-4.817163e-03	-1.988801e-01
4.501276e-01	-3.882460e-03	-1.867437e-01
2.918431e-01	-2.906572e-03	-1.396342e-01
5.538259e-02	-1.892825e-03	-3.311367e-02
-2.824413e-01	-8.593040e-04	2.165486e-01
-7.142967e-01	2.207225e-04	9.537631e-01
-4.667137e-01	1.280748e-03	2.960393e+00
2.895142e+00	2.539247e-03	2.899279e+00
3.021048e+00	3.602808e-03	9.334118e-01
2.560082e+00	4.661782e-03	6.603147e-02
2.191859e+00	5.664737e-03	-1.965623e-01
1.934623e+00	6.644212e-03	-3.561485e-01
1.749857e+00	7.564197e-03	-4.190693e-01
1.588865e+00	8.428509e-03	-4.666642e-01
1.469515e+00	9.225470e-03	-4.826548e-01
1.365850e+00	9.934122e-03	-4.962022e-01
1.281322e+00	1.055316e-02	-4.939849e-01
1.206783e+00	1.109162e-02	-4.919413e-01
1.142484e+00	1.152296e-02	-4.819365e-01
1.085237e+00	1.186104e-02	-4.736789e-01
1.032965e+00	1.209921e-02	-4.612256e-01
9.841952e-01	1.225929e-02	-4.504384e-01
9.351520e-01	1.234029e-02	-4.355328e-01
8.883120e-01	1.238425e-02	-4.216223e-01
8.394626e-01	1.239445e-02	-4.033771e-01
7.889785e-01	1.238763e-02	-3.833162e-01
7.407081e-01	1.237896e-02	-3.614726e-01
8.170352e-01	-5.650710e-03	-1.438769e-01
8.351946e-01	-5.639592e-03	-1.485863e-01
8.470136e-01	-5.608098e-03	-1.544610e-01
8.529610e-01	-5.548738e-03	-1.597727e-01
8.496281e-01	-5.452578e-03	-1.655660e-01
8.453863e-01	-5.312326e-03	-1.705790e-01
8.325117e-01	-5.141020e-03	-1.760284e-01
8.184947e-01	-4.921387e-03	-1.802563e-01
7.963361e-01	-4.656536e-03	-1.857296e-01
7.711505e-01	-4.320845e-03	-1.897252e-01
7.348874e-01	-3.930015e-03	-1.957715e-01
6.910238e-01	-3.493863e-03	-1.985960e-01
6.284168e-01	-3.022470e-03	-2.019742e-01
5.477136e-01	-2.602256e-03	-1.953769e-01
4.387444e-01	-2.059096e-03	-1.820212e-01
2.784483e-01	-1.451714e-03	-1.332254e-01
3.938263e-02	-8.424789e-04	-2.354716e-02
-3.023444e-01	-2.230825e-04	2.318083e-01
-7.358893e-01	4.245159e-04	9.825945e-01
-4.758857e-01	1.068975e-03	3.018572e+00
2.937240e+00	1.811974e-03	2.941437e+00
3.055145e+00	2.446536e-03	9.439465e-01
2.584250e+00	3.074744e-03	6.665483e-02
2.209746e+00	3.665333e-03	-1.981664e-01
1.948407e+00	4.234764e-03	-3.586860e-01
1.760804e+00	4.757892e-03	-4.216909e-01
1.597894e+00	5.243466e-03	-4.693161e-01
1.476961e+00	5.787157e-03	-4.851005e-01
1.371934e+00	6.191345e-03	-4.984125e-01
1.286290e+00	6.529658e-03	-4.959004e-01
1.210929e+00	6.810488e-03	-4.936313e-01
1.146304e+00	7.039877e-03	-4.835478e-01
1.088264e+00	7.237308e-03	-4.750002e-01
1.034934e+00	7.379695e-03	-4.621047e-01
9.854660e-01	7.477795e-03	-4.510200e-01
9.358679e-01	7.526254e-03	-4.358662e-01
8.888556e-01	7.549583e-03	-4.218803e-01
8.396027e-01	7.556004e-03	-4.034444e-01
7.887834e-01	7.552162e-03	-3.832214e-01
7.403504e-01	7.547904e-03	-3.612980e-01
8.162969e-01	-3.274100e-03	-1.437469e-01
8.342360e-01	-3.267087e-03	-1.484157e-01
8.457844e-01	-3.248236e-03	-1.542368e-01
8.513917e-01	-3.211853e-03	-1.594787e-01
8.479562e-01	-3.150245e-03	-1.652402e-01
8.435821e-01	-3.097721e-03	-1.702149e-01
8.304468e-01	-2.980716e-03	-1.755918e-01
8.156991e-01	-2.836970e-03	-1.796406e-01
7.928588e-01	-2.652955e-03	-1.849187e-01
7.674108e-01	-2.420854e-03	-1.888051e-01
7.307200e-01	-2.181700e-03	-1.946614e-01
6.863032e-01	-1.956204e-03	-1.972393e-01
6.244224e-01	-1.642380e-03	-2.006904e-01
5.432879e-01	-1.424497e-03	-1.937982e-01
4.314480e-01	-1.060317e-03	-1.789941e-01
2.694037e-01	-6.829449e-04	-1.288980e-01
2.914377e-02	-2.875601e-04	-1.742528e-02
-3.148444e-01	1.069906e-04	2.413921e-01
-7.499791e-01	5.183399e-04	1.001408e+00
-4.817162e-01	9.418416e-04	3.055555e+00
2.962636e+00	1.396059e-03	2.966870e+00
3.076547e+00	1.797946e-03	9.505592e-01
2.599292e+00	2.193911e-03	6.704281e-02
2.220574e+00	2.563819e-03	-1.991374e-01
1.956513e+00	2.913618e-03	-3.601784e-01
1.767121e+00	3.239953e-03	-4.232037e-01
1.604509e+00	3.653332e-03	-4.712590e-01
1.482607e+00	3.902831e-03	-4.869549e-01
1.375519e+00	4.152980e-03	-4.997149e-01
1.289134e+00	4.371600e-03	-4.969966e-01
1.213172e+00	4.536494e-03	-4.945458e-01
1.147934e+00	4.642091e-03	-4.842352e-01
1.089789e+00	4.736555e-03	-4.756655e-01
1.036447e+00	4.811427e-03	-4.627805e-01
9.865896e-01	4.857410e-03	-4.515343e-01
9.365273e-01	4.918882e-03	-4.361733e-01
8.890394e-01	4.927981e-03	-4.219675e-01
8.396006e-01	4.929875e-03	-4.034434e-01
7.886074e-01	4.926929e-03	-3.831359e-01
7.400559e-01	4.923825e-03	-3.611544e-01
8.158583e-01	-2.025983e-03	-1.436697e-01
8.336781e-01	-2.021958e-03	-1.483165e-01
8.450682e-01	-2.011787e-03	-1.541062e-01
8.504506e-01	-1.993207e-03	-1.593025e-01
8.473517e-01	-1.963112e-03	-1.651224e-01
8.423924e-01	-2.007099e-03	-1.699749e-01
8.284820e-01	-1.884908e-03	-1.751764e-01
8.138225e-01	-1.780101e-03	-1.792274e-01
7.907163e-01	-1.681051e-03	-1.844189e-01
7.649651e-01	-1.539840e-03	-1.882034e-01
7.288113e-01	-1.383726e-03	-1.941529e-01
6.838530e-01	-1.213356e-03	-1.965351e-01
6.209800e-01	-1.013874e-03	-1.995840e-01
5.391578e-01	-7.350252e-04	-1.923249e-01
4.266753e-01	-5.008586e-04	-1.770141e-01
2.642229e-01	-2.951081e-04	-1.264192e-01
2.249435e-02	-5.276671e-05	-1.344954e-02
-3.229598e-01	1.687918e-04	2.476142e-01
-7.588650e-01	4.292435e-04	1.013273e+00
-4.854372e-01	6.874302e-04	3.079158e+00
2.979316e+00	9.836040e-04	2.983574e+00
3.090193e+00	1.233869e-03	9.547754e-01
2.608876e+00	1.505160e-03	6.729002e-02
2.227542e+00	1.733559e-03	-1.997623e-01
1.961963e+00	1.952990e-03	-3.611816e-01
1.773591e+00	2.165812e-03	-4.247532e-01
1.607822e+00	2.363072e-03	-4.722320e-01
1.483895e+00	2.463647e-03	-4.873780e-01
1.378041e+00	2.607580e-03	-5.006311e-01
1.291128e+00	2.743464e-03	-4.977655e-01
1.214318e+00	2.855914e-03	-4.950129e-01
1.148857e+00	2.945997e-03	-4.846249e-01
1.090529e+00	3.044207e-03	-4.759887e-01
1.036688e+00	3.109390e-03	-4.628882e-01
9.871668e-01	3.229917e-03	-4.517984e-01
9.372674e-01	3.221354e-03	-4.365180e-01
8.891272e-01	3.215370e-03	-4.220092e-01
8.395987e-01	3.212402e-03	-4.034425e-01
7.885039e-01	3.209151e-03	-3.830857e-01
7.398749e-01	3.206866e-03	-3.610660e-01
8.156214e-01	-1.127026e-03	-1.436279e-01
8.334095e-01	-1.124194e-03	-1.482687e-01
8.447763e-01	-1.115507e-03	-1.540530e-01
8.501480e-01	-1.124721e-03	-1.592458e-01
8.483729e-01	-1.104886e-03	-1.653214e-01
8.420457e-01	-1.053857e-03	-1.699049e-01
8.269691e-01	-1.013020e-03	-1.748565e-01
8.128069e-01	-9.848390e-04	-1.790037e-01
7.896103e-01	-9.922285e-04	-1.841610e-01
7.635075e-01	-9.123532e-04	-1.878448e-01
7.264525e-01	-8.095721e-04	-1.935245e-01
6.813772e-01	-6.547983e-04	-1.958236e-01
6.178058e-01	-5.750181e-04	-1.985638e-01
5.356222e-01	-3.406585e-04	-1.910637e-01
4.242500e-01	-2.506618e-04	-1.760079e-01
2.611975e-01	-1.226010e-04	-1.249717e-01
1.917549e-02	1.466285e-05	-1.146517e-02
-3.270556e-01	1.567472e-04	2.507545e-01
-7.643079e-01	3.062611e-04	1.020540e+00
-4.877131e-01	4.552623e-04	3.093594e+00
2.989384e+00	6.267577e-04	2.993656e+00
3.099682e+00	7.724447e-04	9.577073e-01
2.615225e+00	9.156386e-04	6.745377e-02
2.231657e+00	1.049321e-03	-2.001313e-01
1.965195e+00	1.176911e-03	-3.617766e-01
1.774139e+00	1.296569e-03	-4.248844e-01
1.608953e+00	1.323058e-03	-4.725642e-01
1.486019e+00	1.433353e-03	-4.880757e-01
1.379167e+00	1.539870e-03	-5.010403e-01
1.292267e+00	1.599822e-03	-4.982046e-01
1.215709e+00	1.667578e-03	-4.955797e-01
1.150332e+00	1.812758e-03	-4.852471e-01
1.091980e+00	1.833186e-03	-4.766219e-01
1.039074e+00	1.874780e-03	-4.639534e-01
9.885151e-01	1.886514e-03	-4.524155e-01
9.362530e-01	1.871648e-03	-4.360456e-01
8.888265e-01	1.874613e-03	-4.218665e-01
8.394130e-01	1.896280e-03	-4.033532e-01
7.883347e-01	1.892742e-03	-3.830034e-01
7.397059e-01	1.891174e-03	-3.609835e-01
8.153830e-01	-1.359034e-03	-1.435860e-01
8.329930e-01	-1.359081e-03	-1.481946e-01
8.451989e-01	-1.359747e-03	-1.541301e-01
8.500954e-01	-1.341943e-03	-1.592359e-01
8.458699e-01	-1.300516e-03	-1.648337e-01
8.408214e-01	-1.223300e-03	-1.696579e-01
8.274301e-01	-1.127156e-03	-1.749540e-01
8.135431e-01	-1.190957e-03	-1.791658e-01
7.897171e-01	-9.723859e-04	-1.841859e-01
7.625663e-01	-1.022698e-03	-1.876133e-01
7.254480e-01	-6.672788e-04	-1.932569e-01
6.807041e-01	-7.569214e-04	-1.956302e-01
6.166802e-01	-3.238710e-04	-1.982020e-01
5.342275e-01	-3.892871e-04	-1.905662e-01
4.231622e-01	7.070209e-05	-1.755566e-01
2.593436e-01	4.116332e-04	-1.240847e-01
1.653479e-02	6.079609e-04	-9.886271e-03
-3.304135e-01	6.563483e-04	2.533290e-01
-7.671078e-01	7.031447e-04	1.024279e+00
-4.889032e-01	7.630943e-04	3.101143e+00
2.994849e+00	8.430889e-04	2.999129e+00
3.102880e+00	9.212706e-04	9.586953e-01
2.617779e+00	9.869392e-04	6.751964e-02
2.234005e+00	1.098313e-03	-2.003419e-01
1.966921e+00	1.032641e-03	-3.620944e-01
1.775995e+00	8.493957e-04	-4.253290e-01
1.609956e+00	4.969262e-04	-4.728590e-01
1.486902e+00	6.288132e-04	-4.883657e-01
1.380200e+00	3.104736e-04	-5.014157e-01
1.292741e+00	4.388565e-04	-4.983873e-01
1.216979e+00	1.428579e-04	-4.960973e-01
1.150999e+00	2.925376e-04	-4.855283e-01
1.091347e+00	3.268310e-05	-4.763456e-01
1.037474e+00	8.795223e-05	-4.632392e-01
9.871448e-01	-1.300584e-04	-4.517884e-01
9.370160e-01	-7.237954e-05	-4.364009e-01
8.896344e-01	-8.683442e-05	-4.222500e-01
8.402964e-01	-9.279613e-05	-4.037778e-01
7.882360e-01	-8.769831e-05	-3.829555e-01
7.396348e-01	-8.661372e-05	-3.609488e-01
8.156294e-01	3.390238e-05	-1.436293e-01
8.334561e-01	1.625387e-05	-1.482770e-01
8.440903e-01	1.464134e-05	-1.539279e-01
8.486041e-01	3.600333e-05	-1.589566e-01
8.459225e-01	3.356431e-05	-1.648439e-01
8.390377e-01	3.231437e-05	-1.692980e-01
8.265909e-01	3.061643e-05	-1.747765e-01
8.104832e-01	3.116502e-05	-1.784920e-01
7.874120e-01	7.347839e-05	-1.836483e-01
7.594768e-01	6.149451e-05	-1.868532e-01
7.229426e-01	5.304426e-05	-1.925895e-01
6.769357e-01	1.992236e-05	-1.945472e-01
6.124718e-01	-6.801024e-06	-1.968494e-01
5.301289e-01	-2.526670e-06	-1.891042e-01
4.110745e-01	3.003081e-05	-1.705418e-01
2.510516e-01	-1.485427e-06	-1.201173e-01
1.357667e-02	2.773012e-06	-8.117590e-03
-3.295052e-01	6.126084e-06	2.526326e-01
-7.671801e-01	8.104858e-06	1.024375e+00
-4.892069e-01	9.064413e-06	3.103069e+00
2.997226e+00	9.456492e-06	3.001510e+00
3.105898e+00	9.366987e-06	9.596279e-01
2.621186e+00	8.828717e-06	6.760752e-02
2.232280e+00	7.440708e-06	-2.001872e-01
1.959980e+00	4.069757e-05	-3.608166e-01
1.764761e+00	3.789204e-05	-4.226385e-01
1.605964e+00	5.294568e-06	-4.716864e-01
1.483232e+00	5.885268e-05	-4.871603e-01
1.376806e+00	4.725409e-05	-5.001824e-01
1.290119e+00	3.633380e-05	-4.973764e-01
1.213850e+00	2.836034e-05	-4.948219e-01
1.149027e+00	-1.568680e-05	-4.846965e-01
1.089122e+00	-1.270351e-05	-4.753744e-01
1.036928e+00	-1.405577e-05	-4.629953e-01
9.856619e-01	-1.322713e-05	-4.511097e-01
9.371788e-01	-1.341879e-05	-4.364768e-01
8.883364e-01	-1.238809e-05	-4.216339e-01
8.393226e-01	-3.485941e-05	-4.033098e-01
7.886839e-01	-3.376426e-05	-3.831731e-01
7.398720e-01	-1.622718e-05	-3.610646e-01
8.183448e-01	1.439056e-03	-1.441075e-01
8.337079e-01	1.439314e-03	-1.483218e-01
8.443977e-01	1.440733e-03	-1.539839e-01
8.497012e-01	1.424962e-03	-1.591621e-01
8.459418e-01	1.386329e-03	-1.648477e-01
8.408727e-01	1.399666e-03	-1.696683e-01
8.274461e-01	1.261169e-03	-1.749574e-01
8.129159e-01	1.323428e-03	-1.790277e-01
7.893223e-01	1.055667e-03	-1.840938e-01
7.628342e-01	1.110126e-03	-1.876792e-01
7.259896e-01	7.639034e-04	-1.934012e-01
6.815041e-01	7.796674e-04	-1.958601e-01
6.170061e-01	3.511100e-04	-1.983068e-01
5.336998e-01	4.438513e-04	-1.903780e-01
4.230779e-01	-4.901397e-05	-1.755216e-01
2.599046e-01	-3.877786e-04	-1.243531e-01
1.636983e-02	-5.832080e-04	-9.787641e-03
-3.305560e-01	-6.062215e-04	2.534382e-01
-7.671947e-01	-6.836399e-04	1.024395e+00
-4.889191e-01	-7.454746e-04	3.101244e+00
2.994860e+00	-8.294536e-04	2.999140e+00
3.102848e+00	-8.822489e-04	9.586855e-01
2.617712e+00	-9.782470e-04	6.751792e-02
2.234896e+00	-1.092781e-03	-2.004218e-01
1.967470e+00	-1.031140e-03	-3.621954e-01
1.775355e+00	-8.193730e-04	-4.251756e-01
1.610337e+00	-4.740394e-04	-4.729709e-01
1.487456e+00	-6.416155e-04	-4.885474e-01
1.379907e+00	-3.348492e-04	-5.013090e-01
1.292503e+00	-3.967538e-04	-4.982954e-01
1.216330e+00	-1.144792e-04	-4.958328e-01
1.150464e+00	-2.123848e-04	-4.853027e-01
1.091370e+00	4.252098e-07	-4.763558e-01
1.037465e+00	-1.001522e-04	-4.632351e-01
9.871560e-01	9.446584e-06	-4.517935e-01
9.370294e-01	-2.402233e-05	-4.364072e-01
8.892139e-01	1.676645e-06	-4.220504e-01
8.395094e-01	1.019574e-05	-4.033996e-01
7.888537e-01	5.653153e-06	-3.832556e-01
7.423205e-01	4.609336e-06	-3.622595e-01
8.155862e-01	1.210558e-03	-1.436217e-01
8.333513e-01	1.225375e-03	-1.482583e-01
8.446756e-01	1.218314e-03	-1.540346e-01
8.500258e-01	1.212860e-03	-1.592229e-01
8.463342e-01	1.101670e-03	-1.649241e-01
8.413667e-01	1.077558e-03	-1.697679e-01
8.276136e-01	1.004170e-03	-1.749928e-01
8.135485e-01	9.858435e-04	-1.791670e-01
7.902036e-01	9.603219e-04	-1.842994e-01
7.633321e-01	8.807462e-04	-1.878017e-01
7.272916e-01	7.911270e-04	-1.937481e-01
6.823237e-01	7.196462e-04	-1.960956e-01
6.173735e-01	6.379976e-04	-1.984248e-01
5.356615e-01	4.876824e-04	-1.910777e-01
4.247872e-01	3.518359e-04	-1.762308e-01
2.611389e-01	2.435343e-04	-1.249437e-01
1.867469e-02	9.377218e-05	-1.116574e-02
-3.271516e-01	-5.796969e-05	2.508281e-01
-7.632482e-01	-2.152449e-04	1.019126e+00
-4.876529e-01	-3.707459e-04	3.093212e+00
2.990703e+00	-5.490939e-04	2.994977e+00
3.098963e+00	-7.003947e-04	9.574851e-01
2.614283e+00	-8.488996e-04	6.742948e-02
2.231476e+00	-9.867592e-04	-2.001151e-01
1.965745e+00	-1.152485e-03	-3.618779e-01
1.774466e+00	-1.271621e-03	-4.249628e-01
1.608283e+00	-1.381538e-03	-4.723674e-01
1.485374e+00	-1.513395e-03	-4.878638e-01
1.379904e+00	-1.599193e-03	-5.013079e-01
1.292927e+00	-1.664719e-03	-4.984590e-01
1.216181e+00	-1.718851e-03	-4.957722e-01
1.150417e+00	-1.796342e-03	-4.852826e-01
1.090749e+00	-1.818696e-03	-4.760844e-01
1.036911e+00	-1.824894e-03	-4.629879e-01
9.870296e-01	-1.846962e-03	-4.517356e-01
9.369331e-01	-1.868375e-03	-4.363623e-01
8.891664e-01	-1.785931e-03	-4.220279e-01
8.395193e-01	-1.796332e-03	-4.034043e-01
7.883703e-01	-1.796090e-03	-3.830207e-01
7.397122e-01	-1.812657e-03	-3.609866e-01
8.158581e-01	2.029495e-03	-1.436696e-01
8.336772e-01	2.026496e-03	-1.483163e-01
8.448032e-01	2.023113e-03	-1.540579e-01
8.529286e-01	1.929134e-03	-1.597666e-01
8.484988e-01	1.903619e-03	-1.653459e-01
8.426084e-01	1.874689e-03	-1.700185e-01
8.288155e-01	1.803582e-03	-1.752469e-01
8.135417e-01	1.717024e-03	-1.791655e-01
7.907524e-01	1.627046e-03	-1.844274e-01
7.650555e-01	1.490085e-03	-1.882257e-01
7.280973e-01	1.329646e-03	-1.939627e-01
6.835441e-01	1.233366e-03	-1.964464e-01
6.202014e-01	1.017756e-03	-1.993337e-01
5.379683e-01	8.141890e-04	-1.919006e-01