# vtk DataFile Version 2.0
OUTPUT by 3D-VPM
ASCII
DATASET UNSTRUCTURED_GRID
POINTS 820 double
9.510565e-01	0.000000e+00	-3.090170e-01
9.442611e-01	0.000000e+00	-3.078203e-01
9.267277e-01	0.000000e+00	-3.047010e-01
8.963175e-01	0.000000e+00	-2.991555e-01
8.562911e-01	0.000000e+00	-2.916579e-01
8.054250e-01	0.000000e+00	-2.817457e-01
7.470317e-01	0.000000e+00	-2.699633e-01
6.809074e-01	0.000000e+00	-2.559818e-01
6.100852e-01	0.000000e+00	-2.403847e-01
5.354138e-01	0.000000e+00	-2.229691e-01
4.593635e-01	0.000000e+00	-2.042585e-01
3.837764e-01	0.000000e+00	-1.841224e-01
3.103069e-01	0.000000e+00	-1.630077e-01
2.415927e-01	0.000000e+00	-1.409228e-01
1.782654e-01	0.000000e+00	-1.183331e-01
1.234349e-01	0.000000e+00	-9.558566e-02
7.662509e-02	0.000000e+00	-7.318920e-02
4.106998e-02	0.000000e+00	-5.193053e-02
1.528206e-02	0.000000e+00	-3.215886e-02
2.347037e-03	0.000000e+00	-1.488740e-02
0.000000e+00	0.000000e+00	0.000000e+00
1.064939e-02	0.000000e+00	1.066461e-02
3.126595e-02	0.000000e+00	1.703450e-02
6.375031e-02	0.000000e+00	1.787236e-02
1.050105e-01	0.000000e+00	1.417221e-02
1.560448e-01	0.000000e+00	4.777214e-03
2.137742e-01	0.000000e+00	-9.048270e-03
2.782849e-01	0.000000e+00	-2.799567e-02
3.468570e-01	0.000000e+00	-5.051783e-02
4.187060e-01	0.000000e+00	-7.662000e-02
4.916930e-01	0.000000e+00	-1.047585e-01
5.642168e-01	0.000000e+00	-1.343226e-01
6.348639e-01	0.000000e+00	-1.641238e-01
7.013280e-01	0.000000e+00	-1.931337e-01
7.630418e-01	0.000000e+00	-2.206893e-01
8.172084e-01	0.000000e+00	-2.454799e-01
8.641863e-01	0.000000e+00	-2.673591e-01
9.009752e-01	0.000000e+00	-2.848204e-01
9.288372e-01	0.000000e+00	-2.982085e-01
9.448555e-01	0.000000e+00	-3.059908e-01
9.510565e-01	0.000000e+00	-3.090170e-01
9.510565e-01	1.052632e+00	-3.090170e-01
9.442611e-01	1.052632e+00	-3.078203e-01
9.267277e-01	1.052632e+00	-3.047010e-01
8.963175e-01	1.052632e+00	-2.991555e-01
8.562911e-01	1.052632e+00	-2.916579e-01
8.054250e-01	1.052632e+00	-2.817457e-01
7.470317e-01	1.052632e+00	-2.699633e-01
6.809074e-01	1.052632e+00	-2.559818e-01
6.100852e-01	1.052632e+00	-2.403847e-01
5.354138e-01	1.052632e+00	-2.229691e-01
4.593635e-01	1.052632e+00	-2.042585e-01
3.837764e-01	1.052632e+00	-1.841224e-01
3.103069e-01	1.052632e+00	-1.630077e-01
2.415927e-01	1.052632e+00	-1.409228e-01
1.782654e-01	1.052632e+00	-1.183331e-01
1.234349e-01	1.052632e+00	-9.558566e-02
7.662509e-02	1.052632e+00	-7.318920e-02
4.106998e-02	1.052632e+00	-5.193053e-02
1.528206e-02	1.052632e+00	-3.215886e-02
2.347037e-03	1.052632e+00	-1.488740e-02
0.000000e+00	1.052632e+00	0.000000e+00
1.064939e-02	1.052632e+00	1.066461e-02
3.126595e-02	1.052632e+00	1.703450e-02
6.375031e-02	1.052632e+00	1.787236e-02
1.050105e-01	1.052632e+00	1.417221e-02
1.560448e-01	1.052632e+00	4.777214e-03
2.137742e-01	1.052632e+00	-9.048270e-03
2.782849e-01	1.052632e+00	-2.799567e-02
3.468570e-01	1.052632e+00	-5.051783e-02
4.187060e-01	1.052632e+00	-7.662000e-02
4.916930e-01	1.052632e+00	-1.047585e-01
5.642168e-01	1.052632e+00	-1.343226e-01
6.348639e-01	1.052632e+00	-1.641238e-01
7.013280e-01	1.052632e+00	-1.931337e-01
7.630418e-01	1.052632e+00	-2.206893e-01
8.172084e-01	1.052632e+00	-2.454799e-01
8.641863e-01	1.052632e+00	-2.673591e-01
9.009752e-01	1.052632e+00	-2.848204e-01
9.288372e-01	1.052632e+00	-2.982085e-01
9.448555e-01	1.052632e+00	-3.059908e-01
9.510565e-01	1.052632e+00	-3.090170e-01
9.510565e-01	2.105263e+00	-3.090170e-01
9.442611e-01	2.105263e+00	-3.078203e-01
9.267277e-01	2.105263e+00	-3.047010e-01
8.963175e-01	2.105263e+00	-2.991555e-01
8.562911e-01	2.105263e+00	-2.916579e-01
8.054250e-01	2.105263e+00	-2.817457e-01
7.470317e-01	2.105263e+00	-2.699633e-01
6.809074e-01	2.105263e+00	-2.559818e-01
6.100852e-01	2.105263e+00	-2.403847e-01
5.354138e-01	2.105263e+00	-2.229691e-01
4.593635e-01	2.105263e+00	-2.042585e-01
3.837764e-01	2.105263e+00	-1.841224e-01
3.103069e-01	2.105263e+00	-1.630077e-01
2.415927e-01	2.105263e+00	-1.409228e-01
1.782654e-01	2.105263e+00	-1.183331e-01
1.234349e-01	2.105263e+00	-9.558566e-02
7.662509e-02	2.105263e+00	-7.318920e-02
4.106998e-02	2.105263e+00	-5.193053e-02
1.528206e-02	2.105263e+00	-3.215886e-02
2.347037e-03	2.105263e+00	-1.488740e-02
0.000000e+00	2.105263e+00	0.000000e+00
1.064939e-02	2.105263e+00	1.066461e-02
3.126595e-02	2.105263e+00	1.703450e-02
6.375031e-02	2.105263e+00	1.787236e-02
1.050105e-01	2.105263e+00	1.417221e-02
1.560448e-01	2.105263e+00	4.777214e-03
2.137742e-01	2.105263e+00	-9.048270e-03
2.782849e-01	2.105263e+00	-2.799567e-02
3.468570e-01	2.105263e+00	-5.051783e-02
4.187060e-01	2.105263e+00	-7.662000e-02
4.916930e-01	2.105263e+00	-1.047585e-01
5.642168e-01	2.105263e+00	-1.343226e-01
6.348639e-01	2.105263e+00	-1.641238e-01
7.013280e-01	2.105263e+00	-1.931337e-01
7.630418e-01	2.105263e+00	-2.206893e-01
8.172084e-01	2.105263e+00	-2.454799e-01
8.641863e-01	2.105263e+00	-2.673591e-01
9.009752e-01	2.105263e+00	-2.848204e-01
9.288372e-01	2.105263e+00	-2.982085e-01
9.448555e-01	2.105263e+00	-3.059908e-01
9.510565e-01	2.105263e+00	-3.090170e-01
9.510565e-01	3.157895e+00	-3.090170e-01
9.442611e-01	3.157895e+00	-3.078203e-01
9.267277e-01	3.157895e+00	-3.047010e-01
8.963175e-01	3.157895e+00	-2.991555e-01
8.562911e-01	3.157895e+00	-2.916579e-01
8.054250e-01	3.157895e+00	-2.817457e-01
7.470317e-01	3.157895e+00	-2.699633e-01
6.809074e-01	3.157895e+00	-2.559818e-01
6.100852e-01	3.157895e+00	-2.403847e-01
5.354138e-01	3.157895e+00	-2.229691e-01
4.593635e-01	3.157895e+00	-2.042585e-01
3.837764e-01	3.157895e+00	-1.841224e-01
3.103069e-01	3.157895e+00	-1.630077e-01
2.415927e-01	3.157895e+00	-1.409228e-01
1.782654e-01	3.157895e+00	-1.183331e-01
1.234349e-01	3.157895e+00	-9.558566e-02
7.662509e-02	3.157895e+00	-7.318920e-02
4.106998e-02	3.157895e+00	-5.193053e-02
1.528206e-02	3.157895e+00	-3.215886e-02
2.347037e-03	3.157895e+00	-1.488740e-02
0.000000e+00	3.157895e+00	0.000000e+00
1.064939e-02	3.157895e+00	1.066461e-02
3.126595e-02	3.157895e+00	1.703450e-02
6.375031e-02	3.157895e+00	1.787236e-02
1.050105e-01	3.157895e+00	1.417221e-02
1.560448e-01	3.157895e+00	4.777214e-03
2.137742e-01	3.157895e+00	-9.048270e-03
2.782849e-01	3.157895e+00	-2.799567e-02
3.468570e-01	3.157895e+00	-5.051783e-02
4.187060e-01	3.157895e+00	-7.662000e-02
4.916930e-01	3.157895e+00	-1.047585e-01
5.642168e-01	3.157895e+00	-1.343226e-01
6.348639e-01	3.157895e+00	-1.641238e-01
7.013280e-01	3.157895e+00	-1.931337e-01
7.630418e-01	3.157895e+00	-2.206893e-01
8.172084e-01	3.157895e+00	-2.454799e-01
8.641863e-01	3.157895e+00	-2.673591e-01
9.009752e-01	3.157895e+00	-2.848204e-01
9.288372e-01	3.157895e+00	-2.982085e-01
9.448555e-01	3.157895e+00	-3.059908e-01
9.510565e-01	3.157895e+00	-3.090170e-01
9.510565e-01	4.210526e+00	-3.090170e-01
9.442611e-01	4.210526e+00	-3.078203e-01
9.267277e-01	4.210526e+00	-3.047010e-01
8.963175e-01	4.210526e+00	-2.991555e-01
8.562911e-01	4.210526e+00	-2.916579e-01
8.054250e-01	4.210526e+00	-2.817457e-01
7.470317e-01	4.210526e+00	-2.699633e-01
6.809074e-01	4.210526e+00	-2.559818e-01
6.100852e-01	4.210526e+00	-2.403847e-01
5.354138e-01	4.210526e+00	-2.229691e-01
4.593635e-01	4.210526e+00	-2.042585e-01
3.837764e-01	4.210526e+00	-1.841224e-01
3.103069e-01	4.210526e+00	-1.630077e-01
2.415927e-01	4.210526e+00	-1.409228e-01
1.782654e-01	4.210526e+00	-1.183331e-01
1.234349e-01	4.210526e+00	-9.558566e-02
7.662509e-02	4.210526e+00	-7.318920e-02
4.106998e-02	4.210526e+00	-5.193053e-02
1.528206e-02	4.210526e+00	-3.215886e-02
2.347037e-03	4.210526e+00	-1.488740e-02
0.000000e+00	4.210526e+00	0.000000e+00
1.064939e-02	4.210526e+00	1.066461e-02
3.126595e-02	4.210526e+00	1.703450e-02
6.375031e-02	4.210526e+00	1.787236e-02
1.050105e-01	4.210526e+00	1.417221e-02
1.560448e-01	4.210526e+00	4.777214e-03
2.137742e-01	4.210526e+00	-9.048270e-03
2.782849e-01	4.210526e+00	-2.799567e-02
3.468570e-01	4.210526e+00	-5.051783e-02
4.187060e-01	4.210526e+00	-7.662000e-02
4.916930e-01	4.210526e+00	-1.047585e-01
5.642168e-01	4.210526e+00	-1.343226e-01
6.348639e-01	4.210526e+00	-1.641238e-01
7.013280e-01	4.210526e+00	-1.931337e-01
7.630418e-01	4.210526e+00	-2.206893e-01
8.172084e-01	4.210526e+00	-2.454799e-01
8.641863e-01	4.210526e+00	-2.673591e-01
9.009752e-01	4.210526e+00	-2.848204e-01
9.288372e-01	4.210526e+00	-2.982085e-01
9.448555e-01	4.210526e+00	-3.059908e-01
9.510565e-01	4.210526e+00	-3.090170e-01
9.510565e-01	5.263158e+00	-3.090170e-01
9.442611e-01	5.263158e+00	-3.078203e-01
9.267277e-01	5.263158e+00	-3.047010e-01
8.963175e-01	5.263158e+00	-2.991555e-01
8.562911e-01	5.263158e+00	-2.916579e-01
8.054250e-01	5.263158e+00	-2.817457e-01
7.470317e-01	5.263158e+00	-2.699633e-01
6.809074e-01	5.263158e+00	-2.559818e-01
6.100852e-01	5.263158e+00	-2.403847e-01
5.354138e-01	5.263158e+00	-2.229691e-01
4.593635e-01	5.263158e+00	-2.042585e-01
3.837764e-01	5.263158e+00	-1.841224e-01
3.103069e-01	5.263158e+00	-1.630077e-01
2.415927e-01	5.263158e+00	-1.409228e-01
1.782654e-01	5.263158e+00	-1.183331e-01
1.234349e-01	5.263158e+00	-9.558566e-02
7.662509e-02	5.263158e+00	-7.318920e-02
4.106998e-02	5.263158e+00	-5.193053e-02
1.528206e-02	5.263158e+00	-3.215886e-02
2.347037e-03	5.263158e+00	-1.488740e-02
0.000000e+00	5.263158e+00	0.000000e+00
1.064939e-02	5.263158e+00	1.066461e-02
3.126595e-02	5.263158e+00	1.703450e-02
6.375031e-02	5.263158e+00	1.787236e-02
1.050105e-01	5.263158e+00	1.417221e-02
1.560448e-01	5.263158e+00	4.777214e-03
2.137742e-01	5.263158e+00	-9.048270e-03
2.782849e-01	5.263158e+00	-2.799567e-02
3.468570e-01	5.263158e+00	-5.051783e-02
4.187060e-01	5.263158e+00	-7.662000e-02
4.916930e-01	5.263158e+00	-1.047585e-01
5.642168e-01	5.263158e+00	-1.343226e-01
6.348639e-01	5.263158e+00	-1.641238e-01
7.013280e-01	5.263158e+00	-1.931337e-01
7.630418e-01	5.263158e+00	-2.206893e-01
8.172084e-01	5.263158e+00	-2.454799e-01
8.641863e-01	5.263158e+00	-2.673591e-01
9.009752e-01	5.263158e+00	-2.848204e-01
9.288372e-01	5.263158e+00	-2.982085e-01
9.448555e-01	5.263158e+00	-3.059908e-01
9.510565e-01	5.263158e+00	-3.090170e-01
9.510565e-01	6.315789e+00	-3.090170e-01
9.442611e-01	6.315789e+00	-3.078203e-01
[...]
CELL_DATA 760
VECTORS V double
8.414220e-01	-6.903596e-02	-1.481713e-01
8.655426e-01	-6.886237e-02	-1.539854e-01
8.835570e-01	-6.841260e-02	-1.611250e-01
8.953222e-01	-6.761817e-02	-1.677076e-01
8.977863e-01	-6.645721e-02	-1.749505e-01
8.990978e-01	-6.491206e-02	-1.814167e-01
8.920590e-01	-6.297242e-02	-1.886193e-01
8.847474e-01	-6.061421e-02	-1.948471e-01
8.704120e-01	-5.780896e-02	-2.030064e-01
8.547707e-01	-5.452406e-02	-2.102982e-01
8.294642e-01	-5.073404e-02	-2.209665e-01
7.985405e-01	-4.642468e-02	-2.294956e-01
7.511892e-01	-4.162897e-02	-2.414334e-01
6.891620e-01	-3.639806e-02	-2.458335e-01
6.025078e-01	-3.076990e-02	-2.499614e-01
4.718260e-01	-2.486734e-02	-2.257483e-01
2.701094e-01	-1.869836e-02	-1.615004e-01
-1.747235e-02	-1.242900e-02	1.339610e-02
-4.218670e-01	-5.860724e-03	5.632970e-01
-3.427214e-01	7.203460e-04	2.173903e+00
2.327176e+00	8.434081e-03	2.330501e+00
2.541823e+00	1.519937e-02	7.853458e-01
2.210642e+00	2.214611e-02	5.701847e-02
1.925591e+00	2.899400e-02	-1.726838e-01
1.720232e+00	3.598405e-02	-3.166810e-01
1.570441e+00	4.295116e-02	-3.761013e-01
1.435582e+00	4.988968e-02	-4.216436e-01
1.336760e+00	5.662111e-02	-4.390521e-01
1.250658e+00	6.302727e-02	-4.543538e-01
1.181713e+00	6.891034e-02	-4.555829e-01
1.121881e+00	7.415479e-02	-4.573310e-01
1.071621e+00	7.862352e-02	-4.520443e-01
1.027480e+00	8.225430e-02	-4.484693e-01
9.872045e-01	8.503939e-02	-4.407934e-01
9.499823e-01	8.703017e-02	-4.347802e-01
9.115294e-01	8.832458e-02	-4.245310e-01
8.743617e-01	8.905090e-02	-4.150010e-01
8.341868e-01	8.935823e-02	-4.008420e-01
7.910580e-01	8.940219e-02	-3.843265e-01
7.483066e-01	8.935652e-02	-3.651808e-01
8.268558e-01	-4.834513e-02	-1.456063e-01
8.473434e-01	-4.822082e-02	-1.507476e-01
8.618055e-01	-4.790228e-02	-1.571584e-01
8.704912e-01	-4.733845e-02	-1.630564e-01
8.702420e-01	-4.650669e-02	-1.695830e-01
8.688572e-01	-4.538817e-02	-1.753149e-01
8.588575e-01	-4.397222e-02	-1.815991e-01
8.479872e-01	-4.224384e-02	-1.867514e-01
8.293160e-01	-4.018820e-02	-1.934216e-01
8.083267e-01	-3.779014e-02	-1.988716e-01
7.765374e-01	-3.501987e-02	-2.068670e-01
7.378757e-01	-3.192788e-02	-2.120609e-01
6.815690e-01	-2.849151e-02	-2.190574e-01
6.085140e-01	-2.476586e-02	-2.170652e-01
5.087101e-01	-2.077687e-02	-2.110477e-01
3.607037e-01	-1.660761e-02	-1.725811e-01
1.372888e-01	-1.225985e-02	-8.208601e-02
-1.816048e-01	-7.847032e-03	1.392369e-01
-6.033116e-01	-3.229276e-03	8.055705e-01
-4.198931e-01	1.390493e-03	2.663407e+00
2.682712e+00	6.790951e-03	2.686546e+00
2.844271e+00	1.150723e-02	8.787931e-01
2.433385e+00	1.632158e-02	6.276362e-02
2.097433e+00	2.103107e-02	-1.880943e-01
1.860560e+00	2.579444e-02	-3.425142e-01
1.689706e+00	3.049201e-02	-4.046636e-01
1.539110e+00	3.511799e-02	-4.520509e-01
1.427847e+00	3.955424e-02	-4.689692e-01
1.330749e+00	4.372891e-02	-4.834504e-01
1.251929e+00	4.753437e-02	-4.826532e-01
1.182690e+00	5.086026e-02	-4.821196e-01
1.123355e+00	5.367784e-02	-4.738673e-01
1.070407e+00	5.593735e-02	-4.672057e-01
1.021752e+00	5.764322e-02	-4.562193e-01
9.765986e-01	5.883670e-02	-4.469617e-01
9.307664e-01	5.958863e-02	-4.334903e-01
8.867531e-01	5.998740e-02	-4.208824e-01
8.402945e-01	6.013382e-02	-4.037768e-01
7.917011e-01	6.013019e-02	-3.846389e-01
7.448094e-01	6.008689e-02	-3.634741e-01
8.205596e-01	-2.041136e-02	-1.444975e-01
8.397175e-01	-2.035952e-02	-1.493909e-01
8.526997e-01	-2.022914e-02	-1.554979e-01
8.598575e-01	-1.999309e-02	-1.610645e-01
8.580658e-01	-1.963445e-02	-1.672103e-01
8.550982e-01	-1.913655e-02	-1.725386e-01
8.434736e-01	-1.848963e-02	-1.783462e-01
8.308686e-01	-1.768837e-02	-1.829814e-01
8.103075e-01	-1.670563e-02	-1.889882e-01
7.869145e-01	-1.558532e-02	-1.936036e-01
7.528440e-01	-1.431314e-02	-2.005551e-01
7.115456e-01	-1.290392e-02	-2.044938e-01
6.517201e-01	-1.134767e-02	-2.094639e-01
5.745583e-01	-9.680570e-03	-2.049528e-01
4.697650e-01	-7.912717e-03	-1.948906e-01
3.150072e-01	-6.076566e-03	-1.507173e-01
8.299898e-02	-4.168853e-03	-4.962571e-02
-2.484108e-01	-2.237497e-03	1.904573e-01
-6.768390e-01	-2.216433e-04	9.037478e-01
-4.509369e-01	1.786784e-03	2.860320e+00
2.823827e+00	4.116064e-03	2.827862e+00
2.962008e+00	6.124189e-03	9.151700e-01
2.518017e+00	8.137811e-03	6.494650e-02
2.160737e+00	1.006179e-02	-1.937713e-01
1.910387e+00	1.195236e-02	-3.516870e-01
1.730314e+00	1.375599e-02	-4.143888e-01
1.572808e+00	1.546805e-02	-4.619481e-01
1.456143e+00	1.704794e-02	-4.782628e-01
1.354666e+00	1.847813e-02	-4.921393e-01
1.271707e+00	1.974422e-02	-4.902782e-01
1.198804e+00	2.080950e-02	-4.886884e-01
1.136487e+00	2.166983e-02	-4.794066e-01
1.080555e+00	2.230685e-02	-4.716352e-01
1.029172e+00	2.277845e-02	-4.595323e-01
9.815361e-01	2.308051e-02	-4.492215e-01
9.334893e-01	2.324515e-02	-4.347584e-01
8.875243e-01	2.330761e-02	-4.212485e-01
8.394012e-01	2.330536e-02	-4.033476e-01
7.894756e-01	2.327489e-02	-3.835577e-01
7.416746e-01	2.324809e-02	-3.619442e-01
8.181556e-01	-1.021977e-02	-1.440742e-01
8.367403e-01	-1.019873e-02	-1.488613e-01
8.489671e-01	-1.014243e-02	-1.548172e-01
8.553523e-01	-1.003661e-02	-1.602206e-01
8.527725e-01	-9.871403e-03	-1.661788e-01
8.489659e-01	-9.623485e-03	-1.713013e-01
8.364729e-01	-9.310772e-03	-1.768660e-01
8.225736e-01	-8.913275e-03	-1.811546e-01
8.009407e-01	-8.439907e-03	-1.868036e-01
7.769164e-01	-7.875983e-03	-1.911438e-01
7.414905e-01	-7.236554e-03	-1.975306e-01
6.983562e-01	-6.498940e-03	-2.007033e-01
6.367931e-01	-5.693383e-03	-2.046663e-01
5.574747e-01	-4.817151e-03	-1.988588e-01
4.500574e-01	-3.882301e-03	-1.867146e-01
2.917589e-01	-2.906273e-03	-1.395940e-01
5.528100e-02	-1.892424e-03	-3.305292e-02
-2.825675e-01	-8.588797e-04	2.166453e-01
-7.144358e-01	2.208548e-04	9.539488e-01
-4.667719e-01	1.295546e-03	2.960763e+00
2.895401e+00	2.537716e-03	2.899539e+00
3.021258e+00	3.602490e-03	9.334767e-01
2.560228e+00	4.662148e-03	6.603523e-02
2.191963e+00	5.665568e-03	-1.965716e-01
1.934701e+00	6.645385e-03	-3.561630e-01
1.749918e+00	7.565608e-03	-4.190839e-01
1.588913e+00	8.430111e-03	-4.666783e-01
1.469553e+00	9.227240e-03	-4.826674e-01
1.365881e+00	9.936023e-03	-4.962134e-01
1.281347e+00	1.055518e-02	-4.939944e-01
1.206803e+00	1.109374e-02	-4.919494e-01
1.142500e+00	1.152515e-02	-4.819431e-01
1.085249e+00	1.186330e-02	-4.736842e-01
1.032974e+00	1.210150e-02	-4.612297e-01
9.842016e-01	1.226162e-02	-4.504414e-01
9.351560e-01	1.234262e-02	-4.355347e-01
8.883137e-01	1.238659e-02	-4.216231e-01
8.394624e-01	1.239680e-02	-4.033770e-01
7.889767e-01	1.238997e-02	-3.833154e-01
7.407051e-01	1.238130e-02	-3.614711e-01
8.170278e-01	-5.651735e-03	-1.438756e-01
8.351852e-01	-5.640614e-03	-1.485846e-01
8.470020e-01	-5.609105e-03	-1.544589e-01
8.529469e-01	-5.549725e-03	-1.597701e-01
8.496111e-01	-5.453530e-03	-1.655627e-01
8.453665e-01	-5.313231e-03	-1.705750e-01
8.324890e-01	-5.141871e-03	-1.760236e-01
8.184685e-01	-4.922174e-03	-1.802505e-01
7.963061e-01	-4.657253e-03	-1.857227e-01
7.711161e-01	-4.321464e-03	-1.897167e-01
7.348478e-01	-3.930525e-03	-1.957610e-01
6.909782e-01	-3.494253e-03	-1.985829e-01
6.283640e-01	-3.022750e-03	-2.019572e-01
5.476517e-01	-2.602427e-03	-1.953548e-01
4.386720e-01	-2.059139e-03	-1.819911e-01
2.783624e-01	-1.451582e-03	-1.331843e-01
3.928143e-02	-8.422052e-04	-2.348666e-02
-3.024609e-01	-2.226661e-04	2.318976e-01
-7.363361e-01	4.250807e-04	9.831912e-01
-4.759834e-01	1.069686e-03	3.019192e+00
2.936893e+00	1.812856e-03	2.941090e+00
3.055426e+00	2.447565e-03	9.440336e-01
2.584427e+00	3.075920e-03	6.665940e-02
2.209866e+00	3.666649e-03	-1.981772e-01
1.948494e+00	4.236221e-03	-3.587021e-01
1.760870e+00	4.759452e-03	-4.217067e-01
1.597945e+00	5.245152e-03	-4.693313e-01
1.477002e+00	5.788982e-03	-4.851140e-01
1.371967e+00	6.193292e-03	-4.984244e-01
1.286317e+00	6.531701e-03	-4.959106e-01
1.210950e+00	6.812621e-03	-4.936400e-01
1.146321e+00	7.042081e-03	-4.835550e-01
1.088278e+00	7.239587e-03	-4.750059e-01
1.034943e+00	7.382028e-03	-4.621091e-01
9.854727e-01	7.480168e-03	-4.510231e-01
9.358720e-01	7.528645e-03	-4.358681e-01
8.888576e-01	7.551985e-03	-4.218813e-01
8.396026e-01	7.558410e-03	-4.034443e-01
7.887816e-01	7.554566e-03	-3.832205e-01
7.403473e-01	7.550306e-03	-3.612965e-01
8.162891e-01	-3.262507e-03	-1.437455e-01
8.342261e-01	-3.269482e-03	-1.484140e-01
8.457721e-01	-3.250220e-03	-1.542346e-01
8.513769e-01	-3.213746e-03	-1.594760e-01
8.479386e-01	-3.152069e-03	-1.652368e-01
8.435616e-01	-3.099504e-03	-1.702108e-01
8.304233e-01	-2.982415e-03	-1.755869e-01
8.156719e-01	-2.838585e-03	-1.796347e-01
7.928275e-01	-2.654453e-03	-1.849113e-01
7.673749e-01	-2.422192e-03	-1.887963e-01
7.306788e-01	-2.182903e-03	-1.946504e-01
6.862561e-01	-1.957292e-03	-1.972258e-01
6.243683e-01	-1.643296e-03	-2.006730e-01
5.432247e-01	-1.425257e-03	-1.937757e-01
4.313729e-01	-1.060888e-03	-1.789630e-01
2.693136e-01	-6.833101e-04	-1.288549e-01
2.903611e-02	-2.876760e-04	-1.736090e-02
-3.149780e-01	1.072098e-04	2.414945e-01
-7.501263e-01	5.192221e-04	1.001605e+00
-4.817779e-01	9.284255e-04	3.055946e+00
2.962911e+00	1.399396e-03	2.967145e+00
3.076770e+00	1.800435e-03	9.506281e-01
2.599447e+00	2.196081e-03	6.704681e-02
2.220685e+00	2.565877e-03	-1.991474e-01
1.956596e+00	2.915685e-03	-3.601937e-01
1.767186e+00	3.242111e-03	-4.232192e-01
1.604561e+00	3.655627e-03	-4.712743e-01
1.482649e+00	3.905245e-03	-4.869687e-01
1.375553e+00	4.155533e-03	-4.997272e-01
1.289161e+00	4.374281e-03	-4.970071e-01
1.213194e+00	4.539288e-03	-4.945547e-01
1.147951e+00	4.644932e-03	-4.842426e-01
1.089803e+00	4.739476e-03	-4.756716e-01
1.036458e+00	4.814408e-03	-4.627852e-01
9.865970e-01	4.860429e-03	-4.515377e-01
9.365319e-01	4.921952e-03	-4.361755e-01
8.890415e-01	4.931044e-03	-4.219685e-01
8.396004e-01	4.932885e-03	-4.034433e-01
7.886055e-01	4.929546e-03	-3.831350e-01
7.400527e-01	4.940439e-03	-3.611528e-01
8.181984e-01	-2.029844e-03	-1.440817e-01
8.341210e-01	-2.025806e-03	-1.483953e-01
8.450420e-01	-2.015614e-03	-1.541014e-01
8.504326e-01	-1.997002e-03	-1.592991e-01
8.473325e-01	-1.966871e-03	-1.651187e-01
8.423704e-01	-2.010829e-03	-1.699705e-01
8.284568e-01	-1.888620e-03	-1.751711e-01
8.137935e-01	-1.783848e-03	-1.792210e-01
7.906825e-01	-1.684919e-03	-1.844111e-01
7.649267e-01	-1.543933e-03	-1.881940e-01
7.287684e-01	-1.388280e-03	-1.941415e-01
6.838036e-01	-1.218816e-03	-1.965209e-01
6.209226e-01	-1.020873e-03	-1.995655e-01
5.390908e-01	-7.429054e-04	-1.923010e-01
4.265965e-01	-5.072518e-04	-1.769814e-01
2.641287e-01	-2.995171e-04	-1.263741e-01
2.238088e-02	-5.566948e-05	-1.338169e-02
-3.231005e-01	1.670066e-04	2.477221e-01
-7.590200e-01	4.283828e-04	1.013480e+00
-4.855021e-01	6.873823e-04	3.079570e+00
2.979606e+00	9.844445e-04	2.983864e+00
3.090428e+00	1.235480e-03	9.548481e-01
2.609040e+00	1.507562e-03	6.729425e-02
2.227660e+00	1.736796e-03	-1.997729e-01
1.962052e+00	1.957090e-03	-3.611981e-01
1.773661e+00	2.170669e-03	-4.247699e-01
1.607877e+00	2.397006e-03	-4.722483e-01
1.483940e+00	2.469289e-03	-4.873926e-01
1.378077e+00	2.613046e-03	-5.006443e-01
1.291158e+00	2.748642e-03	-4.977768e-01
1.214342e+00	2.860852e-03	-4.950224e-01
1.148876e+00	2.950779e-03	-4.846327e-01
1.090544e+00	3.048923e-03	-4.759952e-01
1.036699e+00	3.114079e-03	-4.628932e-01
9.871749e-01	3.234595e-03	-4.518022e-01
9.372724e-01	3.226035e-03	-4.365203e-01
8.891279e-01	3.220054e-03	-4.220096e-01
8.395870e-01	3.217085e-03	-4.034369e-01
7.889167e-01	3.213829e-03	-3.832862e-01
7.420154e-01	3.211535e-03	-3.621106e-01
8.156114e-01	-1.146144e-03	-1.436262e-01
8.333977e-01	-1.129261e-03	-1.482666e-01
8.447622e-01	-1.120832e-03	-1.540504e-01
8.501314e-01	-1.129900e-03	-1.592427e-01
8.483540e-01	-1.109783e-03	-1.653177e-01
8.420244e-01	-1.058377e-03	-1.699006e-01
8.269458e-01	-1.017129e-03	-1.748516e-01
8.127820e-01	-9.885267e-04	-1.789982e-01
7.895837e-01	-9.954508e-04	-1.841548e-01
7.634806e-01	-9.151863e-04	-1.878382e-01
7.264292e-01	-8.120000e-04	-1.935183e-01
6.813626e-01	-6.568128e-04	-1.958194e-01
6.177857e-01	-5.767089e-04	-1.985573e-01
5.355517e-01	-3.420126e-04	-1.910386e-01
4.241189e-01	-2.517482e-04	-1.759535e-01
2.610423e-01	-1.234085e-04	-1.248974e-01
1.901077e-02	1.409641e-05	-1.136668e-02
-3.272424e-01	1.564003e-04	2.508977e-01
-7.645037e-01	3.061280e-04	1.020802e+00
-4.877933e-01	4.553333e-04	3.094103e+00
2.989740e+00	6.270625e-04	2.994012e+00
3.099974e+00	7.729545e-04	9.577975e-01
2.615433e+00	9.163630e-04	6.745913e-02
2.231811e+00	1.050261e-03	-2.001451e-01
1.965310e+00	1.178060e-03	-3.617979e-01
1.774747e+00	1.297963e-03	-4.250300e-01
1.608975e+00	1.324712e-03	-4.725706e-01
1.485679e+00	1.435275e-03	-4.879639e-01
1.379195e+00	1.542081e-03	-5.010503e-01
1.292288e+00	1.602306e-03	-4.982126e-01
1.215726e+00	1.670328e-03	-4.955866e-01
1.150347e+00	1.815796e-03	-4.852533e-01
1.091993e+00	1.836417e-03	-4.766274e-01
1.039084e+00	1.878227e-03	-4.639578e-01
9.885224e-01	1.890112e-03	-4.524189e-01
9.362576e-01	1.875331e-03	-4.360477e-01
8.888287e-01	1.878354e-03	-4.218675e-01
8.394127e-01	1.900088e-03	-4.033531e-01
7.883322e-01	1.896905e-03	-3.830022e-01
7.397014e-01	1.881308e-03	-3.609814e-01
8.153649e-01	-1.364085e-03	-1.435828e-01
8.329710e-01	-1.364115e-03	-1.481907e-01
8.451738e-01	-1.364722e-03	-1.541255e-01
8.500664e-01	-1.346792e-03	-1.592305e-01
8.458373e-01	-1.305146e-03	-1.648273e-01
8.407859e-01	-1.227589e-03	-1.696507e-01
8.273921e-01	-1.130996e-03	-1.749459e-01
8.135015e-01	-1.194203e-03	-1.791567e-01
7.896718e-01	-9.748610e-04	-1.841753e-01
7.625175e-01	-1.024258e-03	-1.876013e-01
7.253944e-01	-6.676662e-04	-1.932426e-01
6.806448e-01	-7.556521e-04	-1.956131e-01
6.166136e-01	-3.203222e-04	-1.981806e-01
5.341515e-01	-3.841402e-04	-1.905391e-01
4.230745e-01	7.505317e-05	-1.755202e-01
2.592397e-01	4.146729e-04	-1.240350e-01
1.641142e-02	6.101992e-04	-9.812507e-03
-3.305653e-01	6.581623e-04	2.534454e-01
-7.672744e-01	7.047481e-04	1.024501e+00
-4.889729e-01	7.645974e-04	3.101585e+00
2.995160e+00	8.445392e-04	2.999441e+00
3.103134e+00	9.226916e-04	9.587737e-01
2.617957e+00	9.883379e-04	6.752423e-02
2.234134e+00	1.099646e-03	-2.003535e-01
1.967020e+00	1.033903e-03	-3.621126e-01
1.776074e+00	8.507755e-04	-4.253478e-01
1.610020e+00	4.700905e-04	-4.728777e-01
1.486955e+00	6.310906e-04	-4.883829e-01
1.380244e+00	3.137281e-04	-5.014315e-01
1.292777e+00	4.432333e-04	-4.984013e-01
1.217009e+00	1.482659e-04	-4.961097e-01
1.151024e+00	2.988128e-04	-4.855388e-01
1.091367e+00	3.964460e-05	-4.763545e-01
1.037491e+00	9.544680e-05	-4.632466e-01
9.871568e-01	-1.221997e-04	-4.517939e-01
9.370236e-01	-6.432605e-05	-4.364045e-01
8.896380e-01	-7.870674e-05	-4.222517e-01
8.402959e-01	-8.466654e-05	-4.037775e-01
7.882308e-01	-7.958972e-05	-3.829529e-01
7.396267e-01	-7.851683e-05	-3.609449e-01
8.156164e-01	3.010898e-05	-1.436271e-01
8.334398e-01	3.119952e-05	-1.482741e-01
8.440696e-01	1.063921e-05	-1.539241e-01
8.485787e-01	3.325091e-05	-1.589518e-01
8.458921e-01	3.133594e-05	-1.648380e-01
8.390027e-01	3.057613e-05	-1.692909e-01
8.265515e-01	2.934937e-05	-1.747682e-01
8.104388e-01	3.037641e-05	-1.784822e-01
7.873626e-01	7.302699e-05	-1.836368e-01
7.594225e-01	6.141668e-05	-1.868398e-01
7.228823e-01	5.328657e-05	-1.925734e-01
6.768687e-01	2.041748e-05	-1.945279e-01
6.123975e-01	-6.035566e-06	-1.968255e-01
5.300447e-01	-1.557479e-06	-1.890742e-01
4.109772e-01	3.121130e-05	-1.705014e-01
2.509361e-01	-1.883504e-07	-1.200621e-01
1.343908e-02	4.291065e-06	-8.035328e-03
-3.296748e-01	7.882983e-06	2.527626e-01
-7.673667e-01	1.013048e-05	1.024625e+00
-4.892853e-01	1.138079e-05	3.103566e+00
2.997579e+00	1.214256e-05	3.001862e+00
3.106188e+00	1.240279e-05	9.597174e-01
2.621391e+00	1.224862e-05	6.761280e-02
2.232431e+00	1.126676e-05	-2.002007e-01
1.960097e+00	4.507526e-05	-3.608381e-01
1.764856e+00	4.276848e-05	-4.226612e-01
1.606042e+00	1.073365e-05	-4.717092e-01
1.483297e+00	6.493769e-05	-4.871815e-01
1.376861e+00	5.409095e-05	-5.002024e-01
1.290167e+00	4.403217e-05	-4.973948e-01
1.213891e+00	3.703069e-05	-4.948385e-01
1.149062e+00	-5.920032e-06	-4.847111e-01
1.089151e+00	-1.802054e-06	-4.753870e-01
1.036951e+00	-2.101256e-06	-4.630056e-01
9.856783e-01	-2.852840e-07	-4.511172e-01
9.371887e-01	3.068409e-07	-4.364813e-01
8.883405e-01	1.804190e-06	-4.216358e-01
8.393218e-01	-2.125799e-05	-4.033094e-01
7.886797e-01	-8.398400e-07	-3.831711e-01
7.398658e-01	-1.985029e-06	-3.610615e-01
8.151819e-01	1.468425e-03	-1.435506e-01
8.343251e-01	1.468686e-03	-1.484316e-01
8.448327e-01	1.470133e-03	-1.540633e-01
8.496305e-01	1.454401e-03	-1.591488e-01
8.458889e-01	1.415803e-03	-1.648374e-01
8.408206e-01	1.429189e-03	-1.696577e-01
8.273935e-01	1.290822e-03	-1.749462e-01
8.128627e-01	1.353073e-03	-1.790160e-01
7.892675e-01	1.111537e-03	-1.840810e-01
7.627764e-01	1.136189e-03	-1.876649e-01
7.259285e-01	7.869160e-04	-1.933849e-01
6.814378e-01	7.996732e-04	-1.958410e-01
6.169330e-01	3.683241e-04	-1.982833e-01
5.336176e-01	4.585057e-04	-1.903487e-01
4.229847e-01	-3.682993e-05	-1.754830e-01
2.597947e-01	-3.779701e-04	-1.243005e-01
1.623667e-02	-5.758229e-04	-9.708027e-03
-3.307208e-01	-6.015825e-04	2.535646e-01
-7.673766e-01	-6.532998e-04	1.024638e+00
-4.889959e-01	-7.475565e-04	3.101731e+00
2.995207e+00	-8.349286e-04	2.999487e+00
3.103135e+00	-8.907798e-04	9.587740e-01
2.617916e+00	-9.886755e-04	6.752317e-02
2.235049e+00	-1.104597e-03	-2.004355e-01
1.967589e+00	-1.044598e-03	-3.622174e-01
1.775452e+00	-8.347885e-04	-4.251988e-01
1.610419e+00	-4.916516e-04	-4.729949e-01
1.487527e+00	-6.615819e-04	-4.885710e-01
1.379971e+00	-3.573854e-04	-5.013325e-01
1.292562e+00	-4.223674e-04	-4.983183e-01
1.216386e+00	-1.443445e-04	-4.958557e-01
1.150517e+00	-2.463323e-04	-4.853251e-01
1.091420e+00	-3.136651e-05	-4.763775e-01
1.037511e+00	-1.293685e-04	-4.632557e-01
9.871966e-01	-1.851877e-05	-4.518121e-01
9.370608e-01	-5.115992e-05	-4.364218e-01
8.892177e-01	-2.486604e-05	-4.220522e-01
8.399635e-01	-1.595624e-05	-4.036178e-01
7.894573e-01	-2.030230e-05	-3.835489e-01
7.394513e-01	-2.128652e-05	-3.608593e-01
8.155725e-01	1.285990e-03	-1.436193e-01
8.333329e-01	1.282056e-03	-1.482551e-01
8.446527e-01	1.293956e-03	-1.540304e-01
8.499986e-01	1.287363e-03	-1.592178e-01
8.463022e-01	1.175919e-03	-1.649179e-01
8.413285e-01	1.151629e-03	-1.697602e-01
8.275725e-01	1.110933e-03	-1.749841e-01
8.131202e-01	1.051725e-03	-1.790727e-01
7.902169e-01	1.019290e-03	-1.843025e-01
7.637073e-01	9.330461e-04	-1.878940e-01
7.273106e-01	8.371097e-04	-1.937531e-01
6.823341e-01	7.595914e-04	-1.960986e-01
6.173737e-01	6.720232e-04	-1.984249e-01
5.356522e-01	5.159570e-04	-1.910744e-01
4.247689e-01	3.744550e-04	-1.762232e-01
2.611119e-01	2.606674e-04	-1.249307e-01
1.864682e-02	1.053397e-04	-1.114907e-02
-3.277932e-01	-5.189483e-05	2.513200e-01
-7.635777e-01	-2.148204e-04	1.019565e+00
-4.872833e-01	-3.759271e-04	3.090868e+00
2.990738e+00	-5.608181e-04	2.995012e+00
3.099045e+00	-7.178548e-04	9.575105e-01
2.614384e+00	-8.722613e-04	6.743209e-02
2.231551e+00	-1.015968e-03	-2.001218e-01
1.965789e+00	-1.187828e-03	-3.618860e-01
1.774489e+00	-1.313093e-03	-4.249683e-01
1.608291e+00	-1.429332e-03	-4.723698e-01
1.485370e+00	-1.567628e-03	-4.878625e-01
1.379885e+00	-1.660073e-03	-5.013011e-01
1.292882e+00	-1.732433e-03	-4.984417e-01
1.216117e+00	-1.793703e-03	-4.957463e-01
1.150425e+00	-1.878980e-03	-4.852862e-01
1.090840e+00	-1.911045e-03	-4.761245e-01
1.036990e+00	-1.927813e-03	-4.630231e-01
9.870796e-01	-1.947116e-03	-4.517585e-01
9.369698e-01	-1.965926e-03	-4.363794e-01
8.891936e-01	-1.882743e-03	-4.220407e-01
8.395375e-01	-1.891971e-03	-4.034131e-01
7.883801e-01	-1.910762e-03	-3.830255e-01
7.397150e-01	-1.908553e-03	-3.609880e-01
8.158422e-01	2.140142e-03	-1.436668e-01
8.336548e-01	2.135742e-03	-1.483123e-01
8.447734e-01	2.128978e-03	-1.540525e-01
8.528897e-01	2.029509e-03	-1.597593e-01
8.484544e-01	1.996810e-03	-1.653373e-01
8.419588e-01	1.959431e-03	-1.698874e-01
8.289435e-01	1.879028e-03	-1.752740e-01
8.141521e-01	1.782960e-03	-1.792999e-01
7.908806e-01	1.657107e-03	-1.844573e-01
7.651681e-01	1.540477e-03	-1.882534e-01
7.281978e-01	1.373840e-03	-1.939895e-01
6.836374e-01	1.271582e-03	-1.964732e-01
6.202906e-01	1.050052e-03	-1.993624e-01
5.380559e-01	8.406711e-04	-1.919319e-01