# vtk DataFile Version 2.0
OUTPUT by 3D-VPM
ASCII
DATASET UNSTRUCTURED_GRID
POINTS 820 double
9.510565e-01	0.000000e+00	-3.090170e-01
9.442611e-01	0.000000e+00	-3.078203e-01
9.267277e-01	0.000000e+00	-3.047010e-01
8.963175e-01	0.000000e+00	-2.991555e-01
8.562911e-01	0.000000e+00	-2.916579e-01
8.054250e-01	0.000000e+00	-2.817457e-01
7.470317e-01	0.000000e+00	-2.699633e-01
6.809074e-01	0.000000e+00	-2.559818e-01
6.100852e-01	0.000000e+00	-2.403847e-01
5.354138e-01	0.000000e+00	-2.229691e-01
4.593635e-01	0.000000e+00	-2.042585e-01
3.837764e-01	0.000000e+00	-1.841224e-01
3.103069e-01	0.000000e+00	-1.630077e-01
2.415927e-01	0.000000e+00	-1.409228e-01
1.782654e-01	0.000000e+00	-1.183331e-01
1.234349e-01	0.000000e+00	-9.558566e-02
7.662509e-02	0.000000e+00	-7.318920e-02
4.106998e-02	0.000000e+00	-5.193053e-02
1.528206e-02	0.000000e+00	-3.215886e-02
2.347037e-03	0.000000e+00	-1.488740e-02
0.000000e+00	0.000000e+00	0.000000e+00
1.064939e-02	0.000000e+00	1.066461e-02
3.126595e-02	0.000000e+00	1.703450e-02
6.375031e-02	0.000000e+00	1.787236e-02
1.050105e-01	0.000000e+00	1.417221e-02
1.560448e-01	0.000000e+00	4.777214e-03
2.137742e-01	0.000000e+00	-9.048270e-03
2.782849e-01	0.000000e+00	-2.799567e-02
3.468570e-01	0.000000e+00	-5.051783e-02
4.187060e-01	0.000000e+00	-7.662000e-02
4.916930e-01	0.000000e+00	-1.047585e-01
5.642168e-01	0.000000e+00	-1.343226e-01
6.348639e-01	0.000000e+00	-1.641238e-01
7.013280e-01	0.000000e+00	-1.931337e-01
7.630418e-01	0.000000e+00	-2.206893e-01
8.172084e-01	0.000000e+00	-2.454799e-01
8.641863e-01	0.000000e+00	-2.673591e-01
9.009752e-01	0.000000e+00	-2.848204e-01
9.288372e-01	0.000000e+00	-2.982085e-01
9.448555e-01	0.000000e+00	-3.059908e-01
9.510565e-01	0.000000e+00	-3.090170e-01
9.510565e-01	1.052632e+00	-3.090170e-01
9.442611e-01	1.052632e+00	-3.078203e-01
9.267277e-01	1.052632e+00	-3.047010e-01
8.963175e-01	1.052632e+00	-2.991555e-01
8.562911e-01	1.052632e+00	-2.916579e-01
8.054250e-01	1.052632e+00	-2.817457e-01
7.470317e-01	1.052632e+00	-2.699633e-01
6.809074e-01	1.052632e+00	-2.559818e-01
6.100852e-01	1.052632e+00	-2.403847e-01
5.354138e-01	1.052632e+00	-2.229691e-01
4.593635e-01	1.052632e+00	-2.042585e-01
3.837764e-01	1.052632e+00	-1.841224e-01
3.103069e-01	1.052632e+00	-1.630077e-01
2.415927e-01	1.052632e+00	-1.409228e-01
1.782654e-01	1.052632e+00	-1.183331e-01
1.234349e-01	1.052632e+00	-9.558566e-02
7.662509e-02	1.052632e+00	-7.318920e-02
4.106998e-02	1.052632e+00	-5.193053e-02
1.528206e-02	1.052632e+00	-3.215886e-02
2.347037e-03	1.052632e+00	-1.488740e-02
0.000000e+00	1.052632e+00	0.000000e+00
1.064939e-02	1.052632e+00	1.066461e-02
3.126595e-02	1.052632e+00	1.703450e-02
6.375031e-02	1.052632e+00	1.787236e-02
1.050105e-01	1.052632e+00	1.417221e-02
1.560448e-01	1.052632e+00	4.777214e-03
2.137742e-01	1.052632e+00	-9.048270e-03
2.782849e-01	1.052632e+00	-2.799567e-02
3.468570e-01	1.052632e+00	-5.051783e-02
4.187060e-01	1.052632e+00	-7.662000e-02
4.916930e-01	1.052632e+00	-1.047585e-01
5.642168e-01	1.052632e+00	-1.343226e-01
6.348639e-01	1.052632e+00	-1.641238e-01
7.013280e-01	1.052632e+00	-1.931337e-01
7.630418e-01	1.052632e+00	-2.206893e-01
8.172084e-01	1.052632e+00	-2.454799e-01
8.641863e-01	1.052632e+00	-2.673591e-01
9.009752e-01	1.052632e+00	-2.848204e-01
9.288372e-01	1.052632e+00	-2.982085e-01
9.448555e-01	1.052632e+00	-3.059908e-01
9.510565e-01	1.052632e+00	-3.090170e-01
9.510565e-01	2.105263e+00	-3.090170e-01
9.442611e-01	2.105263e+00	-3.078203e-01
9.267277e-01	2.105263e+00	-3.047010e-01
8.963175e-01	2.105263e+00	-2.991555e-01
8.562911e-01	2.105263e+00	-2.916579e-01
8.054250e-01	2.105263e+00	-2.817457e-01
7.470317e-01	2.105263e+00	-2.699633e-01
6.809074e-01	2.105263e+00	-2.559818e-01
6.100852e-01	2.105263e+00	-2.403847e-01
5.354138e-01	2.105263e+00	-2.229691e-01
4.593635e-01	2.105263e+00	-2.042585e-01
3.837764e-01	2.105263e+00	-1.841224e-01
3.103069e-01	2.105263e+00	-1.630077e-01
2.415927e-01	2.105263e+00	-1.409228e-01
1.782654e-01	2.105263e+00	-1.183331e-01
1.234349e-01	2.105263e+00	-9.558566e-02
7.662509e-02	2.105263e+00	-7.318920e-02
4.106998e-02	2.105263e+00	-5.193053e-02
1.528206e-02	2.105263e+00	-3.215886e-02
2.347037e-03	2.105263e+00	-1.488740e-02
0.000000e+00	2.105263e+00	0.000000e+00
1.064939e-02	2.105263e+00	1.066461e-02
3.126595e-02	2.105263e+00	1.703450e-02
6.375031e-02	2.105263e+00	1.787236e-02
1.050105e-01	2.105263e+00	1.417221e-02
1.560448e-01	2.105263e+00	4.777214e-03
2.137742e-01	2.105263e+00	-9.048270e-03
2.782849e-01	2.105263e+00	-2.799567e-02
3.468570e-01	2.105263e+00	-5.051783e-02
4.187060e-01	2.105263e+00	-7.662000e-02
4.916930e-01	2.105263e+00	-1.047585e-01
5.642168e-01	2.105263e+00	-1.343226e-01
6.348639e-01	2.105263e+00	-1.641238e-01
7.013280e-01	2.105263e+00	-1.931337e-01
7.630418e-01	2.105263e+00	-2.206893e-01
8.172084e-01	2.105263e+00	-2.454799e-01
8.641863e-01	2.105263e+00	-2.673591e-01
9.009752e-01	2.105263e+00	-2.848204e-01
9.288372e-01	2.105263e+00	-2.982085e-01
9.448555e-01	2.105263e+00	-3.059908e-01
9.510565e-01	2.105263e+00	-3.090170e-01
9.510565e-01	3.157895e+00	-3.090170e-01
9.442611e-01	3.157895e+00	-3.078203e-01
9.267277e-01	3.157895e+00	-3.047010e-01
8.963175e-01	3.157895e+00	-2.991555e-01
8.562911e-01	3.157895e+00	-2.916579e-01
8.054250e-01	3.157895e+00	-2.817457e-01
7.470317e-01	3.157895e+00	-2.699633e-01
6.809074e-01	3.157895e+00	-2.559818e-01
6.100852e-01	3.157895e+00	-2.403847e-01
5.354138e-01	3.157895e+00	-2.229691e-01
4.593635e-01	3.157895e+00	-2.042585e-01
3.837764e-01	3.157895e+00	-1.841224e-01
3.103069e-01	3.157895e+00	-1.630077e-01
2.415927e-01	3.157895e+00	-1.409228e-01
1.782654e-01	3.157895e+00	-1.183331e-01
1.234349e-01	3.157895e+00	-9.558566e-02
7.662509e-02	3.157895e+00	-7.318920e-02
4.106998e-02	3.157895e+00	-5.193053e-02
1.528206e-02	3.157895e+00	-3.215886e-02
2.347037e-03	3.157895e+00	-1.488740e-02
0.000000e+00	3.157895e+00	0.000000e+00
1.064939e-02	3.157895e+00	1.066461e-02
3.126595e-02	3.157895e+00	1.703450e-02
6.375031e-02	3.157895e+00	1.787236e-02
1.050105e-01	3.157895e+00	1.417221e-02
1.560448e-01	3.157895e+00	4.777214e-03
2.137742e-01	3.157895e+00	-9.048270e-03
2.782849e-01	3.157895e+00	-2.799567e-02
3.468570e-01	3.157895e+00	-5.051783e-02
4.187060e-01	3.157895e+00	-7.662000e-02
4.916930e-01	3.157895e+00	-1.047585e-01
5.642168e-01	3.157895e+00	-1.343226e-01
6.348639e-01	3.157895e+00	-1.641238e-01
7.013280e-01	3.157895e+00	-1.931337e-01
7.630418e-01	3.157895e+00	-2.206893e-01
8.172084e-01	3.157895e+00	-2.454799e-01
8.641863e-01	3.157895e+00	-2.673591e-01
9.009752e-01	3.157895e+00	-2.848204e-01
9.288372e-01	3.157895e+00	-2.982085e-01
9.448555e-01	3.157895e+00	-3.059908e-01
9.510565e-01	3.157895e+00	-3.090170e-01
9.510565e-01	4.210526e+00	-3.090170e-01
9.442611e-01	4.210526e+00	-3.078203e-01
9.267277e-01	4.210526e+00	-3.047010e-01
8.963175e-01	4.210526e+00	-2.991555e-01
8.562911e-01	4.210526e+00	-2.916579e-01
8.054250e-01	4.210526e+00	-2.817457e-01
7.470317e-01	4.210526e+00	-2.699633e-01
6.809074e-01	4.210526e+00	-2.559818e-01
6.100852e-01	4.210526e+00	-2.403847e-01
5.354138e-01	4.210526e+00	-2.229691e-01
4.593635e-01	4.210526e+00	-2.042585e-01
3.837764e-01	4.210526e+00	-1.841224e-01
3.103069e-01	4.210526e+00	-1.630077e-01
2.415927e-01	4.210526e+00	-1.409228e-01
1.782654e-01	4.210526e+00	-1.183331e-01
1.234349e-01	4.210526e+00	-9.558566e-02
7.662509e-02	4.210526e+00	-7.318920e-02
4.106998e-02	4.210526e+00	-5.193053e-02
1.528206e-02	4.210526e+00	-3.215886e-02
2.347037e-03	4.210526e+00	-1.488740e-02
0.000000e+00	4.210526e+00	0.000000e+00
1.064939e-02	4.210526e+00	1.066461e-02
3.126595e-02	4.210526e+00	1.703450e-02
6.375031e-02	4.210526e+00	1.787236e-02
1.050105e-01	4.210526e+00	1.417221e-02
1.560448e-01	4.210526e+00	4.777214e-03
2.137742e-01	4.210526e+00	-9.048270e-03
2.782849e-01	4.210526e+00	-2.799567e-02
3.468570e-01	4.210526e+00	-5.051783e-02
4.187060e-01	4.210526e+00	-7.662000e-02
4.916930e-01	4.210526e+00	-1.047585e-01
5.642168e-01	4.210526e+00	-1.343226e-01
6.348639e-01	4.210526e+00	-1.641238e-01
7.013280e-01	4.210526e+00	-1.931337e-01
7.630418e-01	4.210526e+00	-2.206893e-01
8.172084e-01	4.210526e+00	-2.454799e-01
8.641863e-01	4.210526e+00	-2.673591e-01
9.009752e-01	4.210526e+00	-2.848204e-01
9.288372e-01	4.210526e+00	-2.982085e-01
9.448555e-01	4.210526e+00	-3.059908e-01
9.510565e-01	4.210526e+00	-3.090170e-01
9.510565e-01	5.263158e+00	-3.090170e-01
9.442611e-01	5.263158e+00	-3.078203e-01
9.267277e-01	5.263158e+00	-3.047010e-01
8.963175e-01	5.263158e+00	-2.991555e-01
8.562911e-01	5.263158e+00	-2.916579e-01
8.054250e-01	5.263158e+00	-2.817457e-01
7.470317e-01	5.263158e+00	-2.699633e-01
6.809074e-01	5.263158e+00	-2.559818e-01
6.100852e-01	5.263158e+00	-2.403847e-01
5.354138e-01	5.263158e+00	-2.229691e-01
4.593635e-01	5.263158e+00	-2.042585e-01
3.837764e-01	5.263158e+00	-1.841224e-01
3.103069e-01	5.263158e+00	-1.630077e-01
2.415927e-01	5.263158e+00	-1.409228e-01
1.782654e-01	5.263158e+00	-1.183331e-01
1.234349e-01	5.263158e+00	-9.558566e-02
7.662509e-02	5.263158e+00	-7.318920e-02
4.106998e-02	5.263158e+00	-5.193053e-02
1.528206e-02	5.263158e+00	-3.215886e-02
2.347037e-03	5.263158e+00	-1.488740e-02
0.000000e+00	5.263158e+00	0.000000e+00
1.064939e-02	5.263158e+00	1.066461e-02
3.126595e-02	5.263158e+00	1.703450e-02
6.375031e-02	5.263158e+00	1.787236e-02
1.050105e-01	5.263158e+00	1.417221e-02
1.560448e-01	5.263158e+00	4.777214e-03
2.137742e-01	5.263158e+00	-9.048270e-03
2.782849e-01	5.263158e+00	-2.799567e-02
3.468570e-01	5.263158e+00	-5.051783e-02
4.187060e-01	5.263158e+00	-7.662000e-02
4.916930e-01	5.263158e+00	-1.047585e-01
5.642168e-01	5.263158e+00	-1.343226e-01
6.348639e-01	5.263158e+00	-1.641238e-01
7.013280e-01	5.263158e+00	-1.931337e-01
7.630418e-01	5.263158e+00	-2.206893e-01
8.172084e-01	5.263158e+00	-2.454799e-01
8.641863e-01	5.263158e+00	-2.673591e-01
9.009752e-01	5.263158e+00	-2.848204e-01
9.288372e-01	5.263158e+00	-2.982085e-01
9.448555e-01	5.263158e+00	-3.059908e-01
9.510565e-01	5.263158e+00	-3.090170e-01
9.510565e-01	6.315789e+00	-3.090170e-01
9.442611e-01	6.315789e+00	-3.078203e-01
[...]
CELL_DATA 760
VECTORS V double
8.414411e-01	-6.900994e-02	-1.481747e-01
8.655668e-01	-6.883640e-02	-1.539897e-01
8.835880e-01	-6.838676e-02	-1.611307e-01
8.953612e-01	-6.759260e-02	-1.677149e-01
8.978342e-01	-6.643202e-02	-1.749599e-01
8.991554e-01	-6.488740e-02	-1.814283e-01
8.921265e-01	-6.294844e-02	-1.886335e-01
8.848252e-01	-6.059116e-02	-1.948642e-01
8.705012e-01	-5.778712e-02	-2.030272e-01
8.548152e-01	-5.450375e-02	-2.103091e-01
8.295848e-01	-5.072433e-02	-2.209986e-01
7.987415e-01	-4.640804e-02	-2.295534e-01
7.513498e-01	-4.161453e-02	-2.414850e-01
6.893489e-01	-3.638617e-02	-2.459002e-01
6.027275e-01	-3.076091e-02	-2.500526e-01
4.720904e-01	-2.486144e-02	-2.258748e-01
2.704304e-01	-1.869570e-02	-1.616923e-01
-1.707062e-02	-1.242961e-02	1.308810e-02
-4.214205e-01	-5.864642e-03	5.627008e-01
-3.425332e-01	7.132214e-04	2.172709e+00
2.326335e+00	8.423341e-03	2.329659e+00
2.541142e+00	1.518559e-02	7.851355e-01
2.210171e+00	2.212933e-02	5.700632e-02
1.925255e+00	2.897440e-02	-1.726537e-01
1.719982e+00	3.596171e-02	-3.166349e-01
1.570249e+00	4.292621e-02	-3.760552e-01
1.435431e+00	4.986222e-02	-4.215994e-01
1.336639e+00	5.659133e-02	-4.390125e-01
1.250564e+00	6.299550e-02	-4.543197e-01
1.181649e+00	6.887650e-02	-4.555582e-01
1.121841e+00	7.411766e-02	-4.573150e-01
1.071594e+00	7.858308e-02	-4.520328e-01
1.027460e+00	8.221121e-02	-4.484604e-01
9.871905e-01	8.499421e-02	-4.407871e-01
9.499742e-01	8.698338e-02	-4.347764e-01
9.115265e-01	8.827663e-02	-4.245296e-01
8.743632e-01	8.900220e-02	-4.150018e-01
8.341920e-01	8.930911e-02	-4.008445e-01
7.910661e-01	8.935290e-02	-3.843305e-01
7.483167e-01	8.930719e-02	-3.651857e-01
8.268786e-01	-4.832976e-02	-1.456103e-01
8.473731e-01	-4.820550e-02	-1.507529e-01
8.618435e-01	-4.788709e-02	-1.571654e-01
8.705384e-01	-4.732348e-02	-1.630652e-01
8.702992e-01	-4.649203e-02	-1.695942e-01
8.689253e-01	-4.537394e-02	-1.753286e-01
8.589374e-01	-4.395853e-02	-1.816160e-01
8.480803e-01	-4.223084e-02	-1.867719e-01
8.294237e-01	-4.017609e-02	-1.934467e-01
8.084511e-01	-3.777910e-02	-1.989022e-01
7.766826e-01	-3.501467e-02	-2.069056e-01
7.380439e-01	-3.191946e-02	-2.121093e-01
6.817626e-01	-2.848461e-02	-2.191196e-01
6.087413e-01	-2.476069e-02	-2.171463e-01
5.089784e-01	-2.077363e-02	-2.111590e-01
3.610264e-01	-1.660642e-02	-1.727355e-01
1.376794e-01	-1.226082e-02	-8.231952e-02
-1.811187e-01	-7.850166e-03	1.388643e-01
-6.027749e-01	-3.234629e-03	8.048538e-01
-4.196679e-01	1.382973e-03	2.661979e+00
2.681709e+00	6.780969e-03	2.685541e+00
2.843458e+00	1.149517e-02	8.785419e-01
2.432821e+00	1.630746e-02	6.274906e-02
2.097028e+00	2.101501e-02	-1.880580e-01
1.860256e+00	2.577648e-02	-3.424582e-01
1.689469e+00	3.047226e-02	-4.046071e-01
1.538923e+00	3.509654e-02	-4.519960e-01
1.427696e+00	3.953124e-02	-4.689198e-01
1.330629e+00	4.370458e-02	-4.834067e-01
1.251831e+00	4.750872e-02	-4.826155e-01
1.182609e+00	5.083280e-02	-4.820867e-01
1.123290e+00	5.364854e-02	-4.738397e-01
1.070354e+00	5.590663e-02	-4.671829e-01
1.021712e+00	5.761142e-02	-4.562011e-01
9.765682e-01	5.880409e-02	-4.469478e-01
9.307455e-01	5.955548e-02	-4.334805e-01
8.867408e-01	5.995393e-02	-4.208766e-01
8.402900e-01	6.010019e-02	-4.037747e-01
7.917032e-01	6.009652e-02	-3.846400e-01
7.448165e-01	6.005321e-02	-3.634775e-01
8.205869e-01	-2.040963e-02	-1.445023e-01
8.397521e-01	-2.035846e-02	-1.493971e-01
8.527429e-01	-2.022753e-02	-1.555058e-01
8.599102e-01	-1.999169e-02	-1.610744e-01
8.581288e-01	-1.963330e-02	-1.672225e-01
8.551725e-01	-1.913573e-02	-1.725536e-01
8.435602e-01	-1.848924e-02	-1.783646e-01
8.309689e-01	-1.768852e-02	-1.830035e-01
8.104231e-01	-1.670650e-02	-1.890152e-01
7.870499e-01	-1.559272e-02	-1.936369e-01
7.529995e-01	-1.431496e-02	-2.005966e-01
7.117227e-01	-1.290598e-02	-2.045447e-01
6.519259e-01	-1.135017e-02	-2.095300e-01
5.747996e-01	-9.683614e-03	-2.050388e-01
4.700494e-01	-7.916380e-03	-1.950086e-01
3.153489e-01	-6.080911e-03	-1.508808e-01
8.341230e-02	-4.173928e-03	-4.987284e-02
-2.478966e-01	-2.243332e-03	1.900631e-01
-6.762712e-01	-2.282809e-04	9.029896e-01
-4.506987e-01	1.779341e-03	2.858809e+00
2.822764e+00	4.107686e-03	2.826797e+00
2.961145e+00	6.115011e-03	9.149035e-01
2.517417e+00	8.127844e-03	6.493103e-02
2.160306e+00	1.005108e-02	-1.937327e-01
1.910063e+00	1.194096e-02	-3.516273e-01
1.730062e+00	1.374396e-02	-4.143284e-01
1.572608e+00	1.545549e-02	-4.618895e-01
1.455982e+00	1.703499e-02	-4.782101e-01
1.354538e+00	1.846501e-02	-4.920927e-01
1.271604e+00	1.973114e-02	-4.902383e-01
1.198719e+00	2.079673e-02	-4.886537e-01
1.136418e+00	2.165630e-02	-4.793776e-01
1.080501e+00	2.229269e-02	-4.716116e-01
1.029131e+00	2.276391e-02	-4.595139e-01
9.815063e-01	2.306581e-02	-4.492078e-01
9.334699e-01	2.323038e-02	-4.347494e-01
8.875144e-01	2.329284e-02	-4.212437e-01
8.393996e-01	2.329065e-02	-4.033468e-01
7.894811e-01	2.325954e-02	-3.835604e-01
7.416851e-01	2.323341e-02	-3.619494e-01
8.182910e-01	-1.022070e-02	-1.440981e-01
8.367560e-01	-1.019967e-02	-1.488641e-01
8.489985e-01	-1.014341e-02	-1.548229e-01
8.554110e-01	-1.003764e-02	-1.602316e-01
8.528416e-01	-9.872529e-03	-1.661922e-01
8.490473e-01	-9.624786e-03	-1.713177e-01
8.365677e-01	-9.312206e-03	-1.768861e-01
8.226846e-01	-8.914852e-03	-1.811791e-01
8.011476e-01	-8.441643e-03	-1.868518e-01
7.770525e-01	-7.877763e-03	-1.911773e-01
7.415655e-01	-7.238187e-03	-1.975506e-01
6.985335e-01	-6.500446e-03	-2.007542e-01
6.370004e-01	-5.694890e-03	-2.047330e-01
5.577193e-01	-4.819438e-03	-1.989461e-01
4.503469e-01	-3.885496e-03	-1.868347e-01
2.921076e-01	-2.910166e-03	-1.397608e-01
5.570332e-02	-1.896721e-03	-3.330543e-02
-2.820415e-01	-8.631289e-04	2.162421e-01
-7.138547e-01	2.031125e-04	9.531728e-01
-4.665280e-01	1.278650e-03	2.959215e+00
2.894313e+00	2.520566e-03	2.898449e+00
3.020375e+00	3.598564e-03	9.332039e-01
2.559614e+00	4.656450e-03	6.601941e-02
2.191523e+00	5.658410e-03	-1.965321e-01
1.934370e+00	6.637052e-03	-3.561021e-01
1.749662e+00	7.556405e-03	-4.190226e-01
1.588712e+00	8.420205e-03	-4.666193e-01
1.469395e+00	9.209502e-03	-4.826155e-01
1.365759e+00	9.925185e-03	-4.961691e-01
1.281253e+00	1.054405e-02	-4.939584e-01
1.206717e+00	1.108247e-02	-4.919142e-01
1.142417e+00	1.151376e-02	-4.819081e-01
1.085184e+00	1.185187e-02	-4.736555e-01
1.032925e+00	1.209003e-02	-4.612080e-01
9.841673e-01	1.225012e-02	-4.504257e-01
9.351337e-01	1.233115e-02	-4.355243e-01
8.883026e-01	1.237511e-02	-4.216178e-01
8.394444e-01	1.238532e-02	-4.033683e-01
7.889604e-01	1.237850e-02	-3.833074e-01
7.408143e-01	1.236983e-02	-3.615244e-01
8.170573e-01	-5.655345e-03	-1.438808e-01
8.352225e-01	-5.643600e-03	-1.485912e-01
8.470485e-01	-5.612754e-03	-1.544673e-01
8.530034e-01	-5.553357e-03	-1.597806e-01
8.496796e-01	-5.457178e-03	-1.655761e-01
8.454460e-01	-5.316890e-03	-1.705910e-01
8.325799e-01	-5.145471e-03	-1.760429e-01
8.185731e-01	-4.925575e-03	-1.802736e-01
7.964243e-01	-4.660477e-03	-1.857502e-01
7.712502e-01	-4.318751e-03	-1.897497e-01
7.349997e-01	-3.934054e-03	-1.958015e-01
6.911536e-01	-3.498150e-03	-1.986333e-01
6.285802e-01	-3.026872e-03	-2.020267e-01
5.479180e-01	-2.606713e-03	-1.954498e-01
4.389828e-01	-2.063627e-03	-1.821201e-01
2.787249e-01	-1.456533e-03	-1.333578e-01
3.970350e-02	-8.473562e-04	-2.373902e-02
-3.016574e-01	-2.279234e-04	2.312816e-01
-7.353382e-01	4.200419e-04	9.818587e-01
-4.757537e-01	1.049323e-03	3.017735e+00
2.936592e+00	1.809368e-03	2.940788e+00
3.054933e+00	2.442737e-03	9.438810e-01
2.583724e+00	3.070302e-03	6.664127e-02
2.209371e+00	3.660461e-03	-1.981327e-01
1.948129e+00	4.229614e-03	-3.586349e-01
1.760591e+00	4.752665e-03	-4.216399e-01
1.597611e+00	5.238069e-03	-4.692331e-01
1.476835e+00	5.781451e-03	-4.850591e-01
1.371923e+00	6.185237e-03	-4.984084e-01
1.286208e+00	6.523024e-03	-4.958686e-01
1.210862e+00	6.803284e-03	-4.936040e-01
1.146250e+00	7.033230e-03	-4.835251e-01
1.088222e+00	7.231191e-03	-4.749818e-01
1.034901e+00	7.373756e-03	-4.620902e-01
9.854428e-01	7.471985e-03	-4.510094e-01
9.358531e-01	7.520526e-03	-4.358593e-01
8.888473e-01	7.543894e-03	-4.218764e-01
8.396012e-01	7.550308e-03	-4.034437e-01
7.887876e-01	7.547151e-03	-3.832235e-01
7.403587e-01	7.542256e-03	-3.613021e-01
8.163200e-01	-3.302309e-03	-1.437510e-01
8.342652e-01	-3.295606e-03	-1.484209e-01
8.458207e-01	-3.277853e-03	-1.542434e-01
8.514356e-01	-3.243877e-03	-1.594870e-01
8.480082e-01	-3.211600e-03	-1.652504e-01
8.436421e-01	-3.125444e-03	-1.702270e-01
8.305141e-01	-3.003520e-03	-1.756061e-01
8.157775e-01	-2.856190e-03	-1.796579e-01
7.929505e-01	-2.669481e-03	-1.849400e-01
7.675157e-01	-2.435635e-03	-1.888310e-01
7.308406e-01	-2.195038e-03	-1.946935e-01
6.864413e-01	-1.968344e-03	-1.972790e-01
6.245810e-01	-1.653768e-03	-2.007414e-01
5.434747e-01	-1.434432e-03	-1.938648e-01
4.316729e-01	-1.068971e-03	-1.790874e-01
2.696750e-01	-6.906414e-04	-1.290278e-01
2.946521e-02	-2.946458e-04	-1.761747e-02
-3.144536e-01	1.000809e-04	2.410925e-01
-7.492160e-01	5.254257e-04	1.000389e+00
-4.814890e-01	9.336022e-04	3.054114e+00
2.962435e+00	1.404619e-03	2.966669e+00
3.075798e+00	1.792279e-03	9.503279e-01
2.598790e+00	2.189591e-03	6.702987e-02
2.220221e+00	2.560816e-03	-1.991057e-01
1.956254e+00	2.911869e-03	-3.601307e-01
1.766922e+00	3.239384e-03	-4.231559e-01
1.604349e+00	3.653854e-03	-4.712120e-01
1.482477e+00	3.911955e-03	-4.869123e-01
1.375416e+00	4.156168e-03	-4.996774e-01
1.289051e+00	4.376212e-03	-4.969649e-01
1.213106e+00	4.543029e-03	-4.945186e-01
1.147880e+00	4.651305e-03	-4.842127e-01
1.089745e+00	4.748905e-03	-4.756463e-01
1.036412e+00	4.828152e-03	-4.627648e-01
9.865652e-01	4.881460e-03	-4.515231e-01
9.365114e-01	4.954178e-03	-4.361659e-01
8.890308e-01	4.956699e-03	-4.219635e-01
8.395989e-01	4.955073e-03	-4.034426e-01
7.886118e-01	4.951340e-03	-3.831380e-01
7.400646e-01	4.948128e-03	-3.611586e-01
8.159325e-01	-2.043175e-03	-1.436827e-01
8.337910e-01	-2.039210e-03	-1.483366e-01
8.452279e-01	-2.029268e-03	-1.541353e-01
8.513654e-01	-2.011240e-03	-1.594738e-01
8.471998e-01	-1.982239e-03	-1.650928e-01
8.418207e-01	-2.027729e-03	-1.698595e-01
8.284205e-01	-1.936464e-03	-1.751634e-01
8.138122e-01	-1.798513e-03	-1.792251e-01
7.907449e-01	-1.696285e-03	-1.844256e-01
7.650229e-01	-1.552590e-03	-1.882176e-01
7.288890e-01	-1.394500e-03	-1.941736e-01
6.839567e-01	-1.222484e-03	-1.965649e-01
6.211131e-01	-1.021677e-03	-1.996268e-01
5.393214e-01	-7.414123e-04	-1.923833e-01
4.268769e-01	-5.059304e-04	-1.770977e-01
2.644701e-01	-2.984049e-04	-1.265375e-01
2.279732e-02	-5.426871e-05	-1.363069e-02
-3.225795e-01	1.683252e-04	2.473227e-01
-7.584428e-01	4.278810e-04	1.012709e+00
-4.852597e-01	7.000822e-04	3.078031e+00
2.978525e+00	9.782485e-04	2.982782e+00
3.089554e+00	1.229768e-03	9.545782e-01
2.608437e+00	1.471383e-03	6.727867e-02
2.227230e+00	1.730054e-03	-1.997343e-01
1.961734e+00	1.950390e-03	-3.611395e-01
1.773417e+00	2.164223e-03	-4.247115e-01
1.607692e+00	2.362733e-03	-4.721938e-01
1.483800e+00	2.464593e-03	-4.873467e-01
1.377973e+00	2.610180e-03	-5.006064e-01
1.291088e+00	2.747871e-03	-4.977500e-01
1.214309e+00	2.862592e-03	-4.950090e-01
1.148877e+00	2.955821e-03	-4.846334e-01
1.090587e+00	3.059203e-03	-4.760138e-01
1.036821e+00	3.131016e-03	-4.629477e-01
9.874362e-01	3.247134e-03	-4.519217e-01
9.373697e-01	3.235057e-03	-4.365657e-01
8.888798e-01	3.227868e-03	-4.218918e-01
8.394503e-01	3.224408e-03	-4.033712e-01
7.884561e-01	3.220992e-03	-3.830624e-01
7.398667e-01	3.218675e-03	-3.610620e-01
8.156546e-01	-1.112008e-03	-1.436338e-01
8.334562e-01	-1.108874e-03	-1.482770e-01
8.448405e-01	-1.099125e-03	-1.540647e-01
8.502344e-01	-1.105841e-03	-1.592620e-01
8.484779e-01	-1.056775e-03	-1.653419e-01
8.426978e-01	-1.039475e-03	-1.700365e-01
8.269545e-01	-1.003793e-03	-1.748534e-01
8.123829e-01	-9.793322e-04	-1.789103e-01
7.896259e-01	-9.900524e-04	-1.841646e-01
7.635540e-01	-9.126649e-04	-1.878563e-01
7.265258e-01	-8.120129e-04	-1.935440e-01
6.814757e-01	-6.909390e-04	-1.958519e-01
6.179264e-01	-5.791498e-04	-1.986025e-01
5.357682e-01	-3.448564e-04	-1.911158e-01
4.244251e-01	-2.543925e-04	-1.760805e-01
2.614030e-01	-1.261042e-04	-1.250700e-01
1.943453e-02	1.134369e-05	-1.162005e-02
-3.266764e-01	1.535643e-04	2.504637e-01
-7.638227e-01	3.031883e-04	1.019893e+00
-4.875038e-01	4.522824e-04	3.092266e+00
2.988519e+00	6.238825e-04	2.992790e+00
3.097405e+00	7.696720e-04	9.570036e-01
2.615054e+00	9.129996e-04	6.744935e-02
2.231993e+00	1.046867e-03	-2.001614e-01
1.964974e+00	1.174753e-03	-3.617360e-01
1.773979e+00	1.294915e-03	-4.248460e-01
1.608831e+00	1.322277e-03	-4.725285e-01
1.485931e+00	1.434268e-03	-4.880466e-01
1.379109e+00	1.541671e-03	-5.010192e-01
1.292236e+00	1.598736e-03	-4.981927e-01
1.215710e+00	1.662324e-03	-4.955801e-01
1.150384e+00	1.803706e-03	-4.852691e-01
1.092093e+00	1.820557e-03	-4.766711e-01
1.039078e+00	1.857251e-03	-4.639554e-01
9.883631e-01	1.861492e-03	-4.523460e-01
9.361454e-01	1.835232e-03	-4.359955e-01
8.887772e-01	1.844728e-03	-4.218431e-01
8.393894e-01	1.869748e-03	-4.033419e-01
7.883278e-01	1.866999e-03	-3.830001e-01
7.397098e-01	1.865540e-03	-3.609854e-01
8.154065e-01	-1.361018e-03	-1.435901e-01
8.330236e-01	-1.361112e-03	-1.482000e-01
8.452312e-01	-1.361963e-03	-1.541360e-01
8.501386e-01	-1.344680e-03	-1.592440e-01
8.459253e-01	-1.304030e-03	-1.648444e-01
8.408871e-01	-1.257395e-03	-1.696712e-01
8.275040e-01	-1.094390e-03	-1.749696e-01
8.136327e-01	-1.186850e-03	-1.791856e-01
7.898239e-01	-9.679161e-04	-1.842108e-01
7.626847e-01	-1.017669e-03	-1.876424e-01
7.259917e-01	-6.613532e-04	-1.934018e-01
6.808479e-01	-7.495386e-04	-1.956715e-01
6.163548e-01	-3.138137e-04	-1.980974e-01
5.343856e-01	-3.767849e-04	-1.906226e-01
4.233523e-01	8.229595e-05	-1.756355e-01
2.595831e-01	4.186366e-04	-1.241992e-01
1.683080e-02	6.099133e-04	-1.006326e-02
-3.300396e-01	6.548249e-04	2.530423e-01
-7.666913e-01	7.002902e-04	1.023723e+00
-4.887278e-01	7.598720e-04	3.100030e+00
2.994069e+00	8.392206e-04	2.998347e+00
3.102252e+00	9.159961e-04	9.585013e-01
2.617350e+00	1.010621e-03	6.750856e-02
2.233706e+00	1.090852e-03	-2.003151e-01
1.966709e+00	1.023483e-03	-3.620553e-01
1.775845e+00	8.037906e-04	-4.252930e-01
1.609866e+00	4.542017e-04	-4.728324e-01
1.486842e+00	6.167529e-04	-4.883460e-01
1.380105e+00	2.989684e-04	-5.013810e-01
1.292612e+00	4.279463e-04	-4.983374e-01
1.216869e+00	1.324073e-04	-4.960529e-01
1.150925e+00	2.822284e-04	-4.854971e-01
1.091292e+00	2.139407e-05	-4.763216e-01
1.037431e+00	7.676717e-05	-4.632201e-01
9.871165e-01	-1.275800e-04	-4.517754e-01
9.369973e-01	-7.195116e-05	-4.363922e-01
8.896216e-01	-8.889359e-05	-4.222439e-01
8.402889e-01	-9.545734e-05	-4.037741e-01
7.882403e-01	-9.053808e-05	-3.829576e-01
7.396432e-01	-8.948602e-05	-3.609529e-01
8.156704e-01	4.819265e-05	-1.436366e-01
8.335170e-01	3.070316e-05	-1.482878e-01
8.441801e-01	2.923403e-05	-1.539443e-01
8.487236e-01	5.075752e-05	-1.589790e-01
8.467129e-01	4.889190e-05	-1.649979e-01
8.389539e-01	4.864637e-05	-1.692811e-01
8.260600e-01	4.884045e-05	-1.746643e-01
8.104481e-01	5.314523e-05	-1.784842e-01
7.874151e-01	9.978851e-05	-1.836490e-01
7.595041e-01	8.357409e-05	-1.868599e-01
7.229851e-01	7.094343e-05	-1.926008e-01
6.769794e-01	6.728434e-05	-1.945597e-01
6.125211e-01	5.432268e-06	-1.968653e-01
5.302497e-01	7.147841e-06	-1.891473e-01
4.113353e-01	3.711819e-05	-1.706500e-01
2.514341e-01	3.751953e-06	-1.203003e-01
1.402190e-02	6.114068e-06	-8.383799e-03
-3.289937e-01	7.753875e-06	2.522404e-01
-7.666425e-01	8.085934e-06	1.023658e+00
-4.889870e-01	7.480399e-06	3.101674e+00
2.996253e+00	6.077067e-06	3.000535e+00
3.105106e+00	4.397035e-06	9.593831e-01
2.620633e+00	2.160123e-06	6.759324e-02
2.231886e+00	-1.022985e-06	-2.001519e-01
1.958931e+00	2.993710e-05	-3.606235e-01
1.764068e+00	2.469961e-05	-4.224726e-01
1.606371e+00	-1.082383e-05	-4.718060e-01
1.483563e+00	3.849625e-05	-4.872690e-01
1.376763e+00	2.283602e-05	-5.001668e-01
1.290101e+00	1.127619e-05	-4.973696e-01
1.213858e+00	3.186791e-06	-4.948254e-01
1.149069e+00	-7.872404e-05	-4.847141e-01
1.089222e+00	-3.822160e-05	-4.754183e-01
1.037121e+00	-3.778165e-05	-4.630813e-01
9.857121e-01	-3.575074e-05	-4.511327e-01
9.369878e-01	-3.519433e-05	-4.363878e-01
8.882111e-01	-3.376249e-05	-4.215744e-01
8.392729e-01	-5.589726e-05	-4.032859e-01
7.886650e-01	-5.474221e-05	-3.831639e-01
7.398709e-01	-3.731410e-05	-3.610640e-01
8.183417e-01	1.463692e-03	-1.441070e-01
8.337234e-01	1.464071e-03	-1.483245e-01
8.444198e-01	1.465966e-03	-1.539880e-01
8.497249e-01	1.451438e-03	-1.591665e-01
8.459647e-01	1.415041e-03	-1.648521e-01
8.408875e-01	1.461196e-03	-1.696712e-01
8.274317e-01	1.288235e-03	-1.749543e-01
8.128904e-01	1.349468e-03	-1.790221e-01
7.894300e-01	1.081878e-03	-1.841190e-01
7.630630e-01	1.128352e-03	-1.877355e-01
7.262054e-01	7.745007e-04	-1.934587e-01
6.817062e-01	7.843198e-04	-1.959182e-01
6.172194e-01	3.496186e-04	-1.983753e-01
5.339344e-01	4.368157e-04	-1.904617e-01
4.233410e-01	-5.761202e-05	-1.756308e-01
2.602131e-01	-3.945433e-04	-1.245007e-01
1.674345e-02	-5.878252e-04	-1.001104e-02
-3.300956e-01	-6.094772e-04	2.530853e-01
-7.666891e-01	-6.858775e-04	1.023720e+00
-4.887074e-01	-7.471627e-04	3.099901e+00
2.993913e+00	-8.306463e-04	2.998191e+00
3.102075e+00	-8.832438e-04	9.584465e-01
2.617169e+00	-9.788824e-04	6.750392e-02
2.234494e+00	-1.093153e-03	-2.003857e-01
1.967162e+00	-1.031543e-03	-3.621387e-01
1.775112e+00	-7.857502e-04	-4.251175e-01
1.610137e+00	-4.458191e-04	-4.729121e-01
1.487281e+00	-6.467566e-04	-4.884900e-01
1.379751e+00	-3.439673e-04	-5.012524e-01
1.292364e+00	-4.105717e-04	-4.982419e-01
1.215748e+00	-1.335472e-04	-4.955955e-01
1.150367e+00	-2.739097e-04	-4.852619e-01
1.091854e+00	-2.859206e-05	-4.765671e-01
1.037466e+00	-1.348117e-04	-4.632354e-01
9.871594e-01	-3.357665e-05	-4.517951e-01
9.370327e-01	-6.098077e-05	-4.364087e-01
8.892181e-01	-3.132967e-05	-4.220524e-01
8.395156e-01	-2.159706e-05	-4.034025e-01
7.888583e-01	-2.575187e-05	-3.832578e-01
7.423122e-01	-2.672116e-05	-3.622554e-01
8.156069e-01	1.190625e-03	-1.436254e-01
8.333758e-01	1.205228e-03	-1.482627e-01
8.447036e-01	1.197914e-03	-1.540397e-01
8.500559e-01	1.191994e-03	-1.592285e-01
8.463635e-01	1.080270e-03	-1.649299e-01
8.413878e-01	1.055141e-03	-1.697722e-01
8.276036e-01	9.802869e-04	-1.749907e-01
8.135250e-01	9.583750e-04	-1.791619e-01
7.903141e-01	9.293884e-04	-1.843251e-01
7.635643e-01	8.550627e-04	-1.878588e-01
7.275118e-01	7.706855e-04	-1.938067e-01
6.825286e-01	7.025143e-04	-1.961545e-01
6.175856e-01	6.237007e-04	-1.984930e-01
5.358909e-01	4.758933e-04	-1.911596e-01
4.250472e-01	3.422114e-04	-1.763386e-01
2.614485e-01	2.356696e-04	-1.250918e-01
1.904296e-02	8.781792e-05	-1.138593e-02
-3.267027e-01	-6.211589e-05	2.504839e-01
-7.627566e-01	-2.175950e-04	1.018469e+00
-4.874445e-01	-3.713551e-04	3.091890e+00
2.989762e+00	-5.476925e-04	2.994034e+00
3.098197e+00	-6.972257e-04	9.572484e-01
2.613749e+00	-8.438863e-04	6.741570e-02
2.231087e+00	-9.798751e-04	-2.000802e-01
1.965440e+00	-1.143369e-03	-3.618217e-01
1.774221e+00	-1.260407e-03	-4.249041e-01
1.608082e+00	-1.368059e-03	-4.723084e-01
1.485200e+00	-1.497598e-03	-4.878067e-01
1.379747e+00	-1.580492e-03	-5.012511e-01
1.292784e+00	-1.643040e-03	-4.984038e-01
1.215595e+00	-1.694111e-03	-4.955332e-01
1.150313e+00	-1.732025e-03	-4.852390e-01
1.091223e+00	-1.791151e-03	-4.762916e-01
1.036905e+00	-1.798729e-03	-4.629850e-01
9.870277e-01	-1.821798e-03	-4.517348e-01
9.369317e-01	-1.843932e-03	-4.363616e-01
8.891669e-01	-1.762101e-03	-4.220281e-01
8.395231e-01	-1.772726e-03	-4.034061e-01
7.883777e-01	-1.772549e-03	-3.830243e-01
7.397224e-01	-1.788986e-03	-3.609916e-01
8.158909e-01	1.715646e-03	-1.436754e-01
8.337171e-01	1.704737e-03	-1.483234e-01
8.448505e-01	1.581170e-03	-1.540665e-01
8.529774e-01	1.673805e-03	-1.597758e-01
8.485537e-01	1.701164e-03	-1.653567e-01
8.426665e-01	1.710195e-03	-1.700302e-01
8.288803e-01	1.668541e-03	-1.752606e-01
8.136163e-01	1.604562e-03	-1.791820e-01
7.908339e-01	1.532742e-03	-1.844464e-01
7.651466e-01	1.414682e-03	-1.882481e-01
7.282011e-01	1.270541e-03	-1.939904e-01
6.836641e-01	1.187901e-03	-1.964809e-01
6.203402e-01	9.832962e-04	-1.993783e-01
5.381331e-01	7.865042e-04	-1.919594e-01