# vtk DataFile Version 2.0
OUTPUT by 3D-VPM
ASCII
DATASET UNSTRUCTURED_GRID
POINTS 820 double
9.510565e-01	0.000000e+00	-3.090170e-01
9.442611e-01	0.000000e+00	-3.078203e-01
9.267277e-01	0.000000e+00	-3.047010e-01
8.963175e-01	0.000000e+00	-2.991555e-01
8.562911e-01	0.000000e+00	-2.916579e-01
8.054250e-01	0.000000e+00	-2.817457e-01
7.470317e-01	0.000000e+00	-2.699633e-01
6.809074e-01	0.000000e+00	-2.559818e-01
6.100852e-01	0.000000e+00	-2.403847e-01
5.354138e-01	0.000000e+00	-2.229691e-01
4.593635e-01	0.000000e+00	-2.042585e-01
3.837764e-01	0.000000e+00	-1.841224e-01
3.103069e-01	0.000000e+00	-1.630077e-01
2.415927e-01	0.000000e+00	-1.409228e-01
1.782654e-01	0.000000e+00	-1.183331e-01
1.234349e-01	0.000000e+00	-9.558566e-02
7.662509e-02	0.000000e+00	-7.318920e-02
4.106998e-02	0.000000e+00	-5.193053e-02
1.528206e-02	0.000000e+00	-3.215886e-02
2.347037e-03	0.000000e+00	-1.488740e-02
0.000000e+00	0.000000e+00	0.000000e+00
1.064939e-02	0.000000e+00	1.066461e-02
3.126595e-02	0.000000e+00	1.703450e-02
6.375031e-02	0.000000e+00	1.787236e-02
1.050105e-01	0.000000e+00	1.417221e-02
1.560448e-01	0.000000e+00	4.777214e-03
2.137742e-01	0.000000e+00	-9.048270e-03
2.782849e-01	0.000000e+00	-2.799567e-02
3.468570e-01	0.000000e+00	-5.051783e-02
4.187060e-01	0.000000e+00	-7.662000e-02
4.916930e-01	0.000000e+00	-1.047585e-01
5.642168e-01	0.000000e+00	-1.343226e-01
6.348639e-01	0.000000e+00	-1.641238e-01
7.013280e-01	0.000000e+00	-1.931337e-01
7.630418e-01	0.000000e+00	-2.206893e-01
8.172084e-01	0.000000e+00	-2.454799e-01
8.641863e-01	0.000000e+00	-2.673591e-01
9.009752e-01	0.000000e+00	-2.848204e-01
9.288372e-01	0.000000e+00	-2.982085e-01
9.448555e-01	0.000000e+00	-3.059908e-01
9.510565e-01	0.000000e+00	-3.090170e-01
9.510565e-01	1.052632e+00	-3.090170e-01
9.442611e-01	1.052632e+00	-3.078203e-01
9.267277e-01	1.052632e+00	-3.047010e-01
8.963175e-01	1.052632e+00	-2.991555e-01
8.562911e-01	1.052632e+00	-2.916579e-01
8.054250e-01	1.052632e+00	-2.817457e-01
7.470317e-01	1.052632e+00	-2.699633e-01
6.809074e-01	1.052632e+00	-2.559818e-01
6.100852e-01	1.052632e+00	-2.403847e-01
5.354138e-01	1.052632e+00	-2.229691e-01
4.593635e-01	1.052632e+00	-2.042585e-01
3.837764e-01	1.052632e+00	-1.841224e-01
3.103069e-01	1.052632e+00	-1.630077e-01
2.415927e-01	1.052632e+00	-1.409228e-01
1.782654e-01	1.052632e+00	-1.183331e-01
1.234349e-01	1.052632e+00	-9.558566e-02
7.662509e-02	1.052632e+00	-7.318920e-02
4.106998e-02	1.052632e+00	-5.193053e-02
1.528206e-02	1.052632e+00	-3.215886e-02
2.347037e-03	1.052632e+00	-1.488740e-02
0.000000e+00	1.052632e+00	0.000000e+00
1.064939e-02	1.052632e+00	1.066461e-02
3.126595e-02	1.052632e+00	1.703450e-02
6.375031e-02	1.052632e+00	1.787236e-02
1.050105e-01	1.052632e+00	1.417221e-02
1.560448e-01	1.052632e+00	4.777214e-03
2.137742e-01	1.052632e+00	-9.048270e-03
2.782849e-01	1.052632e+00	-2.799567e-02
3.468570e-01	1.052632e+00	-5.051783e-02
4.187060e-01	1.052632e+00	-7.662000e-02
4.916930e-01	1.052632e+00	-1.047585e-01
5.642168e-01	1.052632e+00	-1.343226e-01
6.348639e-01	1.052632e+00	-1.641238e-01
7.013280e-01	1.052632e+00	-1.931337e-01
7.630418e-01	1.052632e+00	-2.206893e-01
8.172084e-01	1.052632e+00	-2.454799e-01
8.641863e-01	1.052632e+00	-2.673591e-01
9.009752e-01	1.052632e+00	-2.848204e-01
9.288372e-01	1.052632e+00	-2.982085e-01
9.448555e-01	1.052632e+00	-3.059908e-01
9.510565e-01	1.052632e+00	-3.090170e-01
9.510565e-01	2.105263e+00	-3.090170e-01
9.442611e-01	2.105263e+00	-3.078203e-01
9.267277e-01	2.105263e+00	-3.047010e-01
8.963175e-01	2.105263e+00	-2.991555e-01
8.562911e-01	2.105263e+00	-2.916579e-01
8.054250e-01	2.105263e+00	-2.817457e-01
7.470317e-01	2.105263e+00	-2.699633e-01
6.809074e-01	2.105263e+00	-2.559818e-01
6.100852e-01	2.105263e+00	-2.403847e-01
5.354138e-01	2.105263e+00	-2.229691e-01
4.593635e-01	2.105263e+00	-2.042585e-01
3.837764e-01	2.105263e+00	-1.841224e-01
3.103069e-01	2.105263e+00	-1.630077e-01
2.415927e-01	2.105263e+00	-1.409228e-01
1.782654e-01	2.105263e+00	-1.183331e-01
1.234349e-01	2.105263e+00	-9.558566e-02
7.662509e-02	2.105263e+00	-7.318920e-02
4.106998e-02	2.105263e+00	-5.193053e-02
1.528206e-02	2.105263e+00	-3.215886e-02
2.347037e-03	2.105263e+00	-1.488740e-02
0.000000e+00	2.105263e+00	0.000000e+00
1.064939e-02	2.105263e+00	1.066461e-02
3.126595e-02	2.105263e+00	1.703450e-02
6.375031e-02	2.105263e+00	1.787236e-02
1.050105e-01	2.105263e+00	1.417221e-02
1.560448e-01	2.105263e+00	4.777214e-03
2.137742e-01	2.105263e+00	-9.048270e-03
2.782849e-01	2.105263e+00	-2.799567e-02
3.468570e-01	2.105263e+00	-5.051783e-02
4.187060e-01	2.105263e+00	-7.662000e-02
4.916930e-01	2.105263e+00	-1.047585e-01
5.642168e-01	2.105263e+00	-1.343226e-01
6.348639e-01	2.105263e+00	-1.641238e-01
7.013280e-01	2.105263e+00	-1.931337e-01
7.630418e-01	2.105263e+00	-2.206893e-01
8.172084e-01	2.105263e+00	-2.454799e-01
8.641863e-01	2.105263e+00	-2.673591e-01
9.009752e-01	2.105263e+00	-2.848204e-01
9.288372e-01	2.105263e+00	-2.982085e-01
9.448555e-01	2.105263e+00	-3.059908e-01
9.510565e-01	2.105263e+00	-3.090170e-01
9.510565e-01	3.157895e+00	-3.090170e-01
9.442611e-01	3.157895e+00	-3.078203e-01
9.267277e-01	3.157895e+00	-3.047010e-01
8.963175e-01	3.157895e+00	-2.991555e-01
8.562911e-01	3.157895e+00	-2.916579e-01
8.054250e-01	3.157895e+00	-2.817457e-01
7.470317e-01	3.157895e+00	-2.699633e-01
6.809074e-01	3.157895e+00	-2.559818e-01
6.100852e-01	3.157895e+00	-2.403847e-01
5.354138e-01	3.157895e+00	-2.229691e-01
4.593635e-01	3.157895e+00	-2.042585e-01
3.837764e-01	3.157895e+00	-1.841224e-01
3.103069e-01	3.157895e+00	-1.630077e-01
2.415927e-01	3.157895e+00	-1.409228e-01
1.782654e-01	3.157895e+00	-1.183331e-01
1.234349e-01	3.157895e+00	-9.558566e-02
7.662509e-02	3.157895e+00	-7.318920e-02
4.106998e-02	3.157895e+00	-5.193053e-02
1.528206e-02	3.157895e+00	-3.215886e-02
2.347037e-03	3.157895e+00	-1.488740e-02
0.000000e+00	3.157895e+00	0.000000e+00
1.064939e-02	3.157895e+00	1.066461e-02
3.126595e-02	3.157895e+00	1.703450e-02
6.375031e-02	3.157895e+00	1.787236e-02
1.050105e-01	3.157895e+00	1.417221e-02
1.560448e-01	3.157895e+00	4.777214e-03
2.137742e-01	3.157895e+00	-9.048270e-03
2.782849e-01	3.157895e+00	-2.799567e-02
3.468570e-01	3.157895e+00	-5.051783e-02
4.187060e-01	3.157895e+00	-7.662000e-02
4.916930e-01	3.157895e+00	-1.047585e-01
5.642168e-01	3.157895e+00	-1.343226e-01
6.348639e-01	3.157895e+00	-1.641238e-01
7.013280e-01	3.157895e+00	-1.931337e-01
7.630418e-01	3.157895e+00	-2.206893e-01
8.172084e-01	3.157895e+00	-2.454799e-01
8.641863e-01	3.157895e+00	-2.673591e-01
9.009752e-01	3.157895e+00	-2.848204e-01
9.288372e-01	3.157895e+00	-2.982085e-01
9.448555e-01	3.157895e+00	-3.059908e-01
9.510565e-01	3.157895e+00	-3.090170e-01
9.510565e-01	4.210526e+00	-3.090170e-01
9.442611e-01	4.210526e+00	-3.078203e-01
9.267277e-01	4.210526e+00	-3.047010e-01
8.963175e-01	4.210526e+00	-2.991555e-01
8.562911e-01	4.210526e+00	-2.916579e-01
8.054250e-01	4.210526e+00	-2.817457e-01
7.470317e-01	4.210526e+00	-2.699633e-01
6.809074e-01	4.210526e+00	-2.559818e-01
6.100852e-01	4.210526e+00	-2.403847e-01
5.354138e-01	4.210526e+00	-2.229691e-01
4.593635e-01	4.210526e+00	-2.042585e-01
3.837764e-01	4.210526e+00	-1.841224e-01
3.103069e-01	4.210526e+00	-1.630077e-01
2.415927e-01	4.210526e+00	-1.409228e-01
1.782654e-01	4.210526e+00	-1.183331e-01
1.234349e-01	4.210526e+00	-9.558566e-02
7.662509e-02	4.210526e+00	-7.318920e-02
4.106998e-02	4.210526e+00	-5.193053e-02
1.528206e-02	4.210526e+00	-3.215886e-02
2.347037e-03	4.210526e+00	-1.488740e-02
0.000000e+00	4.210526e+00	0.000000e+00
1.064939e-02	4.210526e+00	1.066461e-02
3.126595e-02	4.210526e+00	1.703450e-02
6.375031e-02	4.210526e+00	1.787236e-02
1.050105e-01	4.210526e+00	1.417221e-02
1.560448e-01	4.210526e+00	4.777214e-03
2.137742e-01	4.210526e+00	-9.048270e-03
2.782849e-01	4.210526e+00	-2.799567e-02
3.468570e-01	4.210526e+00	-5.051783e-02
4.187060e-01	4.210526e+00	-7.662000e-02
4.916930e-01	4.210526e+00	-1.047585e-01
5.642168e-01	4.210526e+00	-1.343226e-01
6.348639e-01	4.210526e+00	-1.641238e-01
7.013280e-01	4.210526e+00	-1.931337e-01
7.630418e-01	4.210526e+00	-2.206893e-01
8.172084e-01	4.210526e+00	-2.454799e-01
8.641863e-01	4.210526e+00	-2.673591e-01
9.009752e-01	4.210526e+00	-2.848204e-01
9.288372e-01	4.210526e+00	-2.982085e-01
9.448555e-01	4.210526e+00	-3.059908e-01
9.510565e-01	4.210526e+00	-3.090170e-01
9.510565e-01	5.263158e+00	-3.090170e-01
9.442611e-01	5.263158e+00	-3.078203e-01
9.267277e-01	5.263158e+00	-3.047010e-01
8.963175e-01	5.263158e+00	-2.991555e-01
8.562911e-01	5.263158e+00	-2.916579e-01
8.054250e-01	5.263158e+00	-2.817457e-01
7.470317e-01	5.263158e+00	-2.699633e-01
6.809074e-01	5.263158e+00	-2.559818e-01
6.100852e-01	5.263158e+00	-2.403847e-01
5.354138e-01	5.263158e+00	-2.229691e-01
4.593635e-01	5.263158e+00	-2.042585e-01
3.837764e-01	5.263158e+00	-1.841224e-01
3.103069e-01	5.263158e+00	-1.630077e-01
2.415927e-01	5.263158e+00	-1.409228e-01
1.782654e-01	5.263158e+00	-1.183331e-01
1.234349e-01	5.263158e+00	-9.558566e-02
7.662509e-02	5.263158e+00	-7.318920e-02
4.106998e-02	5.263158e+00	-5.193053e-02
1.528206e-02	5.263158e+00	-3.215886e-02
2.347037e-03	5.263158e+00	-1.488740e-02
0.000000e+00	5.263158e+00	0.000000e+00
1.064939e-02	5.263158e+00	1.066461e-02
3.126595e-02	5.263158e+00	1.703450e-02
6.375031e-02	5.263158e+00	1.787236e-02
1.050105e-01	5.263158e+00	1.417221e-02
1.560448e-01	5.263158e+00	4.777214e-03
2.137742e-01	5.263158e+00	-9.048270e-03
2.782849e-01	5.263158e+00	-2.799567e-02
3.468570e-01	5.263158e+00	-5.051783e-02
4.187060e-01	5.263158e+00	-7.662000e-02
4.916930e-01	5.263158e+00	-1.047585e-01
5.642168e-01	5.263158e+00	-1.343226e-01
6.348639e-01	5.263158e+00	-1.641238e-01
7.013280e-01	5.263158e+00	-1.931337e-01
7.630418e-01	5.263158e+00	-2.206893e-01
8.172084e-01	5.263158e+00	-2.454799e-01
8.641863e-01	5.263158e+00	-2.673591e-01
9.009752e-01	5.263158e+00	-2.848204e-01
9.288372e-01	5.263158e+00	-2.982085e-01
9.448555e-01	5.263158e+00	-3.059908e-01
9.510565e-01	5.263158e+00	-3.090170e-01
9.510565e-01	6.315789e+00	-3.090170e-01
9.442611e-01	6.315789e+00	-3.078203e-01
[...]
CELL_DATA 760
VECTORS V double
8.414237e-01	-6.903438e-02	-1.481716e-01
8.655448e-01	-6.886080e-02	-1.539858e-01
8.835596e-01	-6.841104e-02	-1.611255e-01
8.953254e-01	-6.761665e-02	-1.677082e-01
8.977903e-01	-6.645572e-02	-1.749513e-01
8.991026e-01	-6.491064e-02	-1.814177e-01
8.920647e-01	-6.297107e-02	-1.886205e-01
8.847541e-01	-6.061295e-02	-1.948486e-01
8.704199e-01	-5.780775e-02	-2.030082e-01
8.547797e-01	-5.452300e-02	-2.103004e-01
8.294747e-01	-5.073311e-02	-2.209693e-01
7.985528e-01	-4.642390e-02	-2.294992e-01
7.512034e-01	-4.162835e-02	-2.414380e-01
6.891788e-01	-3.639764e-02	-2.458395e-01
6.025276e-01	-3.076968e-02	-2.499697e-01
4.718504e-01	-2.486733e-02	-2.257599e-01
2.701390e-01	-1.869850e-02	-1.615181e-01
-1.743713e-02	-1.242935e-02	1.336910e-02
-4.218287e-01	-5.861371e-03	5.632459e-01
-3.427049e-01	7.194898e-04	2.173798e+00
2.327104e+00	8.432967e-03	2.330430e+00
2.541764e+00	1.519802e-02	7.853276e-01
2.210603e+00	2.214462e-02	5.701746e-02
1.925565e+00	2.899228e-02	-1.726815e-01
1.720214e+00	3.598204e-02	-3.166776e-01
1.570427e+00	4.294893e-02	-3.760979e-01
1.435572e+00	4.988722e-02	-4.216405e-01
1.336752e+00	5.661844e-02	-4.390496e-01
1.250652e+00	6.302440e-02	-4.543518e-01
1.181709e+00	6.890726e-02	-4.555813e-01
1.121878e+00	7.415159e-02	-4.573299e-01
1.071619e+00	7.862016e-02	-4.520435e-01
1.027479e+00	8.225074e-02	-4.484688e-01
9.872038e-01	8.503574e-02	-4.407931e-01
9.499821e-01	8.702646e-02	-4.347800e-01
9.115296e-01	8.832082e-02	-4.245310e-01
8.743622e-01	8.904712e-02	-4.150013e-01
8.341876e-01	8.935444e-02	-4.008423e-01
7.910590e-01	8.939840e-02	-3.843270e-01
7.483077e-01	8.935273e-02	-3.651813e-01
8.268581e-01	-4.834441e-02	-1.456067e-01
8.473461e-01	-4.822010e-02	-1.507481e-01
8.618089e-01	-4.790157e-02	-1.571590e-01
8.704952e-01	-4.733776e-02	-1.630571e-01
8.702470e-01	-4.650602e-02	-1.695840e-01
8.688632e-01	-4.538753e-02	-1.753161e-01
8.588645e-01	-4.397162e-02	-1.816005e-01
8.479950e-01	-4.224329e-02	-1.867531e-01
8.293252e-01	-4.018771e-02	-1.934237e-01
8.083376e-01	-3.778971e-02	-1.988743e-01
7.765497e-01	-3.501955e-02	-2.068703e-01
7.378900e-01	-3.192762e-02	-2.120651e-01
6.815857e-01	-2.849136e-02	-2.190627e-01
6.085337e-01	-2.476583e-02	-2.170723e-01
5.087332e-01	-2.077697e-02	-2.110573e-01
3.607315e-01	-1.660784e-02	-1.725944e-01
1.373223e-01	-1.226023e-02	-8.210600e-02
-1.815633e-01	-7.847539e-03	1.392051e-01
-6.032661e-01	-3.229963e-03	8.055097e-01
-4.198741e-01	1.389670e-03	2.663287e+00
2.682629e+00	6.789962e-03	2.686462e+00
2.844205e+00	1.150609e-02	8.787725e-01
2.433339e+00	1.632034e-02	6.276244e-02
2.097400e+00	2.102972e-02	-1.880914e-01
1.860537e+00	2.579292e-02	-3.425099e-01
1.689688e+00	3.049035e-02	-4.046594e-01
1.539097e+00	3.511620e-02	-4.520469e-01
1.427836e+00	3.955232e-02	-4.689657e-01
1.330741e+00	4.372684e-02	-4.834474e-01
1.251923e+00	4.753219e-02	-4.826509e-01
1.182685e+00	5.085800e-02	-4.821177e-01
1.123351e+00	5.367550e-02	-4.738655e-01
1.070403e+00	5.593496e-02	-4.672043e-01
1.021751e+00	5.764079e-02	-4.562184e-01
9.765974e-01	5.883425e-02	-4.469612e-01
9.307659e-01	5.958617e-02	-4.334900e-01
8.867533e-01	5.998494e-02	-4.208825e-01
8.402951e-01	6.013136e-02	-4.037771e-01
7.917020e-01	6.012774e-02	-3.846394e-01
7.448106e-01	6.008443e-02	-3.634747e-01
8.205620e-01	-2.041176e-02	-1.444980e-01
8.397205e-01	-2.035992e-02	-1.493915e-01
8.527033e-01	-2.022954e-02	-1.554985e-01
8.598618e-01	-1.999349e-02	-1.610653e-01
8.580709e-01	-1.963486e-02	-1.672113e-01
8.551042e-01	-1.913695e-02	-1.725398e-01
8.434806e-01	-1.849004e-02	-1.783477e-01
8.308768e-01	-1.768879e-02	-1.829832e-01
8.103171e-01	-1.670609e-02	-1.889904e-01
7.869257e-01	-1.558577e-02	-1.936064e-01
7.528567e-01	-1.431362e-02	-2.005585e-01
7.115603e-01	-1.290442e-02	-2.044980e-01
6.517376e-01	-1.134819e-02	-2.094695e-01
5.745787e-01	-9.681126e-03	-2.049601e-01
4.697890e-01	-7.913274e-03	-1.949006e-01
3.150365e-01	-6.077171e-03	-1.507313e-01
8.303454e-02	-4.169506e-03	-4.964697e-02
-2.483678e-01	-2.238199e-03	1.904243e-01
-6.767918e-01	-2.223935e-04	9.036847e-01
-4.509173e-01	1.785986e-03	2.860196e+00
2.823740e+00	4.115213e-03	2.827775e+00
2.961938e+00	6.123294e-03	9.151486e-01
2.517970e+00	8.136876e-03	6.494530e-02
2.160704e+00	1.006081e-02	-1.937684e-01
1.910363e+00	1.195136e-02	-3.516825e-01
1.730295e+00	1.375490e-02	-4.143843e-01
1.572794e+00	1.546696e-02	-4.619439e-01
1.456131e+00	1.704682e-02	-4.782590e-01
1.354657e+00	1.847702e-02	-4.921361e-01
1.271701e+00	1.974310e-02	-4.902758e-01
1.198799e+00	2.080838e-02	-4.886864e-01
1.136483e+00	2.166872e-02	-4.794051e-01
1.080553e+00	2.230580e-02	-4.716342e-01
1.029171e+00	2.277744e-02	-4.595317e-01
9.815354e-01	2.307952e-02	-4.492211e-01
9.334892e-01	2.324418e-02	-4.347584e-01
8.875248e-01	2.330665e-02	-4.212487e-01
8.394021e-01	2.330442e-02	-4.033480e-01
7.894769e-01	2.327395e-02	-3.835583e-01
7.416760e-01	2.324716e-02	-3.619450e-01
8.181580e-01	-1.022084e-02	-1.440746e-01
8.367433e-01	-1.019980e-02	-1.488618e-01
8.489706e-01	-1.014351e-02	-1.548179e-01
8.553565e-01	-1.003768e-02	-1.602214e-01
8.527775e-01	-9.872488e-03	-1.661797e-01
8.489718e-01	-9.624577e-03	-1.713025e-01
8.364801e-01	-9.311877e-03	-1.768675e-01
8.225820e-01	-8.914392e-03	-1.811565e-01
8.009502e-01	-8.441037e-03	-1.868058e-01
7.769276e-01	-7.877124e-03	-1.911465e-01
7.415035e-01	-7.237693e-03	-1.975340e-01
6.983712e-01	-6.500133e-03	-2.007076e-01
6.368107e-01	-5.694572e-03	-2.046720e-01
5.574949e-01	-4.818343e-03	-1.988660e-01
4.500813e-01	-3.883492e-03	-1.867245e-01
2.917884e-01	-2.907455e-03	-1.396081e-01
5.531650e-02	-1.893467e-03	-3.307415e-02
-2.825235e-01	-8.597900e-04	2.166116e-01
-7.143876e-01	2.204036e-04	9.538844e-01
-4.667519e-01	1.280599e-03	2.960636e+00
2.895313e+00	2.539300e-03	2.899451e+00
3.021188e+00	3.603034e-03	9.334550e-01
2.560179e+00	4.662183e-03	6.603399e-02
2.191929e+00	5.665206e-03	-1.965686e-01
1.934675e+00	6.644843e-03	-3.561582e-01
1.749899e+00	7.564983e-03	-4.190792e-01
1.588899e+00	8.429437e-03	-4.666742e-01
1.469542e+00	9.226532e-03	-4.826639e-01
1.365872e+00	9.935341e-03	-4.962104e-01
1.281340e+00	1.055451e-02	-4.939920e-01
1.206799e+00	1.109306e-02	-4.919476e-01
1.142497e+00	1.152447e-02	-4.819417e-01
1.085248e+00	1.186261e-02	-4.736834e-01
1.032973e+00	1.210082e-02	-4.612293e-01
9.842012e-01	1.226094e-02	-4.504412e-01
9.351562e-01	1.234194e-02	-4.355347e-01
8.883144e-01	1.238592e-02	-4.216235e-01
8.394635e-01	1.239613e-02	-4.033775e-01
7.889782e-01	1.238930e-02	-3.833161e-01
7.407066e-01	1.238063e-02	-3.614719e-01
8.170305e-01	-5.654610e-03	-1.438761e-01
8.351884e-01	-5.643487e-03	-1.485852e-01
8.470058e-01	-5.611972e-03	-1.544596e-01
8.529516e-01	-5.552582e-03	-1.597709e-01
8.496165e-01	-5.456370e-03	-1.655638e-01
8.453729e-01	-5.316044e-03	-1.705763e-01
8.324964e-01	-5.144641e-03	-1.760252e-01
8.184770e-01	-4.924864e-03	-1.802524e-01
7.963159e-01	-4.659861e-03	-1.857250e-01
7.711274e-01	-4.323965e-03	-1.897195e-01
7.348611e-01	-3.932927e-03	-1.957645e-01
6.909935e-01	-3.496459e-03	-1.985873e-01
6.283814e-01	-3.024752e-03	-2.019628e-01
5.476722e-01	-2.604226e-03	-1.953621e-01
4.386959e-01	-2.060720e-03	-1.820011e-01
2.783893e-01	-1.452887e-03	-1.331972e-01
3.931117e-02	-8.432270e-04	-2.350444e-02
-3.024317e-01	-2.233853e-04	2.318753e-01
-7.359859e-01	4.246788e-04	9.827235e-01
-4.759264e-01	1.069601e-03	3.018830e+00
2.937422e+00	1.813131e-03	2.941620e+00
3.055293e+00	2.448143e-03	9.439925e-01
2.584352e+00	3.076792e-03	6.665746e-02
2.209820e+00	3.667789e-03	-1.981730e-01
1.948464e+00	4.237626e-03	-3.586966e-01
1.760849e+00	4.761129e-03	-4.217017e-01
1.597930e+00	5.247060e-03	-4.693267e-01
1.476990e+00	5.791033e-03	-4.851101e-01
1.371958e+00	6.195459e-03	-4.984213e-01
1.286311e+00	6.533963e-03	-4.959082e-01
1.210945e+00	6.814947e-03	-4.936379e-01
1.146317e+00	7.044451e-03	-4.835534e-01
1.088275e+00	7.241983e-03	-4.750048e-01
1.034942e+00	7.384414e-03	-4.621085e-01
9.854721e-01	7.482555e-03	-4.510229e-01
9.358720e-01	7.531032e-03	-4.358681e-01
8.888582e-01	7.554366e-03	-4.218816e-01
8.396036e-01	7.560785e-03	-4.034448e-01
7.887829e-01	7.556934e-03	-3.832212e-01
7.403489e-01	7.552672e-03	-3.612973e-01
8.162912e-01	-3.267212e-03	-1.437459e-01
8.342286e-01	-3.274173e-03	-1.484144e-01
8.457751e-01	-3.254890e-03	-1.542351e-01
8.513805e-01	-3.218374e-03	-1.594766e-01
8.479427e-01	-3.156630e-03	-1.652376e-01
8.435663e-01	-3.103956e-03	-1.702118e-01
8.304286e-01	-2.986731e-03	-1.755880e-01
8.156780e-01	-2.842711e-03	-1.796360e-01
7.928345e-01	-2.658366e-03	-1.849130e-01
7.673833e-01	-2.425836e-03	-1.887984e-01
7.306879e-01	-2.186226e-03	-1.946528e-01
6.862658e-01	-1.960201e-03	-1.972286e-01
6.243803e-01	-1.645790e-03	-2.006768e-01
5.432387e-01	-1.427276e-03	-1.937806e-01
4.313888e-01	-1.062405e-03	-1.789696e-01
2.693328e-01	-6.843501e-04	-1.288641e-01
2.905913e-02	-2.882751e-04	-1.737467e-02
-3.149498e-01	1.070617e-04	2.414729e-01
-7.500956e-01	5.192255e-04	1.001563e+00
-4.817652e-01	9.435309e-04	3.055866e+00
2.962855e+00	1.398665e-03	2.967089e+00
3.076726e+00	1.801329e-03	9.506145e-01
2.599417e+00	2.198054e-03	6.704603e-02
2.220665e+00	2.568771e-03	-1.991455e-01
1.956581e+00	2.919295e-03	-3.601909e-01
1.767175e+00	3.246244e-03	-4.232166e-01
1.604553e+00	3.660190e-03	-4.712718e-01
1.482642e+00	3.910182e-03	-4.869664e-01
1.375547e+00	4.160771e-03	-4.997252e-01
1.289157e+00	4.379724e-03	-4.970055e-01
1.213191e+00	4.544926e-03	-4.945534e-01
1.147949e+00	4.650708e-03	-4.842417e-01
1.089801e+00	4.745338e-03	-4.756708e-01
1.036456e+00	4.820321e-03	-4.627847e-01
9.865966e-01	4.866365e-03	-4.515375e-01
9.365319e-01	4.927884e-03	-4.361755e-01
8.890419e-01	4.936971e-03	-4.219687e-01
8.396012e-01	4.938801e-03	-4.034437e-01
7.886064e-01	4.935451e-03	-3.831355e-01
7.400539e-01	4.946334e-03	-3.611533e-01
8.181989e-01	-2.033405e-03	-1.440818e-01
8.341223e-01	-2.029367e-03	-1.483955e-01
8.450436e-01	-2.019174e-03	-1.541017e-01
8.504345e-01	-2.000556e-03	-1.592994e-01
8.473343e-01	-1.970410e-03	-1.651190e-01
8.423725e-01	-2.014333e-03	-1.699709e-01
8.284591e-01	-1.892079e-03	-1.751715e-01
8.137963e-01	-1.787232e-03	-1.792216e-01
7.906859e-01	-1.688194e-03	-1.844119e-01
7.649303e-01	-1.547078e-03	-1.881949e-01
7.287721e-01	-1.391220e-03	-1.941425e-01
6.838078e-01	-1.221596e-03	-1.965222e-01
6.209277e-01	-1.023438e-03	-1.995672e-01
5.390968e-01	-7.451910e-04	-1.923032e-01
4.266044e-01	-5.092777e-04	-1.769847e-01
2.641386e-01	-3.012448e-04	-1.263789e-01
2.239157e-02	-5.708461e-05	-1.338809e-02
-3.230881e-01	1.658915e-04	2.477126e-01
-7.590064e-01	4.275920e-04	1.013462e+00
-4.854965e-01	6.869121e-04	3.079534e+00
2.979582e+00	9.843453e-04	2.983840e+00
3.090409e+00	1.235696e-03	9.548423e-01
2.609029e+00	1.508077e-03	6.729396e-02
2.227654e+00	1.737638e-03	-1.997723e-01
1.962047e+00	1.958188e-03	-3.611971e-01
1.773656e+00	2.172045e-03	-4.247688e-01
1.607874e+00	2.398574e-03	-4.722473e-01
1.483937e+00	2.471084e-03	-4.873918e-01
1.378075e+00	2.615041e-03	-5.006436e-01
1.291156e+00	2.750798e-03	-4.977764e-01
1.214341e+00	2.863140e-03	-4.950220e-01
1.148875e+00	2.953170e-03	-4.846324e-01
1.090544e+00	3.051381e-03	-4.759950e-01
1.036699e+00	3.116581e-03	-4.628931e-01
9.871747e-01	3.237127e-03	-4.518021e-01
9.372722e-01	3.228592e-03	-4.365203e-01
8.891282e-01	3.222627e-03	-4.220097e-01
8.395874e-01	3.219668e-03	-4.034370e-01
7.889171e-01	3.216418e-03	-3.832864e-01
7.420156e-01	3.214127e-03	-3.621107e-01
8.156135e-01	-1.152576e-03	-1.436266e-01
8.334002e-01	-1.135693e-03	-1.482670e-01
8.447650e-01	-1.127252e-03	-1.540509e-01
8.501344e-01	-1.136281e-03	-1.592432e-01
8.483570e-01	-1.116104e-03	-1.653183e-01
8.420278e-01	-1.064613e-03	-1.699013e-01
8.269492e-01	-1.023230e-03	-1.748523e-01
8.127854e-01	-9.944495e-04	-1.789990e-01
7.895875e-01	-1.001133e-03	-1.841557e-01
7.634847e-01	-9.206041e-04	-1.878392e-01
7.264335e-01	-8.171229e-04	-1.935195e-01
6.813673e-01	-6.616297e-04	-1.958208e-01
6.177908e-01	-5.811658e-04	-1.985590e-01
5.355576e-01	-3.461182e-04	-1.910407e-01
4.241257e-01	-2.554749e-04	-1.759564e-01
2.610502e-01	-1.267025e-04	-1.249012e-01
1.902066e-02	1.118495e-05	-1.137259e-02
-3.272302e-01	1.538349e-04	2.508883e-01
-7.644908e-01	3.039226e-04	1.020785e+00
-4.877881e-01	4.534799e-04	3.094069e+00
2.989718e+00	6.256191e-04	2.993990e+00
3.099957e+00	7.718715e-04	9.577921e-01
2.615423e+00	9.156482e-04	6.745887e-02
2.231804e+00	1.049886e-03	-2.001445e-01
1.965306e+00	1.177977e-03	-3.617971e-01
1.774744e+00	1.298266e-03	-4.250293e-01
1.608972e+00	1.325391e-03	-4.725700e-01
1.485677e+00	1.436309e-03	-4.879634e-01
1.379194e+00	1.543433e-03	-5.010500e-01
1.292287e+00	1.603932e-03	-4.982123e-01
1.215725e+00	1.672167e-03	-4.955865e-01
1.150347e+00	1.817798e-03	-4.852532e-01
1.091992e+00	1.838527e-03	-4.766274e-01
1.039084e+00	1.880385e-03	-4.639578e-01
9.885228e-01	1.892291e-03	-4.524190e-01
9.362584e-01	1.877520e-03	-4.360481e-01
8.888297e-01	1.880536e-03	-4.218680e-01
8.394139e-01	1.902256e-03	-4.033537e-01
7.883336e-01	1.899072e-03	-3.830029e-01
7.397030e-01	1.883477e-03	-3.609821e-01
8.153656e-01	-1.387233e-03	-1.435829e-01
8.329715e-01	-1.387286e-03	-1.481908e-01
8.451736e-01	-1.387925e-03	-1.541254e-01
8.500657e-01	-1.369975e-03	-1.592304e-01
8.458361e-01	-1.328169e-03	-1.648271e-01
8.407841e-01	-1.250237e-03	-1.696504e-01
8.273895e-01	-1.152976e-03	-1.749454e-01
8.134983e-01	-1.215237e-03	-1.791560e-01
7.896684e-01	-9.946840e-04	-1.841745e-01
7.625138e-01	-1.042632e-03	-1.876003e-01
7.253903e-01	-6.844156e-04	-1.932415e-01
6.806402e-01	-7.706528e-04	-1.956118e-01
6.166088e-01	-3.335113e-04	-1.981791e-01
5.341467e-01	-3.954739e-04	-1.905374e-01
4.230692e-01	6.556784e-05	-1.755180e-01
2.592345e-01	4.069644e-04	-1.240324e-01
1.640645e-02	6.042606e-04	-9.809537e-03
-3.305710e-01	6.539586e-04	2.534497e-01
-7.672804e-01	7.022990e-04	1.024510e+00
-4.889755e-01	7.638764e-04	3.101601e+00
2.995174e+00	8.458321e-04	2.999454e+00
3.103147e+00	9.257595e-04	9.587778e-01
2.617968e+00	9.932654e-04	6.752452e-02
2.234143e+00	1.106395e-03	-2.003543e-01
1.967028e+00	1.042604e-03	-3.621142e-01
1.776082e+00	8.614314e-04	-4.253498e-01
1.610028e+00	4.827391e-04	-4.728799e-01
1.486961e+00	6.457842e-04	-4.883851e-01
1.380250e+00	3.304217e-04	-5.014336e-01
1.292782e+00	4.618085e-04	-4.984031e-01
1.217013e+00	1.685295e-04	-4.961112e-01
1.151026e+00	3.204817e-04	-4.855399e-01
1.091369e+00	6.238384e-05	-4.763552e-01
1.037492e+00	1.188761e-04	-4.632469e-01
9.871571e-01	-9.843137e-05	-4.517940e-01
9.370236e-01	-4.048347e-05	-4.364045e-01
8.896378e-01	-5.493204e-05	-4.222516e-01
8.402957e-01	-6.098295e-05	-4.037774e-01
7.882312e-01	-5.595418e-05	-3.829531e-01
7.396272e-01	-5.488737e-05	-3.609451e-01
8.156224e-01	-2.105605e-04	-1.436281e-01
8.334453e-01	-2.386525e-04	-1.482751e-01
8.440725e-01	-1.841566e-04	-1.539246e-01
8.485768e-01	-1.312585e-04	-1.589515e-01
8.458840e-01	-1.085054e-04	-1.648364e-01
8.389877e-01	-8.811975e-05	-1.692879e-01
8.265299e-01	-7.098213e-05	-1.747636e-01
8.104115e-01	-5.409476e-05	-1.784762e-01
7.873305e-01	2.219391e-06	-1.836293e-01
7.593862e-01	2.273062e-06	-1.868309e-01
7.228425e-01	4.082168e-06	-1.925628e-01
6.768260e-01	-2.031858e-05	-1.945156e-01
6.123516e-01	-3.954065e-05	-1.968108e-01
5.299956e-01	-2.883144e-05	-1.890566e-01
4.109249e-01	9.400366e-06	-1.704797e-01
2.508786e-01	-1.711845e-05	-1.200346e-01
1.337397e-02	-8.200539e-06	-7.996397e-03
-3.297521e-01	-5.152533e-07	2.528219e-01
-7.674501e-01	5.748241e-06	1.024736e+00
-4.893205e-01	1.088391e-05	3.103790e+00
2.997743e+00	1.616323e-05	3.002027e+00
3.106331e+00	2.046182e-05	9.597617e-01
2.621500e+00	2.463839e-05	6.761562e-02
2.232518e+00	2.820848e-05	-2.002086e-01
1.960171e+00	6.706203e-05	-3.608518e-01
1.764921e+00	7.044056e-05	-4.226767e-01
1.606101e+00	4.495900e-05	-4.717265e-01
1.483351e+00	1.067299e-04	-4.871995e-01
1.376911e+00	1.047780e-04	-5.002205e-01
1.290211e+00	1.051870e-04	-4.974119e-01
1.213929e+00	1.105506e-04	-4.948542e-01
1.149093e+00	8.212692e-05	-4.847244e-01
1.089174e+00	1.032228e-04	-4.753972e-01
1.036966e+00	1.225375e-04	-4.630123e-01
9.856856e-01	1.466828e-04	-4.511205e-01
9.371898e-01	1.724381e-04	-4.364819e-01
8.883379e-01	2.024236e-04	-4.216346e-01
8.393186e-01	2.136833e-04	-4.033079e-01
7.886780e-01	2.921938e-04	-3.831702e-01
7.398663e-01	2.816421e-04	-3.610618e-01
8.200802e-01	1.454232e-03	-1.444131e-01
8.302475e-01	1.454599e-03	-1.477062e-01
8.416168e-01	1.456240e-03	-1.534768e-01
8.482844e-01	1.440795e-03	-1.588967e-01
8.449737e-01	1.402455e-03	-1.646590e-01
8.401414e-01	1.415926e-03	-1.695207e-01
8.268665e-01	1.277332e-03	-1.748348e-01
8.124413e-01	1.339233e-03	-1.789232e-01
7.889232e-01	1.070802e-03	-1.840008e-01
7.624892e-01	1.124403e-03	-1.875943e-01
7.256836e-01	7.771275e-04	-1.933197e-01
6.812235e-01	7.916619e-04	-1.957794e-01
6.167405e-01	3.617888e-04	-1.982214e-01
5.334382e-01	4.531701e-04	-1.902847e-01
4.228103e-01	-4.110912e-05	-1.754106e-01
2.596168e-01	-3.813249e-04	-1.242154e-01
1.604846e-02	-5.783220e-04	-9.595495e-03
-3.309348e-01	-6.033067e-04	2.537287e-01
-7.676015e-01	-6.542645e-04	1.024938e+00
-4.890893e-01	-7.477817e-04	3.102323e+00
2.995641e+00	-8.343104e-04	2.999922e+00
3.103519e+00	-8.894252e-04	9.588926e-01
2.618216e+00	-9.865356e-04	6.753090e-02
2.235297e+00	-1.101645e-03	-2.004578e-01
1.967815e+00	-1.040770e-03	-3.622589e-01
1.775671e+00	-8.299699e-04	-4.252513e-01
1.610642e+00	-4.856482e-04	-4.730602e-01
1.487763e+00	-6.542111e-04	-4.886485e-01
1.380230e+00	-3.482884e-04	-5.014265e-01
1.292855e+00	-4.108724e-04	-4.984314e-01
1.216726e+00	-1.290300e-04	-4.959944e-01
1.150921e+00	-2.270337e-04	-4.854954e-01
1.091908e+00	-1.404302e-05	-4.765905e-01
1.038112e+00	-1.141542e-04	-4.635239e-01
9.879528e-01	-3.849582e-06	-4.521582e-01
9.380507e-01	-3.651028e-05	-4.368828e-01
8.906325e-01	-1.008139e-05	-4.227237e-01
8.426378e-01	-1.064112e-06	-4.049028e-01
7.927547e-01	-5.419348e-06	-3.851508e-01
7.380113e-01	-6.409632e-06	-3.601565e-01
8.155608e-01	1.514101e-03	-1.436173e-01
8.333216e-01	1.539394e-03	-1.482531e-01
8.446390e-01	1.476354e-03	-1.540280e-01
8.499833e-01	1.439675e-03	-1.592149e-01
8.462875e-01	1.303873e-03	-1.649150e-01
8.413163e-01	1.258850e-03	-1.697578e-01
8.275599e-01	1.200299e-03	-1.749814e-01
8.134915e-01	1.125841e-03	-1.791545e-01
7.901427e-01	1.080422e-03	-1.842852e-01
7.632666e-01	9.832775e-04	-1.877855e-01
7.272214e-01	8.782355e-04	-1.937294e-01
6.822479e-01	7.931266e-04	-1.960738e-01
6.172905e-01	6.992425e-04	-1.983982e-01
5.355694e-01	5.379043e-04	-1.910449e-01
4.246842e-01	3.919159e-04	-1.761881e-01
2.610215e-01	2.742038e-04	-1.248875e-01
1.854664e-02	1.154558e-04	-1.108918e-02
-3.279099e-01	-4.484437e-05	2.514095e-01
-7.637025e-01	-2.107302e-04	1.019732e+00
-4.873357e-01	-3.746695e-04	3.091200e+00
2.990980e+00	-5.628559e-04	2.995254e+00
3.099256e+00	-7.228707e-04	9.575756e-01
2.614545e+00	-8.805266e-04	6.743623e-02
2.231680e+00	-1.027746e-03	-2.001334e-01
1.965901e+00	-1.203527e-03	-3.619066e-01
1.774592e+00	-1.333453e-03	-4.249929e-01
1.608389e+00	-1.455217e-03	-4.723986e-01
1.485468e+00	-1.600107e-03	-4.878947e-01
1.379989e+00	-1.700499e-03	-5.013388e-01
1.293005e+00	-1.782442e-03	-4.984892e-01
1.216253e+00	-1.855264e-03	-4.958018e-01
1.150484e+00	-1.954337e-03	-4.853109e-01
1.090809e+00	-2.002752e-03	-4.761110e-01
1.036966e+00	-2.038624e-03	-4.630123e-01
9.870773e-01	-2.079861e-03	-4.517575e-01
9.369728e-01	-2.123561e-03	-4.363808e-01
8.891966e-01	-2.068709e-03	-4.220422e-01
8.395380e-01	-2.112185e-03	-4.034133e-01
7.883777e-01	-2.189064e-03	-3.830243e-01
7.397147e-01	-2.177462e-03	-3.609878e-01
8.158354e-01	2.163212e-03	-1.436656e-01
8.336458e-01	2.158783e-03	-1.483107e-01
8.447621e-01	2.151995e-03	-1.540504e-01
8.528760e-01	2.052466e-03	-1.597568e-01
8.484386e-01	2.019707e-03	-1.653342e-01
8.419410e-01	1.982314e-03	-1.698838e-01
8.289237e-01	1.902061e-03	-1.752698e-01
8.141306e-01	1.806072e-03	-1.792952e-01
7.908577e-01	1.706685e-03	-1.844519e-01
7.651433e-01	1.560509e-03	-1.882473e-01
7.281713e-01	1.391166e-03	-1.939824e-01
6.836089e-01	1.286356e-03	-1.964650e-01
6.202598e-01	1.062580e-03	-1.993525e-01
5.380223e-01	8.511859e-04	-1.919199e-01