# vtk DataFile Version 2.0
OUTPUT by 3D-VPM
ASCII
DATASET UNSTRUCTURED_GRID
POINTS 820 double
9.510565e-01	0.000000e+00	-3.090170e-01
9.442611e-01	0.000000e+00	-3.078203e-01
9.267277e-01	0.000000e+00	-3.047010e-01
8.963175e-01	0.000000e+00	-2.991555e-01
8.562911e-01	0.000000e+00	-2.916579e-01
8.054250e-01	0.000000e+00	-2.817457e-01
7.470317e-01	0.000000e+00	-2.699633e-01
6.809074e-01	0.000000e+00	-2.559818e-01
6.100852e-01	0.000000e+00	-2.403847e-01
5.354138e-01	0.000000e+00	-2.229691e-01
4.593635e-01	0.000000e+00	-2.042585e-01
3.837764e-01	0.000000e+00	-1.841224e-01
3.103069e-01	0.000000e+00	-1.630077e-01
2.415927e-01	0.000000e+00	-1.409228e-01
1.782654e-01	0.000000e+00	-1.183331e-01
1.234349e-01	0.000000e+00	-9.558566e-02
7.662509e-02	0.000000e+00	-7.318920e-02
4.106998e-02	0.000000e+00	-5.193053e-02
1.528206e-02	0.000000e+00	-3.215886e-02
2.347037e-03	0.000000e+00	-1.488740e-02
0.000000e+00	0.000000e+00	0.000000e+00
1.064939e-02	0.000000e+00	1.066461e-02
3.126595e-02	0.000000e+00	1.703450e-02
6.375031e-02	0.000000e+00	1.787236e-02
1.050105e-01	0.000000e+00	1.417221e-02
1.560448e-01	0.000000e+00	4.777214e-03
2.137742e-01	0.000000e+00	-9.048270e-03
2.782849e-01	0.000000e+00	-2.799567e-02
3.468570e-01	0.000000e+00	-5.051783e-02
4.187060e-01	0.000000e+00	-7.662000e-02
4.916930e-01	0.000000e+00	-1.047585e-01
5.642168e-01	0.000000e+00	-1.343226e-01
6.348639e-01	0.000000e+00	-1.641238e-01
7.013280e-01	0.000000e+00	-1.931337e-01
7.630418e-01	0.000000e+00	-2.206893e-01
8.172084e-01	0.000000e+00	-2.454799e-01
8.641863e-01	0.000000e+00	-2.673591e-01
9.009752e-01	0.000000e+00	-2.848204e-01
9.288372e-01	0.000000e+00	-2.982085e-01
9.448555e-01	0.000000e+00	-3.059908e-01
9.510565e-01	0.000000e+00	-3.090170e-01
9.510565e-01	1.052632e+00	-3.090170e-01
9.442611e-01	1.052632e+00	-3.078203e-01
9.267277e-01	1.052632e+00	-3.047010e-01
8.963175e-01	1.052632e+00	-2.991555e-01
8.562911e-01	1.052632e+00	-2.916579e-01
8.054250e-01	1.052632e+00	-2.817457e-01
7.470317e-01	1.052632e+00	-2.699633e-01
6.809074e-01	1.052632e+00	-2.559818e-01
6.100852e-01	1.052632e+00	-2.403847e-01
5.354138e-01	1.052632e+00	-2.229691e-01
4.593635e-01	1.052632e+00	-2.042585e-01
3.837764e-01	1.052632e+00	-1.841224e-01
3.103069e-01	1.052632e+00	-1.630077e-01
2.415927e-01	1.052632e+00	-1.409228e-01
1.782654e-01	1.052632e+00	-1.183331e-01
1.234349e-01	1.052632e+00	-9.558566e-02
7.662509e-02	1.052632e+00	-7.318920e-02
4.106998e-02	1.052632e+00	-5.193053e-02
1.528206e-02	1.052632e+00	-3.215886e-02
2.347037e-03	1.052632e+00	-1.488740e-02
0.000000e+00	1.052632e+00	0.000000e+00
1.064939e-02	1.052632e+00	1.066461e-02
3.126595e-02	1.052632e+00	1.703450e-02
6.375031e-02	1.052632e+00	1.787236e-02
1.050105e-01	1.052632e+00	1.417221e-02
1.560448e-01	1.052632e+00	4.777214e-03
2.137742e-01	1.052632e+00	-9.048270e-03
2.782849e-01	1.052632e+00	-2.799567e-02
3.468570e-01	1.052632e+00	-5.051783e-02
4.187060e-01	1.052632e+00	-7.662000e-02
4.916930e-01	1.052632e+00	-1.047585e-01
5.642168e-01	1.052632e+00	-1.343226e-01
6.348639e-01	1.052632e+00	-1.641238e-01
7.013280e-01	1.052632e+00	-1.931337e-01
7.630418e-01	1.052632e+00	-2.206893e-01
8.172084e-01	1.052632e+00	-2.454799e-01
8.641863e-01	1.052632e+00	-2.673591e-01
9.009752e-01	1.052632e+00	-2.848204e-01
9.288372e-01	1.052632e+00	-2.982085e-01
9.448555e-01	1.052632e+00	-3.059908e-01
9.510565e-01	1.052632e+00	-3.090170e-01
9.510565e-01	2.105263e+00	-3.090170e-01
9.442611e-01	2.105263e+00	-3.078203e-01
9.267277e-01	2.105263e+00	-3.047010e-01
8.963175e-01	2.105263e+00	-2.991555e-01
8.562911e-01	2.105263e+00	-2.916579e-01
8.054250e-01	2.105263e+00	-2.817457e-01
7.470317e-01	2.105263e+00	-2.699633e-01
6.809074e-01	2.105263e+00	-2.559818e-01
6.100852e-01	2.105263e+00	-2.403847e-01
5.354138e-01	2.105263e+00	-2.229691e-01
4.593635e-01	2.105263e+00	-2.042585e-01
3.837764e-01	2.105263e+00	-1.841224e-01
3.103069e-01	2.105263e+00	-1.630077e-01
2.415927e-01	2.105263e+00	-1.409228e-01
1.782654e-01	2.105263e+00	-1.183331e-01
1.234349e-01	2.105263e+00	-9.558566e-02
7.662509e-02	2.105263e+00	-7.318920e-02
4.106998e-02	2.105263e+00	-5.193053e-02
1.528206e-02	2.105263e+00	-3.215886e-02
2.347037e-03	2.105263e+00	-1.488740e-02
0.000000e+00	2.105263e+00	0.000000e+00
1.064939e-02	2.105263e+00	1.066461e-02
3.126595e-02	2.105263e+00	1.703450e-02
6.375031e-02	2.105263e+00	1.787236e-02
1.050105e-01	2.105263e+00	1.417221e-02
1.560448e-01	2.105263e+00	4.777214e-03
2.137742e-01	2.105263e+00	-9.048270e-03
2.782849e-01	2.105263e+00	-2.799567e-02
3.468570e-01	2.105263e+00	-5.051783e-02
4.187060e-01	2.105263e+00	-7.662000e-02
4.916930e-01	2.105263e+00	-1.047585e-01
5.642168e-01	2.105263e+00	-1.343226e-01
6.348639e-01	2.105263e+00	-1.641238e-01
7.013280e-01	2.105263e+00	-1.931337e-01
7.630418e-01	2.105263e+00	-2.206893e-01
8.172084e-01	2.105263e+00	-2.454799e-01
8.641863e-01	2.105263e+00	-2.673591e-01
9.009752e-01	2.105263e+00	-2.848204e-01
9.288372e-01	2.105263e+00	-2.982085e-01
9.448555e-01	2.105263e+00	-3.059908e-01
9.510565e-01	2.105263e+00	-3.090170e-01
9.510565e-01	3.157895e+00	-3.090170e-01
9.442611e-01	3.157895e+00	-3.078203e-01
9.267277e-01	3.157895e+00	-3.047010e-01
8.963175e-01	3.157895e+00	-2.991555e-01
8.562911e-01	3.157895e+00	-2.916579e-01
8.054250e-01	3.157895e+00	-2.817457e-01
7.470317e-01	3.157895e+00	-2.699633e-01
6.809074e-01	3.157895e+00	-2.559818e-01
6.100852e-01	3.157895e+00	-2.403847e-01
5.354138e-01	3.157895e+00	-2.229691e-01
4.593635e-01	3.157895e+00	-2.042585e-01
3.837764e-01	3.157895e+00	-1.841224e-01
3.103069e-01	3.157895e+00	-1.630077e-01
2.415927e-01	3.157895e+00	-1.409228e-01
1.782654e-01	3.157895e+00	-1.183331e-01
1.234349e-01	3.157895e+00	-9.558566e-02
7.662509e-02	3.157895e+00	-7.318920e-02
4.106998e-02	3.157895e+00	-5.193053e-02
1.528206e-02	3.157895e+00	-3.215886e-02
2.347037e-03	3.157895e+00	-1.488740e-02
0.000000e+00	3.157895e+00	0.000000e+00
1.064939e-02	3.157895e+00	1.066461e-02
3.126595e-02	3.157895e+00	1.703450e-02
6.375031e-02	3.157895e+00	1.787236e-02
1.050105e-01	3.157895e+00	1.417221e-02
1.560448e-01	3.157895e+00	4.777214e-03
2.137742e-01	3.157895e+00	-9.048270e-03
2.782849e-01	3.157895e+00	-2.799567e-02
3.468570e-01	3.157895e+00	-5.051783e-02
4.187060e-01	3.157895e+00	-7.662000e-02
4.916930e-01	3.157895e+00	-1.047585e-01
5.642168e-01	3.157895e+00	-1.343226e-01
6.348639e-01	3.157895e+00	-1.641238e-01
7.013280e-01	3.157895e+00	-1.931337e-01
7.630418e-01	3.157895e+00	-2.206893e-01
8.172084e-01	3.157895e+00	-2.454799e-01
8.641863e-01	3.157895e+00	-2.673591e-01
9.009752e-01	3.157895e+00	-2.848204e-01
9.288372e-01	3.157895e+00	-2.982085e-01
9.448555e-01	3.157895e+00	-3.059908e-01
9.510565e-01	3.157895e+00	-3.090170e-01
9.510565e-01	4.210526e+00	-3.090170e-01
9.442611e-01	4.210526e+00	-3.078203e-01
9.267277e-01	4.210526e+00	-3.047010e-01
8.963175e-01	4.210526e+00	-2.991555e-01
8.562911e-01	4.210526e+00	-2.916579e-01
8.054250e-01	4.210526e+00	-2.817457e-01
7.470317e-01	4.210526e+00	-2.699633e-01
6.809074e-01	4.210526e+00	-2.559818e-01
6.100852e-01	4.210526e+00	-2.403847e-01
5.354138e-01	4.210526e+00	-2.229691e-01
4.593635e-01	4.210526e+00	-2.042585e-01
3.837764e-01	4.210526e+00	-1.841224e-01
3.103069e-01	4.210526e+00	-1.630077e-01
2.415927e-01	4.210526e+00	-1.409228e-01
1.782654e-01	4.210526e+00	-1.183331e-01
1.234349e-01	4.210526e+00	-9.558566e-02
7.662509e-02	4.210526e+00	-7.318920e-02
4.106998e-02	4.210526e+00	-5.193053e-02
1.528206e-02	4.210526e+00	-3.215886e-02
2.347037e-03	4.210526e+00	-1.488740e-02
0.000000e+00	4.210526e+00	0.000000e+00
1.064939e-02	4.210526e+00	1.066461e-02
3.126595e-02	4.210526e+00	1.703450e-02
6.375031e-02	4.210526e+00	1.787236e-02
1.050105e-01	4.210526e+00	1.417221e-02
1.560448e-01	4.210526e+00	4.777214e-03
2.137742e-01	4.210526e+00	-9.048270e-03
2.782849e-01	4.210526e+00	-2.799567e-02
3.468570e-01	4.210526e+00	-5.051783e-02
4.187060e-01	4.210526e+00	-7.662000e-02
4.916930e-01	4.210526e+00	-1.047585e-01
5.642168e-01	4.210526e+00	-1.343226e-01
6.348639e-01	4.210526e+00	-1.641238e-01
7.013280e-01	4.210526e+00	-1.931337e-01
7.630418e-01	4.210526e+00	-2.206893e-01
8.172084e-01	4.210526e+00	-2.454799e-01
8.641863e-01	4.210526e+00	-2.673591e-01
9.009752e-01	4.210526e+00	-2.848204e-01
9.288372e-01	4.210526e+00	-2.982085e-01
9.448555e-01	4.210526e+00	-3.059908e-01
9.510565e-01	4.210526e+00	-3.090170e-01
9.510565e-01	5.263158e+00	-3.090170e-01
9.442611e-01	5.263158e+00	-3.078203e-01
9.267277e-01	5.263158e+00	-3.047010e-01
8.963175e-01	5.263158e+00	-2.991555e-01
8.562911e-01	5.263158e+00	-2.916579e-01
8.054250e-01	5.263158e+00	-2.817457e-01
7.470317e-01	5.263158e+00	-2.699633e-01
6.809074e-01	5.263158e+00	-2.559818e-01
6.100852e-01	5.263158e+00	-2.403847e-01
5.354138e-01	5.263158e+00	-2.229691e-01
4.593635e-01	5.263158e+00	-2.042585e-01
3.837764e-01	5.263158e+00	-1.841224e-01
3.103069e-01	5.263158e+00	-1.630077e-01
2.415927e-01	5.263158e+00	-1.409228e-01
1.782654e-01	5.263158e+00	-1.183331e-01
1.234349e-01	5.263158e+00	-9.558566e-02
7.662509e-02	5.263158e+00	-7.318920e-02
4.106998e-02	5.263158e+00	-5.193053e-02
1.528206e-02	5.263158e+00	-3.215886e-02
2.347037e-03	5.263158e+00	-1.488740e-02
0.000000e+00	5.263158e+00	0.000000e+00
1.064939e-02	5.263158e+00	1.066461e-02
3.126595e-02	5.263158e+00	1.703450e-02
6.375031e-02	5.263158e+00	1.787236e-02
1.050105e-01	5.263158e+00	1.417221e-02
1.560448e-01	5.263158e+00	4.777214e-03
2.137742e-01	5.263158e+00	-9.048270e-03
2.782849e-01	5.263158e+00	-2.799567e-02
3.468570e-01	5.263158e+00	-5.051783e-02
4.187060e-01	5.263158e+00	-7.662000e-02
4.916930e-01	5.263158e+00	-1.047585e-01
5.642168e-01	5.263158e+00	-1.343226e-01
6.348639e-01	5.263158e+00	-1.641238e-01
7.013280e-01	5.263158e+00	-1.931337e-01
7.630418e-01	5.263158e+00	-2.206893e-01
8.172084e-01	5.263158e+00	-2.454799e-01
8.641863e-01	5.263158e+00	-2.673591e-01
9.009752e-01	5.263158e+00	-2.848204e-01
9.288372e-01	5.263158e+00	-2.982085e-01
9.448555e-01	5.263158e+00	-3.059908e-01
9.510565e-01	5.263158e+00	-3.090170e-01
9.510565e-01	6.315789e+00	-3.090170e-01
9.442611e-01	6.315789e+00	-3.078203e-01
[...]
CELL_DATA 760
VECTORS V double
8.417798e-01	-6.846648e-02	-1.482343e-01
8.660019e-01	-6.829508e-02	-1.540671e-01
8.841603e-01	-6.785160e-02	-1.612350e-01
8.960810e-01	-6.706798e-02	-1.678497e-01
8.987021e-01	-6.592310e-02	-1.751290e-01
9.001695e-01	-6.440016e-02	-1.816329e-01
8.932697e-01	-6.248930e-02	-1.888753e-01
8.860281e-01	-6.017047e-02	-1.951291e-01
8.715283e-01	-5.742371e-02	-2.032667e-01
8.597326e-01	-5.424253e-02	-2.115190e-01
8.347736e-01	-4.995023e-02	-2.223809e-01
8.005247e-01	-4.631798e-02	-2.300659e-01
7.537659e-01	-4.150547e-02	-2.422616e-01
6.923082e-01	-3.627474e-02	-2.469558e-01
6.062494e-01	-3.067736e-02	-2.515137e-01
4.763361e-01	-2.482270e-02	-2.279062e-01
2.755673e-01	-1.871106e-02	-1.647637e-01
-1.069424e-02	-1.250510e-02	8.199308e-03
-4.143808e-01	-6.006158e-03	5.533010e-01
-3.395672e-01	5.038901e-04	2.153895e+00
2.312985e+00	8.136231e-03	2.316291e+00
2.530276e+00	1.483257e-02	7.817780e-01
2.202615e+00	2.170938e-02	5.681142e-02
1.919810e+00	2.849042e-02	-1.721654e-01
1.715861e+00	3.541593e-02	-3.158762e-01
1.567011e+00	4.232217e-02	-3.752799e-01
1.432810e+00	4.920187e-02	-4.208296e-01
1.334397e+00	5.586673e-02	-4.382760e-01
1.248518e+00	6.280268e-02	-4.535766e-01
1.183445e+00	6.860075e-02	-4.562509e-01
1.123718e+00	7.317799e-02	-4.580800e-01
1.070174e+00	7.762089e-02	-4.514339e-01
1.026543e+00	8.120840e-02	-4.480602e-01
9.865258e-01	8.395345e-02	-4.404904e-01
9.494810e-01	8.591234e-02	-4.345507e-01
9.111812e-01	8.718469e-02	-4.243688e-01
8.741548e-01	8.789714e-02	-4.149028e-01
8.341039e-01	8.819739e-02	-4.008021e-01
7.910771e-01	8.823950e-02	-3.843358e-01
7.484156e-01	8.819387e-02	-3.652339e-01
8.273967e-01	-4.799579e-02	-1.457015e-01
8.480530e-01	-4.787323e-02	-1.508739e-01
8.627070e-01	-4.755929e-02	-1.573228e-01
8.715919e-01	-4.700317e-02	-1.632625e-01
8.715482e-01	-4.618246e-02	-1.698376e-01
8.703718e-01	-4.507888e-02	-1.756205e-01
8.605962e-01	-4.368185e-02	-1.819667e-01
8.499670e-01	-4.197791e-02	-1.871874e-01
8.315310e-01	-3.995080e-02	-1.939382e-01
8.106535e-01	-3.760772e-02	-1.994441e-01
7.829432e-01	-3.461345e-02	-2.085735e-01
7.443566e-01	-3.155253e-02	-2.139235e-01
6.840264e-01	-2.842898e-02	-2.198472e-01
6.118795e-01	-2.474514e-02	-2.182658e-01
5.130836e-01	-2.079406e-02	-2.128622e-01
3.661769e-01	-1.667165e-02	-1.751998e-01
1.440296e-01	-1.237589e-02	-8.611640e-02
-1.731355e-01	-8.018694e-03	1.327435e-01
-5.938929e-01	-3.460520e-03	7.929942e-01
-4.159144e-01	1.099041e-03	2.638170e+00
2.664841e+00	6.429967e-03	2.668650e+00
2.829665e+00	1.108657e-02	8.742802e-01
2.423155e+00	1.584035e-02	6.249975e-02
2.090026e+00	2.049097e-02	-1.874301e-01
1.854931e+00	2.519508e-02	-3.414779e-01
1.685250e+00	2.983359e-02	-4.035967e-01
1.535386e+00	3.442061e-02	-4.509569e-01
1.428830e+00	3.878246e-02	-4.692922e-01
1.331431e+00	4.318208e-02	-4.836981e-01
1.248891e+00	4.693656e-02	-4.814821e-01
1.180170e+00	4.996115e-02	-4.810925e-01
1.121470e+00	5.276905e-02	-4.730719e-01
1.068913e+00	5.500332e-02	-4.665539e-01
1.020555e+00	5.668951e-02	-4.556845e-01
9.756611e-01	5.786755e-02	-4.465326e-01
9.300778e-01	5.860900e-02	-4.331696e-01
8.862975e-01	5.900154e-02	-4.206662e-01
8.400608e-01	5.914539e-02	-4.036645e-01
7.916636e-01	5.914168e-02	-3.846207e-01
7.449215e-01	5.909890e-02	-3.635288e-01
8.212099e-01	-2.033138e-02	-1.446121e-01
8.405480e-01	-2.028085e-02	-1.495387e-01
8.537318e-01	-2.015282e-02	-1.556861e-01
8.610923e-01	-1.992311e-02	-1.612958e-01
8.595109e-01	-1.956036e-02	-1.674919e-01
8.567577e-01	-1.907310e-02	-1.728735e-01
8.453553e-01	-1.843820e-02	-1.787441e-01
8.329031e-01	-1.764890e-02	-1.834295e-01
8.125558e-01	-1.670173e-02	-1.895126e-01
7.896400e-01	-1.561051e-02	-1.942742e-01
7.556109e-01	-1.435850e-02	-2.012922e-01
7.180420e-01	-1.295029e-02	-2.063609e-01
6.593489e-01	-1.142494e-02	-2.119158e-01
5.788936e-01	-9.789491e-03	-2.064992e-01
4.748783e-01	-8.054420e-03	-1.970120e-01
3.213321e-01	-6.252664e-03	-1.537435e-01
9.074844e-02	-4.380864e-03	-5.425917e-02
-2.386920e-01	-2.486113e-03	1.830058e-01
-6.660498e-01	-5.087257e-04	8.893415e-01
-4.463801e-01	1.461328e-03	2.831416e+00
2.803303e+00	3.745997e-03	2.807309e+00
2.945162e+00	5.715671e-03	9.099654e-01
2.506136e+00	7.691051e-03	6.464007e-02
2.152025e+00	9.578745e-03	-1.929901e-01
1.903636e+00	1.143394e-02	-3.504442e-01
1.725225e+00	1.320371e-02	-4.131701e-01
1.568292e+00	1.488449e-02	-4.606218e-01
1.456001e+00	1.643718e-02	-4.782165e-01
1.354724e+00	1.783124e-02	-4.921605e-01
1.268973e+00	1.906473e-02	-4.892243e-01
1.196731e+00	2.011256e-02	-4.878434e-01
1.134598e+00	2.097077e-02	-4.786100e-01
1.079017e+00	2.161717e-02	-4.709638e-01
1.027987e+00	2.207845e-02	-4.590029e-01
9.806155e-01	2.237535e-02	-4.488001e-01
9.328237e-01	2.253824e-02	-4.344484e-01
8.871061e-01	2.258828e-02	-4.210499e-01
8.392234e-01	2.258754e-02	-4.032621e-01
7.895064e-01	2.255724e-02	-3.835727e-01
7.418627e-01	2.253120e-02	-3.620361e-01
8.189168e-01	-1.017621e-02	-1.442083e-01
8.376538e-01	-1.015774e-02	-1.490238e-01
8.501822e-01	-1.010375e-02	-1.550388e-01
8.564754e-01	-1.000236e-02	-1.604310e-01
8.542374e-01	-9.843450e-03	-1.664642e-01
8.508724e-01	-9.619369e-03	-1.716860e-01
8.385803e-01	-9.318975e-03	-1.773116e-01
8.252387e-01	-8.939425e-03	-1.817416e-01
8.040253e-01	-8.482249e-03	-1.875230e-01
7.798892e-01	-7.931415e-03	-1.918752e-01
7.481747e-01	-7.568666e-03	-1.993113e-01
7.052549e-01	-6.836127e-03	-2.026859e-01
6.401201e-01	-5.754882e-03	-2.057356e-01
5.617981e-01	-4.895139e-03	-2.004011e-01
4.555239e-01	-3.995423e-03	-1.889825e-01
2.985265e-01	-3.047641e-03	-1.428320e-01
6.357030e-02	-2.057511e-03	-3.800916e-02
-2.721791e-01	-1.052226e-03	2.086805e-01
-7.028956e-01	-1.925197e-06	9.385397e-01
-4.618966e-01	1.056450e-03	2.929838e+00
2.873458e+00	2.266324e-03	2.877564e+00
3.003280e+00	3.291771e-03	9.279218e-01
2.547598e+00	4.326066e-03	6.570948e-02
2.182781e+00	5.305901e-03	-1.957482e-01
1.927682e+00	6.260248e-03	-3.548708e-01
1.744348e+00	7.164312e-03	-4.177499e-01
1.584305e+00	8.001418e-03	-4.653248e-01
1.469654e+00	8.803252e-03	-4.827004e-01
1.365667e+00	9.232961e-03	-4.961357e-01
1.277678e+00	1.013359e-02	-4.925802e-01
1.204038e+00	1.060911e-02	-4.908220e-01
1.140704e+00	1.099339e-02	-4.811856e-01
1.083752e+00	1.130397e-02	-4.730306e-01
1.031550e+00	1.152910e-02	-4.605941e-01
9.831501e-01	1.168144e-02	-4.499601e-01
9.342228e-01	1.176905e-02	-4.351000e-01
8.875689e-01	1.180911e-02	-4.212696e-01
8.392876e-01	1.181813e-02	-4.032930e-01
7.889733e-01	1.181129e-02	-3.833137e-01
7.409338e-01	1.180489e-02	-3.615827e-01
8.181105e-01	-5.603270e-03	-1.440663e-01
8.362596e-01	-5.592461e-03	-1.487757e-01
8.482716e-01	-5.562708e-03	-1.546904e-01
8.544539e-01	-5.503975e-03	-1.600523e-01
8.516942e-01	-5.422569e-03	-1.659686e-01
8.476357e-01	-5.287308e-03	-1.710329e-01
8.348403e-01	-5.107398e-03	-1.765208e-01
8.209870e-01	-4.875284e-03	-1.808052e-01
7.989482e-01	-4.576223e-03	-1.863389e-01
7.776618e-01	-4.482244e-03	-1.913272e-01
7.413198e-01	-4.093895e-03	-1.974851e-01
6.939397e-01	-3.401848e-03	-1.994340e-01
6.322584e-01	-2.975830e-03	-2.032089e-01
5.527418e-01	-2.603864e-03	-1.971705e-01
4.448253e-01	-2.081707e-03	-1.845439e-01
2.856533e-01	-1.531663e-03	-1.366727e-01
4.813074e-02	-9.544042e-04	-2.877773e-02
-2.912661e-01	-3.660013e-04	2.233146e-01
-7.242099e-01	2.502492e-04	9.669997e-01
-4.709250e-01	8.639511e-04	2.987106e+00
2.912749e+00	1.572107e-03	2.916912e+00
3.035861e+00	2.176771e-03	9.379884e-01
2.570973e+00	2.775049e-03	6.631239e-02
2.199932e+00	3.336955e-03	-1.972863e-01
1.940922e+00	3.877472e-03	-3.573082e-01
1.755022e+00	4.380096e-03	-4.203060e-01
1.593109e+00	4.842739e-03	-4.679108e-01
1.472927e+00	5.367291e-03	-4.837757e-01
1.372202e+00	5.462896e-03	-4.985101e-01
1.286315e+00	5.823954e-03	-4.959097e-01
1.207498e+00	6.111730e-03	-4.922324e-01
1.143475e+00	6.571274e-03	-4.823546e-01
1.086192e+00	6.724727e-03	-4.740954e-01
1.033455e+00	6.845919e-03	-4.614443e-01
9.845183e-01	6.928918e-03	-4.505863e-01
9.352746e-01	6.976866e-03	-4.355899e-01
8.883150e-01	7.011553e-03	-4.216238e-01
8.393814e-01	7.016737e-03	-4.033381e-01
7.888831e-01	7.013908e-03	-3.832699e-01
7.408837e-01	7.009768e-03	-3.615583e-01
8.171028e-01	-3.238185e-03	-1.438888e-01
8.352692e-01	-3.229533e-03	-1.485995e-01
8.470600e-01	-3.210833e-03	-1.544695e-01
8.529275e-01	-3.174333e-03	-1.597664e-01
8.497838e-01	-3.112926e-03	-1.655964e-01
8.453921e-01	-3.002589e-03	-1.705802e-01
8.322054e-01	-3.101735e-03	-1.759637e-01
8.176662e-01	-2.937058e-03	-1.800739e-01
7.987815e-01	-2.759533e-03	-1.863000e-01
7.735398e-01	-2.561094e-03	-1.903131e-01
7.340731e-01	-2.070053e-03	-1.955546e-01
6.902691e-01	-1.857367e-03	-1.983791e-01
6.289990e-01	-1.599335e-03	-2.021613e-01
5.486017e-01	-1.408517e-03	-1.956937e-01
4.380826e-01	-1.077405e-03	-1.817466e-01
2.777760e-01	-7.358094e-04	-1.329038e-01
3.868001e-02	-3.771069e-04	-2.312707e-02
-3.029836e-01	-2.448973e-05	2.322984e-01
-7.368603e-01	3.603543e-04	9.838911e-01
-4.761887e-01	7.302466e-04	3.020494e+00
2.937778e+00	1.169299e-03	2.941977e+00
3.056146e+00	1.554245e-03	9.442559e-01
2.584919e+00	1.933181e-03	6.667210e-02
2.210067e+00	2.274740e-03	-1.981952e-01
1.948593e+00	2.601028e-03	-3.587204e-01
1.760864e+00	2.901339e-03	-4.217052e-01
1.599314e+00	3.168816e-03	-4.697332e-01
1.478070e+00	3.516819e-03	-4.854646e-01
1.371693e+00	3.733076e-03	-4.983252e-01
1.285864e+00	3.651894e-03	-4.957360e-01
1.213380e+00	3.855700e-03	-4.946306e-01
1.148594e+00	4.014613e-03	-4.845138e-01
1.087426e+00	4.123246e-03	-4.746340e-01
1.034507e+00	4.179784e-03	-4.619145e-01
9.852796e-01	4.441668e-03	-4.509348e-01
9.357790e-01	4.446458e-03	-4.358248e-01
8.885636e-01	4.455577e-03	-4.217417e-01
8.394057e-01	4.457089e-03	-4.033497e-01
7.886686e-01	4.454040e-03	-3.831656e-01
7.402997e-01	4.448951e-03	-3.612733e-01
8.166584e-01	-2.113678e-03	-1.438106e-01
8.346970e-01	-2.109648e-03	-1.484978e-01
8.463257e-01	-2.098932e-03	-1.543355e-01
8.519466e-01	-2.078301e-03	-1.595827e-01
8.481524e-01	-2.039195e-03	-1.652785e-01
8.476814e-01	-2.060052e-03	-1.710421e-01
8.336360e-01	-1.990999e-03	-1.762662e-01
8.161220e-01	-1.913475e-03	-1.797338e-01
7.938764e-01	-1.836850e-03	-1.851560e-01
7.685937e-01	-1.492392e-03	-1.890962e-01
7.320970e-01	-1.375785e-03	-1.950282e-01
6.876725e-01	-1.229711e-03	-1.976328e-01
6.259866e-01	-1.067713e-03	-2.011931e-01
5.450764e-01	-7.867562e-04	-1.944362e-01
4.338751e-01	-5.919786e-04	-1.800010e-01
2.727631e-01	-3.815517e-04	-1.305053e-01
3.290996e-02	-1.580740e-04	-1.967711e-02
-3.100613e-01	7.071846e-05	2.377249e-01
-7.451274e-01	3.102444e-04	9.949297e-01
-4.796496e-01	5.490892e-04	3.042446e+00
2.953215e+00	8.241038e-04	2.957436e+00
3.069414e+00	1.058121e-03	9.483553e-01
2.594074e+00	1.289166e-03	6.690822e-02
2.216455e+00	1.504843e-03	-1.987681e-01
1.953478e+00	1.712264e-03	-3.596196e-01
1.764726e+00	1.906720e-03	-4.226301e-01
1.602498e+00	2.091025e-03	-4.706683e-01
1.480699e+00	2.155849e-03	-4.863284e-01
1.373887e+00	2.305490e-03	-4.991220e-01
1.287884e+00	2.434188e-03	-4.965149e-01
1.212040e+00	2.548264e-03	-4.940842e-01
1.146899e+00	2.406646e-03	-4.837987e-01
1.088414e+00	2.491570e-03	-4.750657e-01
1.037882e+00	2.540257e-03	-4.634211e-01
9.890512e-01	2.564034e-03	-4.526609e-01
9.355253e-01	2.648045e-03	-4.357067e-01
8.885795e-01	2.648114e-03	-4.217493e-01
8.393610e-01	2.648512e-03	-4.033283e-01
7.885350e-01	2.646486e-03	-3.831008e-01
7.401043e-01	2.644585e-03	-3.611779e-01
8.164266e-01	-1.312827e-03	-1.437697e-01
8.344056e-01	-1.310470e-03	-1.484459e-01
8.459562e-01	-1.304409e-03	-1.542682e-01
8.513874e-01	-1.293438e-03	-1.594779e-01
8.495285e-01	-1.278133e-03	-1.655466e-01
8.444595e-01	-1.274189e-03	-1.703920e-01
8.299451e-01	-1.023450e-03	-1.754857e-01
8.154777e-01	-9.895824e-04	-1.795919e-01
7.930383e-01	-9.936042e-04	-1.849605e-01
7.675033e-01	-9.180191e-04	-1.888279e-01
7.306411e-01	-8.349447e-04	-1.946403e-01
6.861638e-01	-7.444934e-04	-1.971992e-01
6.228920e-01	-6.505516e-04	-2.001985e-01
5.414609e-01	-4.408272e-04	-1.931465e-01
4.314965e-01	-3.293152e-04	-1.790143e-01
2.697932e-01	-2.058414e-04	-1.290843e-01
2.902518e-02	-7.343979e-05	-1.735437e-02
-3.149594e-01	4.519787e-05	2.414803e-01
-7.500686e-01	1.889424e-04	1.001528e+00
-4.817457e-01	3.315243e-04	3.055742e+00
2.962711e+00	4.946689e-04	2.966944e+00
3.076580e+00	6.322579e-04	9.505693e-01
2.599283e+00	7.858153e-04	6.704257e-02
2.220539e+00	9.107412e-04	-1.991343e-01
1.956653e+00	1.031624e-03	-3.602041e-01
1.767351e+00	1.146250e-03	-4.232587e-01
1.603003e+00	1.257943e-03	-4.708166e-01
1.481083e+00	1.253132e-03	-4.864545e-01
1.375319e+00	1.342351e-03	-4.996423e-01
1.288928e+00	1.414554e-03	-4.969172e-01
1.213052e+00	1.471556e-03	-4.944965e-01
1.147816e+00	1.513358e-03	-4.841857e-01
1.089221e+00	1.611362e-03	-4.754178e-01
1.035565e+00	1.650748e-03	-4.623866e-01
9.869385e-01	1.452151e-03	-4.516940e-01
9.374833e-01	1.484897e-03	-4.366186e-01
8.885733e-01	1.492384e-03	-4.217463e-01
8.393702e-01	1.493722e-03	-4.033327e-01
7.884837e-01	1.492769e-03	-3.830758e-01
7.400086e-01	1.491666e-03	-3.611313e-01
8.162629e-01	-1.468784e-03	-1.437409e-01
8.342060e-01	-1.469230e-03	-1.484104e-01
8.457290e-01	-1.471538e-03	-1.542267e-01
8.512811e-01	-1.458470e-03	-1.594580e-01
8.477867e-01	-1.430178e-03	-1.652072e-01
8.430130e-01	-1.415121e-03	-1.701001e-01
8.294210e-01	-1.249227e-03	-1.753749e-01
8.157151e-01	-1.275992e-03	-1.796442e-01
7.928916e-01	-1.058700e-03	-1.849263e-01
7.665108e-01	-1.087893e-03	-1.885837e-01
7.298289e-01	-7.352588e-04	-1.944240e-01
6.852137e-01	-7.938749e-04	-1.969262e-01
6.218152e-01	-3.639345e-04	-1.998524e-01
5.402258e-01	-4.318368e-04	-1.927059e-01
4.300587e-01	5.392040e-05	-1.784178e-01
2.680576e-01	3.846690e-04	-1.282539e-01
2.750937e-02	5.731588e-04	-1.644806e-02
-3.166923e-01	5.899903e-04	2.428089e-01
-7.530374e-01	6.338333e-04	1.005492e+00
-4.829576e-01	6.903538e-04	3.063429e+00
2.967933e+00	7.655288e-04	2.972175e+00
3.082367e+00	8.382917e-04	9.523573e-01
2.602929e+00	9.231863e-04	6.713662e-02
2.222541e+00	1.028119e-03	-1.993138e-01
1.958203e+00	9.579649e-04	-3.604895e-01
1.768606e+00	7.388141e-04	-4.235592e-01
1.604032e+00	3.581470e-04	-4.711191e-01
1.481913e+00	5.229130e-04	-4.867268e-01
1.375988e+00	1.813571e-04	-4.998854e-01
1.289514e+00	3.191673e-04	-4.971433e-01
1.213278e+00	3.672261e-05	-4.945887e-01
1.148667e+00	1.271204e-04	-4.845448e-01
1.090270e+00	-3.814030e-05	-4.758755e-01
1.035762e+00	3.527302e-05	-4.624747e-01
9.861566e-01	-5.386665e-05	-4.513361e-01
9.363152e-01	-9.564721e-05	-4.360746e-01
8.887986e-01	-1.197415e-04	-4.218533e-01
8.393860e-01	-1.295888e-04	-4.033403e-01
7.884415e-01	-1.257469e-04	-3.830553e-01
7.399355e-01	-1.249079e-04	-3.610956e-01
8.165015e-01	1.293617e-05	-1.437829e-01
8.345772e-01	1.253317e-05	-1.484764e-01
8.455016e-01	1.135248e-05	-1.541853e-01
8.503133e-01	9.054529e-06	-1.592767e-01
8.486820e-01	6.082977e-06	-1.653817e-01
8.411706e-01	-2.344614e-05	-1.697284e-01
8.279491e-01	-4.466421e-05	-1.750637e-01
8.126634e-01	-3.845080e-05	-1.789721e-01
7.905669e-01	-2.304859e-05	-1.843841e-01
7.632335e-01	-2.450092e-05	-1.877774e-01
7.267646e-01	-3.740916e-06	-1.936076e-01
6.813408e-01	-4.810341e-06	-1.958132e-01
6.176361e-01	-4.998971e-06	-1.985092e-01
5.356415e-01	-5.106502e-06	-1.910706e-01
4.180293e-01	-5.525172e-06	-1.734271e-01
2.599835e-01	-6.564016e-06	-1.243908e-01
2.420953e-02	-8.783786e-06	-1.447506e-02
-3.164054e-01	1.929335e-05	2.425889e-01
-7.527674e-01	1.399193e-05	1.005131e+00
-4.831518e-01	9.331877e-06	3.064661e+00
2.970039e+00	5.411448e-06	2.974284e+00
3.083625e+00	3.953551e-06	9.527461e-01
2.605524e+00	-2.825816e-05	6.720356e-02
2.220897e+00	-2.690550e-05	-1.991664e-01
1.950570e+00	-2.611594e-05	-3.590843e-01
1.756882e+00	-2.615476e-05	-4.207515e-01
1.600130e+00	-2.657761e-05	-4.699728e-01
1.478405e+00	-2.684242e-05	-4.855750e-01
1.372786e+00	-2.646598e-05	-4.987222e-01
1.287070e+00	-2.432430e-05	-4.962009e-01
1.210625e+00	-3.975992e-05	-4.935073e-01
1.146924e+00	-3.621912e-05	-4.838092e-01
1.087897e+00	-4.863533e-05	-4.748400e-01
1.035452e+00	-4.849358e-05	-4.623363e-01
9.847964e-01	1.449656e-05	-4.507136e-01
9.362305e-01	3.422245e-07	-4.360351e-01
8.877581e-01	-6.084640e-06	-4.213594e-01
8.391081e-01	-8.413017e-06	-4.032067e-01
7.887476e-01	-9.167445e-06	-3.832040e-01
7.401371e-01	-9.252292e-06	-3.611940e-01
8.163305e-01	1.464886e-03	-1.437528e-01
8.342997e-01	1.464837e-03	-1.484271e-01
8.458516e-01	1.465605e-03	-1.542491e-01
8.514139e-01	1.449119e-03	-1.594829e-01
8.484891e-01	1.409778e-03	-1.653441e-01
8.438778e-01	1.456898e-03	-1.702746e-01
8.296313e-01	1.279136e-03	-1.754194e-01
8.154041e-01	1.230920e-03	-1.795757e-01
7.927080e-01	1.027842e-03	-1.848835e-01
7.662560e-01	1.082455e-03	-1.885210e-01
7.295697e-01	7.344563e-04	-1.943549e-01
6.852307e-01	7.989783e-04	-1.969311e-01
6.218194e-01	3.402900e-04	-1.998538e-01
5.402334e-01	4.124023e-04	-1.927086e-01
4.300818e-01	-7.156462e-05	-1.784274e-01
2.681158e-01	-4.016240e-04	-1.282818e-01
2.703191e-02	-6.021452e-04	-1.616258e-02
-3.174144e-01	-6.193711e-04	2.433625e-01
-7.527588e-01	-6.645216e-04	1.005120e+00
-4.828622e-01	-7.233101e-04	3.062824e+00
2.967688e+00	-8.019556e-04	2.971929e+00
3.080608e+00	-8.782595e-04	9.518141e-01
2.602105e+00	-9.673184e-04	6.711538e-02
2.222593e+00	-1.062717e-03	-1.993185e-01
1.958216e+00	-9.976520e-04	-3.604920e-01
1.768597e+00	-7.833639e-04	-4.235572e-01
1.604022e+00	-4.074835e-04	-4.711160e-01
1.481914e+00	-5.774171e-04	-4.867274e-01
1.376022e+00	-2.058397e-04	-4.998975e-01
1.289345e+00	-3.471930e-04	-4.970781e-01
1.213128e+00	-6.401396e-05	-4.945275e-01
1.148558e+00	-1.682445e-04	-4.844987e-01
1.090101e+00	6.912339e-05	-4.758018e-01
1.036625e+00	-2.230451e-05	-4.628598e-01
9.870185e-01	6.052724e-05	-4.517306e-01
9.359201e-01	2.872948e-05	-4.358905e-01
8.885871e-01	5.622218e-05	-4.217529e-01
8.392831e-01	6.492665e-05	-4.032908e-01
7.883922e-01	6.053198e-05	-3.830314e-01
7.399225e-01	5.963813e-05	-3.610892e-01
8.165097e-01	1.198566e-03	-1.437844e-01
8.345269e-01	1.195878e-03	-1.484675e-01
8.461328e-01	1.188887e-03	-1.543004e-01
8.517703e-01	1.175931e-03	-1.595497e-01
8.483651e-01	1.155062e-03	-1.653199e-01
8.436771e-01	1.150624e-03	-1.702341e-01
8.313276e-01	1.126330e-03	-1.757781e-01
8.163008e-01	1.059209e-03	-1.797732e-01
7.925014e-01	1.038027e-03	-1.848353e-01
7.671102e-01	9.434485e-04	-1.887312e-01
7.305033e-01	8.370950e-04	-1.946036e-01
6.864592e-01	7.425691e-04	-1.972842e-01
6.232479e-01	6.379643e-04	-2.003129e-01
5.413698e-01	5.237224e-04	-1.931140e-01
4.314550e-01	4.025400e-04	-1.789970e-01
2.699817e-01	2.767992e-04	-1.291745e-01
2.931972e-02	1.490406e-04	-1.753048e-02
-3.149195e-01	-8.428736e-05	2.414497e-01
-7.499754e-01	-2.196435e-04	1.001403e+00
-4.816851e-01	-3.947270e-04	3.055358e+00
2.962362e+00	-5.622288e-04	2.966595e+00
3.076235e+00	-6.747128e-04	9.504628e-01
2.599528e+00	-8.257830e-04	6.704889e-02
2.220607e+00	-8.635824e-04	-1.991404e-01
1.956453e+00	-9.985172e-04	-3.601673e-01
1.767185e+00	-1.119992e-03	-4.232191e-01
1.602851e+00	-1.230803e-03	-4.707722e-01
1.481444e+00	-1.329852e-03	-4.865730e-01
1.375656e+00	-1.416665e-03	-4.997646e-01
1.288893e+00	-1.492948e-03	-4.969036e-01
1.212889e+00	-1.525950e-03	-4.944300e-01
1.148538e+00	-1.575927e-03	-4.844902e-01
1.089980e+00	-1.664395e-03	-4.757489e-01
1.035208e+00	-1.686516e-03	-4.622271e-01
9.857329e-01	-1.767793e-03	-4.511422e-01
9.360489e-01	-1.765291e-03	-4.359505e-01
8.886379e-01	-1.764726e-03	-4.217770e-01
8.393151e-01	-1.764000e-03	-4.033062e-01
7.884478e-01	-1.762397e-03	-3.830584e-01
7.400002e-01	-1.761077e-03	-3.611272e-01
8.167815e-01	2.055889e-03	-1.438322e-01
8.348651e-01	2.051402e-03	-1.485277e-01
8.465518e-01	2.039633e-03	-1.543768e-01
8.522780e-01	2.017670e-03	-1.596447e-01
8.489671e-01	1.983436e-03	-1.654372e-01
8.443954e-01	1.934779e-03	-1.703790e-01
8.310690e-01	1.863438e-03	-1.757234e-01
8.166375e-01	1.847719e-03	-1.798473e-01
7.942868e-01	1.724478e-03	-1.852517e-01
7.688939e-01	1.587690e-03	-1.891700e-01
7.321970e-01	1.434398e-03	-1.950548e-01
6.878844e-01	1.265272e-03	-1.976937e-01
6.248584e-01	1.115297e-03	-2.008305e-01
5.437315e-01	9.187078e-04	-1.939564e-01