# vtk DataFile Version 2.0
OUTPUT by 3D-VPM
ASCII
DATASET UNSTRUCTURED_GRID
POINTS 820 double
9.510565e-01	0.000000e+00	-3.090170e-01
9.442611e-01	0.000000e+00	-3.078203e-01
9.267277e-01	0.000000e+00	-3.047010e-01
8.963175e-01	0.000000e+00	-2.991555e-01
8.562911e-01	0.000000e+00	-2.916579e-01
8.054250e-01	0.000000e+00	-2.817457e-01
7.470317e-01	0.000000e+00	-2.699633e-01
6.809074e-01	0.000000e+00	-2.559818e-01
6.100852e-01	0.000000e+00	-2.403847e-01
5.354138e-01	0.000000e+00	-2.229691e-01
4.593635e-01	0.000000e+00	-2.042585e-01
3.837764e-01	0.000000e+00	-1.841224e-01
3.103069e-01	0.000000e+00	-1.630077e-01
2.415927e-01	0.000000e+00	-1.409228e-01
1.782654e-01	0.000000e+00	-1.183331e-01
1.234349e-01	0.000000e+00	-9.558566e-02
7.662509e-02	0.000000e+00	-7.318920e-02
4.106998e-02	0.000000e+00	-5.193053e-02
1.528206e-02	0.000000e+00	-3.215886e-02
2.347037e-03	0.000000e+00	-1.488740e-02
0.000000e+00	0.000000e+00	0.000000e+00
1.064939e-02	0.000000e+00	1.066461e-02
3.126595e-02	0.000000e+00	1.703450e-02
6.375031e-02	0.000000e+00	1.787236e-02
1.050105e-01	0.000000e+00	1.417221e-02
1.560448e-01	0.000000e+00	4.777214e-03
2.137742e-01	0.000000e+00	-9.048270e-03
2.782849e-01	0.000000e+00	-2.799567e-02
3.468570e-01	0.000000e+00	-5.051783e-02
4.187060e-01	0.000000e+00	-7.662000e-02
4.916930e-01	0.000000e+00	-1.047585e-01
5.642168e-01	0.000000e+00	-1.343226e-01
6.348639e-01	0.000000e+00	-1.641238e-01
7.013280e-01	0.000000e+00	-1.931337e-01
7.630418e-01	0.000000e+00	-2.206893e-01
8.172084e-01	0.000000e+00	-2.454799e-01
8.641863e-01	0.000000e+00	-2.673591e-01
9.009752e-01	0.000000e+00	-2.848204e-01
9.288372e-01	0.000000e+00	-2.982085e-01
9.448555e-01	0.000000e+00	-3.059908e-01
9.510565e-01	0.000000e+00	-3.090170e-01
9.510565e-01	1.052632e+00	-3.090170e-01
9.442611e-01	1.052632e+00	-3.078203e-01
9.267277e-01	1.052632e+00	-3.047010e-01
8.963175e-01	1.052632e+00	-2.991555e-01
8.562911e-01	1.052632e+00	-2.916579e-01
8.054250e-01	1.052632e+00	-2.817457e-01
7.470317e-01	1.052632e+00	-2.699633e-01
6.809074e-01	1.052632e+00	-2.559818e-01
6.100852e-01	1.052632e+00	-2.403847e-01
5.354138e-01	1.052632e+00	-2.229691e-01
4.593635e-01	1.052632e+00	-2.042585e-01
3.837764e-01	1.052632e+00	-1.841224e-01
3.103069e-01	1.052632e+00	-1.630077e-01
2.415927e-01	1.052632e+00	-1.409228e-01
1.782654e-01	1.052632e+00	-1.183331e-01
1.234349e-01	1.052632e+00	-9.558566e-02
7.662509e-02	1.052632e+00	-7.318920e-02
4.106998e-02	1.052632e+00	-5.193053e-02
1.528206e-02	1.052632e+00	-3.215886e-02
2.347037e-03	1.052632e+00	-1.488740e-02
0.000000e+00	1.052632e+00	0.000000e+00
1.064939e-02	1.052632e+00	1.066461e-02
3.126595e-02	1.052632e+00	1.703450e-02
6.375031e-02	1.052632e+00	1.787236e-02
1.050105e-01	1.052632e+00	1.417221e-02
1.560448e-01	1.052632e+00	4.777214e-03
2.137742e-01	1.052632e+00	-9.048270e-03
2.782849e-01	1.052632e+00	-2.799567e-02
3.468570e-01	1.052632e+00	-5.051783e-02
4.187060e-01	1.052632e+00	-7.662000e-02
4.916930e-01	1.052632e+00	-1.047585e-01
5.642168e-01	1.052632e+00	-1.343226e-01
6.348639e-01	1.052632e+00	-1.641238e-01
7.013280e-01	1.052632e+00	-1.931337e-01
7.630418e-01	1.052632e+00	-2.206893e-01
8.172084e-01	1.052632e+00	-2.454799e-01
8.641863e-01	1.052632e+00	-2.673591e-01
9.009752e-01	1.052632e+00	-2.848204e-01
9.288372e-01	1.052632e+00	-2.982085e-01
9.448555e-01	1.052632e+00	-3.059908e-01
9.510565e-01	1.052632e+00	-3.090170e-01
9.510565e-01	2.105263e+00	-3.090170e-01
9.442611e-01	2.105263e+00	-3.078203e-01
9.267277e-01	2.105263e+00	-3.047010e-01
8.963175e-01	2.105263e+00	-2.991555e-01
8.562911e-01	2.105263e+00	-2.916579e-01
8.054250e-01	2.105263e+00	-2.817457e-01
7.470317e-01	2.105263e+00	-2.699633e-01
6.809074e-01	2.105263e+00	-2.559818e-01
6.100852e-01	2.105263e+00	-2.403847e-01
5.354138e-01	2.105263e+00	-2.229691e-01
4.593635e-01	2.105263e+00	-2.042585e-01
3.837764e-01	2.105263e+00	-1.841224e-01
3.103069e-01	2.105263e+00	-1.630077e-01
2.415927e-01	2.105263e+00	-1.409228e-01
1.782654e-01	2.105263e+00	-1.183331e-01
1.234349e-01	2.105263e+00	-9.558566e-02
7.662509e-02	2.105263e+00	-7.318920e-02
4.106998e-02	2.105263e+00	-5.193053e-02
1.528206e-02	2.105263e+00	-3.215886e-02
2.347037e-03	2.105263e+00	-1.488740e-02
0.000000e+00	2.105263e+00	0.000000e+00
1.064939e-02	2.105263e+00	1.066461e-02
3.126595e-02	2.105263e+00	1.703450e-02
6.375031e-02	2.105263e+00	1.787236e-02
1.050105e-01	2.105263e+00	1.417221e-02
1.560448e-01	2.105263e+00	4.777214e-03
2.137742e-01	2.105263e+00	-9.048270e-03
2.782849e-01	2.105263e+00	-2.799567e-02
3.468570e-01	2.105263e+00	-5.051783e-02
4.187060e-01	2.105263e+00	-7.662000e-02
4.916930e-01	2.105263e+00	-1.047585e-01
5.642168e-01	2.105263e+00	-1.343226e-01
6.348639e-01	2.105263e+00	-1.641238e-01
7.013280e-01	2.105263e+00	-1.931337e-01
7.630418e-01	2.105263e+00	-2.206893e-01
8.172084e-01	2.105263e+00	-2.454799e-01
8.641863e-01	2.105263e+00	-2.673591e-01
9.009752e-01	2.105263e+00	-2.848204e-01
9.288372e-01	2.105263e+00	-2.982085e-01
9.448555e-01	2.105263e+00	-3.059908e-01
9.510565e-01	2.105263e+00	-3.090170e-01
9.510565e-01	3.157895e+00	-3.090170e-01
9.442611e-01	3.157895e+00	-3.078203e-01
9.267277e-01	3.157895e+00	-3.047010e-01
8.963175e-01	3.157895e+00	-2.991555e-01
8.562911e-01	3.157895e+00	-2.916579e-01
8.054250e-01	3.157895e+00	-2.817457e-01
7.470317e-01	3.157895e+00	-2.699633e-01
6.809074e-01	3.157895e+00	-2.559818e-01
6.100852e-01	3.157895e+00	-2.403847e-01
5.354138e-01	3.157895e+00	-2.229691e-01
4.593635e-01	3.157895e+00	-2.042585e-01
3.837764e-01	3.157895e+00	-1.841224e-01
3.103069e-01	3.157895e+00	-1.630077e-01
2.415927e-01	3.157895e+00	-1.409228e-01
1.782654e-01	3.157895e+00	-1.183331e-01
1.234349e-01	3.157895e+00	-9.558566e-02
7.662509e-02	3.157895e+00	-7.318920e-02
4.106998e-02	3.157895e+00	-5.193053e-02
1.528206e-02	3.157895e+00	-3.215886e-02
2.347037e-03	3.157895e+00	-1.488740e-02
0.000000e+00	3.157895e+00	0.000000e+00
1.064939e-02	3.157895e+00	1.066461e-02
3.126595e-02	3.157895e+00	1.703450e-02
6.375031e-02	3.157895e+00	1.787236e-02
1.050105e-01	3.157895e+00	1.417221e-02
1.560448e-01	3.157895e+00	4.777214e-03
2.137742e-01	3.157895e+00	-9.048270e-03
2.782849e-01	3.157895e+00	-2.799567e-02
3.468570e-01	3.157895e+00	-5.051783e-02
4.187060e-01	3.157895e+00	-7.662000e-02
4.916930e-01	3.157895e+00	-1.047585e-01
5.642168e-01	3.157895e+00	-1.343226e-01
6.348639e-01	3.157895e+00	-1.641238e-01
7.013280e-01	3.157895e+00	-1.931337e-01
7.630418e-01	3.157895e+00	-2.206893e-01
8.172084e-01	3.157895e+00	-2.454799e-01
8.641863e-01	3.157895e+00	-2.673591e-01
9.009752e-01	3.157895e+00	-2.848204e-01
9.288372e-01	3.157895e+00	-2.982085e-01
9.448555e-01	3.157895e+00	-3.059908e-01
9.510565e-01	3.157895e+00	-3.090170e-01
9.510565e-01	4.210526e+00	-3.090170e-01
9.442611e-01	4.210526e+00	-3.078203e-01
9.267277e-01	4.210526e+00	-3.047010e-01
8.963175e-01	4.210526e+00	-2.991555e-01
8.562911e-01	4.210526e+00	-2.916579e-01
8.054250e-01	4.210526e+00	-2.817457e-01
7.470317e-01	4.210526e+00	-2.699633e-01
6.809074e-01	4.210526e+00	-2.559818e-01
6.100852e-01	4.210526e+00	-2.403847e-01
5.354138e-01	4.210526e+00	-2.229691e-01
4.593635e-01	4.210526e+00	-2.042585e-01
3.837764e-01	4.210526e+00	-1.841224e-01
3.103069e-01	4.210526e+00	-1.630077e-01
2.415927e-01	4.210526e+00	-1.409228e-01
1.782654e-01	4.210526e+00	-1.183331e-01
1.234349e-01	4.210526e+00	-9.558566e-02
7.662509e-02	4.210526e+00	-7.318920e-02
4.106998e-02	4.210526e+00	-5.193053e-02
1.528206e-02	4.210526e+00	-3.215886e-02
2.347037e-03	4.210526e+00	-1.488740e-02
0.000000e+00	4.210526e+00	0.000000e+00
1.064939e-02	4.210526e+00	1.066461e-02
3.126595e-02	4.210526e+00	1.703450e-02
6.375031e-02	4.210526e+00	1.787236e-02
1.050105e-01	4.210526e+00	1.417221e-02
1.560448e-01	4.210526e+00	4.777214e-03
2.137742e-01	4.210526e+00	-9.048270e-03
2.782849e-01	4.210526e+00	-2.799567e-02
3.468570e-01	4.210526e+00	-5.051783e-02
4.187060e-01	4.210526e+00	-7.662000e-02
4.916930e-01	4.210526e+00	-1.047585e-01
5.642168e-01	4.210526e+00	-1.343226e-01
6.348639e-01	4.210526e+00	-1.641238e-01
7.013280e-01	4.210526e+00	-1.931337e-01
7.630418e-01	4.210526e+00	-2.206893e-01
8.172084e-01	4.210526e+00	-2.454799e-01
8.641863e-01	4.210526e+00	-2.673591e-01
9.009752e-01	4.210526e+00	-2.848204e-01
9.288372e-01	4.210526e+00	-2.982085e-01
9.448555e-01	4.210526e+00	-3.059908e-01
9.510565e-01	4.210526e+00	-3.090170e-01
9.510565e-01	5.263158e+00	-3.090170e-01
9.442611e-01	5.263158e+00	-3.078203e-01
9.267277e-01	5.263158e+00	-3.047010e-01
8.963175e-01	5.263158e+00	-2.991555e-01
8.562911e-01	5.263158e+00	-2.916579e-01
8.054250e-01	5.263158e+00	-2.817457e-01
7.470317e-01	5.263158e+00	-2.699633e-01
6.809074e-01	5.263158e+00	-2.559818e-01
6.100852e-01	5.263158e+00	-2.403847e-01
5.354138e-01	5.263158e+00	-2.229691e-01
4.593635e-01	5.263158e+00	-2.042585e-01
3.837764e-01	5.263158e+00	-1.841224e-01
3.103069e-01	5.263158e+00	-1.630077e-01
2.415927e-01	5.263158e+00	-1.409228e-01
1.782654e-01	5.263158e+00	-1.183331e-01
1.234349e-01	5.263158e+00	-9.558566e-02
7.662509e-02	5.263158e+00	-7.318920e-02
4.106998e-02	5.263158e+00	-5.193053e-02
1.528206e-02	5.263158e+00	-3.215886e-02
2.347037e-03	5.263158e+00	-1.488740e-02
0.000000e+00	5.263158e+00	0.000000e+00
1.064939e-02	5.263158e+00	1.066461e-02
3.126595e-02	5.263158e+00	1.703450e-02
6.375031e-02	5.263158e+00	1.787236e-02
1.050105e-01	5.263158e+00	1.417221e-02
1.560448e-01	5.263158e+00	4.777214e-03
2.137742e-01	5.263158e+00	-9.048270e-03
2.782849e-01	5.263158e+00	-2.799567e-02
3.468570e-01	5.263158e+00	-5.051783e-02
4.187060e-01	5.263158e+00	-7.662000e-02
4.916930e-01	5.263158e+00	-1.047585e-01
5.642168e-01	5.263158e+00	-1.343226e-01
6.348639e-01	5.263158e+00	-1.641238e-01
7.013280e-01	5.263158e+00	-1.931337e-01
7.630418e-01	5.263158e+00	-2.206893e-01
8.172084e-01	5.263158e+00	-2.454799e-01
8.641863e-01	5.263158e+00	-2.673591e-01
9.009752e-01	5.263158e+00	-2.848204e-01
9.288372e-01	5.263158e+00	-2.982085e-01
9.448555e-01	5.263158e+00	-3.059908e-01
9.510565e-01	5.263158e+00	-3.090170e-01
9.510565e-01	6.315789e+00	-3.090170e-01
9.442611e-01	6.315789e+00	-3.078203e-01
[...]
CELL_DATA 760
VECTORS V double
8.414948e-01	-6.641798e-02	-1.481842e-01
8.656431e-01	-6.583243e-02	-1.540032e-01
8.837018e-01	-6.617651e-02	-1.611514e-01
8.955161e-01	-6.580131e-02	-1.677439e-01
8.979795e-01	-6.495724e-02	-1.749882e-01
8.999879e-01	-6.367272e-02	-1.815963e-01
8.929245e-01	-6.192907e-02	-1.888023e-01
8.852391e-01	-5.975250e-02	-1.949554e-01
8.710441e-01	-5.709773e-02	-2.031538e-01
8.554888e-01	-5.393880e-02	-2.104749e-01
8.303806e-01	-5.024433e-02	-2.212106e-01
7.996111e-01	-4.603631e-02	-2.298033e-01
7.523235e-01	-4.131658e-02	-2.417980e-01
6.904926e-01	-3.615211e-02	-2.463081e-01
6.040667e-01	-3.058366e-02	-2.506082e-01
4.736920e-01	-2.473591e-02	-2.266411e-01
2.723562e-01	-1.861766e-02	-1.628438e-01
-1.468596e-02	-1.239722e-02	1.125977e-02
-4.187880e-01	-5.876371e-03	5.591858e-01
-3.414330e-01	6.571628e-04	2.165730e+00
2.321374e+00	8.317301e-03	2.324691e+00
2.537095e+00	1.503561e-02	7.838849e-01
2.207339e+00	2.193306e-02	5.693328e-02
1.923203e+00	2.873035e-02	-1.724697e-01
1.718422e+00	3.566537e-02	-3.163478e-01
1.569024e+00	4.257216e-02	-3.757618e-01
1.434450e+00	4.944208e-02	-4.213112e-01
1.335839e+00	5.609405e-02	-4.387499e-01
1.250023e+00	6.240605e-02	-4.541232e-01
1.181190e+00	6.818767e-02	-4.553811e-01
1.121384e+00	7.328674e-02	-4.571285e-01
1.071259e+00	7.759084e-02	-4.518915e-01
1.027167e+00	8.102321e-02	-4.483327e-01
9.874187e-01	8.357230e-02	-4.408890e-01
9.503670e-01	8.526086e-02	-4.349562e-01
9.113810e-01	8.622509e-02	-4.244618e-01
8.743200e-01	8.656074e-02	-4.149812e-01
8.341832e-01	8.639303e-02	-4.008402e-01
7.910737e-01	8.532592e-02	-3.843342e-01
7.483354e-01	8.543060e-02	-3.651948e-01
7.923597e-01	-4.838183e-02	-1.395316e-01
8.672376e-01	-4.825797e-02	-1.542869e-01
8.809110e-01	-4.794061e-02	-1.606425e-01
8.796532e-01	-4.737875e-02	-1.647725e-01
8.761851e-01	-4.654915e-02	-1.707412e-01
8.736436e-01	-4.544924e-02	-1.762807e-01
8.626211e-01	-4.400559e-02	-1.823949e-01
8.508300e-01	-4.228644e-02	-1.873775e-01
8.318077e-01	-4.023905e-02	-1.940027e-01
8.104975e-01	-3.783564e-02	-1.994057e-01
7.787406e-01	-3.510034e-02	-2.074539e-01
7.401323e-01	-3.202241e-02	-2.127095e-01
6.836957e-01	-2.861984e-02	-2.197409e-01
6.107855e-01	-2.471205e-02	-2.178755e-01
5.112045e-01	-2.075691e-02	-2.120826e-01
3.635465e-01	-1.661185e-02	-1.739412e-01
1.406029e-01	-1.228366e-02	-8.406755e-02
-1.775789e-01	-7.889234e-03	1.361503e-01
-5.989221e-01	-3.289032e-03	7.997095e-01
-4.180568e-01	1.313042e-03	2.651760e+00
2.674441e+00	6.694094e-03	2.678263e+00
2.837415e+00	1.139409e-02	8.766748e-01
2.428464e+00	1.619254e-02	6.263669e-02
2.093728e+00	2.088763e-02	-1.877621e-01
1.857586e+00	2.563862e-02	-3.419666e-01
1.687178e+00	3.032903e-02	-4.040582e-01
1.536852e+00	3.495852e-02	-4.513877e-01
1.425718e+00	3.918214e-02	-4.682702e-01
1.328838e+00	4.336282e-02	-4.827559e-01
1.249846e+00	4.715676e-02	-4.818501e-01
1.180253e+00	5.047712e-02	-4.811264e-01
1.120683e+00	5.328669e-02	-4.727399e-01
1.067207e+00	5.554010e-02	-4.658091e-01
1.018127e+00	5.724323e-02	-4.546006e-01
9.719452e-01	5.839896e-02	-4.448320e-01
9.239813e-01	5.916347e-02	-4.303302e-01
8.769652e-01	5.955993e-02	-4.162368e-01
8.180006e-01	5.970565e-02	-3.930642e-01
7.597250e-01	5.970198e-02	-3.691037e-01
7.563511e-01	5.965881e-02	-3.691065e-01
8.207081e-01	-2.184490e-02	-1.445237e-01
8.399136e-01	-2.199965e-02	-1.494258e-01
8.529541e-01	-2.147327e-02	-1.555443e-01
8.601545e-01	-2.103125e-02	-1.611201e-01
8.587070e-01	-2.051686e-02	-1.673352e-01
8.557789e-01	-1.989537e-02	-1.726760e-01
8.440826e-01	-1.912218e-02	-1.784750e-01
8.316080e-01	-1.821704e-02	-1.831442e-01
8.109751e-01	-1.719025e-02	-1.891439e-01
7.880239e-01	-1.601515e-02	-1.938766e-01
7.544031e-01	-1.470059e-02	-2.009705e-01
7.132494e-01	-1.324414e-02	-2.049835e-01
6.508876e-01	-1.166082e-02	-2.091963e-01
5.735270e-01	-9.971797e-03	-2.045849e-01
4.722800e-01	-8.186015e-03	-1.959340e-01
3.176881e-01	-6.335302e-03	-1.520000e-01
8.606004e-02	-4.418525e-03	-5.145594e-02
-2.446984e-01	-2.477122e-03	1.876110e-01
-6.727878e-01	-4.523603e-04	8.983384e-01
-4.492456e-01	1.564048e-03	2.849592e+00
2.816279e+00	3.902270e-03	2.820304e+00
2.955867e+00	5.918474e-03	9.132729e-01
2.513742e+00	7.941196e-03	6.483623e-02
2.157691e+00	9.875506e-03	-1.934981e-01
1.908194e+00	1.178225e-02	-3.512831e-01
1.728845e+00	1.360212e-02	-4.140371e-01
1.568348e+00	1.533547e-02	-4.606381e-01
1.452452e+00	1.694314e-02	-4.770507e-01
1.353955e+00	1.840967e-02	-4.918810e-01
1.270969e+00	1.970827e-02	-4.899936e-01
1.198137e+00	2.083388e-02	-4.884168e-01
1.135944e+00	2.176564e-02	-4.791778e-01
1.080123e+00	2.249468e-02	-4.714467e-01
1.028830e+00	2.308357e-02	-4.593793e-01
9.814655e-01	2.350142e-02	-4.491891e-01
9.335571e-01	2.383221e-02	-4.347900e-01
8.874091e-01	2.408943e-02	-4.211938e-01
8.393711e-01	2.432468e-02	-4.033331e-01
7.894933e-01	2.484905e-02	-3.835663e-01
7.417234e-01	2.474724e-02	-3.619681e-01
8.183306e-01	-1.031211e-02	-1.441050e-01
8.369244e-01	-1.029085e-02	-1.488940e-01
8.492810e-01	-1.023346e-02	-1.548745e-01
8.557004e-01	-1.010509e-02	-1.602858e-01
8.531624e-01	-9.956398e-03	-1.662547e-01
8.494450e-01	-9.717816e-03	-1.713979e-01
8.367139e-01	-9.410023e-03	-1.769170e-01
8.233423e-01	-9.023883e-03	-1.813239e-01
8.020977e-01	-8.542044e-03	-1.870734e-01
7.778128e-01	-7.986506e-03	-1.913643e-01
7.425225e-01	-7.325266e-03	-1.978055e-01
6.996163e-01	-6.583883e-03	-2.010654e-01
6.382364e-01	-5.750692e-03	-2.051302e-01
5.591504e-01	-5.074133e-03	-1.994566e-01
4.520189e-01	-4.123365e-03	-1.875284e-01
2.941569e-01	-3.138589e-03	-1.407413e-01
5.818904e-02	-2.116838e-03	-3.479166e-02
-2.790328e-01	-1.082194e-03	2.139353e-01
-7.105177e-01	-2.381516e-06	9.487172e-01
-4.651191e-01	1.071775e-03	2.950279e+00
2.887968e+00	2.312835e-03	2.892095e+00
3.015167e+00	3.376340e-03	9.315947e-01
2.555941e+00	4.434420e-03	6.592468e-02
2.188933e+00	5.435749e-03	-1.962999e-01
1.932378e+00	6.407017e-03	-3.557354e-01
1.748040e+00	7.318875e-03	-4.186340e-01
1.587403e+00	8.173067e-03	-4.662350e-01
1.468318e+00	9.161441e-03	-4.822619e-01
1.364866e+00	9.851721e-03	-4.958449e-01
1.280438e+00	1.046805e-02	-4.936441e-01
1.206015e+00	1.100367e-02	-4.916282e-01
1.141906e+00	1.142373e-02	-4.816926e-01
1.084829e+00	1.174694e-02	-4.735005e-01
1.032695e+00	1.198783e-02	-4.611052e-01
9.840004e-01	1.214045e-02	-4.503493e-01
9.350194e-01	1.221297e-02	-4.354710e-01
8.882570e-01	1.222358e-02	-4.215962e-01
8.394409e-01	1.224183e-02	-4.033666e-01
7.889544e-01	1.223760e-02	-3.833045e-01
7.407603e-01	1.222935e-02	-3.614981e-01
8.171395e-01	-5.704513e-03	-1.438953e-01
8.353001e-01	-5.693453e-03	-1.486050e-01
8.463357e-01	-5.662779e-03	-1.543374e-01
8.532177e-01	-5.601864e-03	-1.598208e-01
8.507584e-01	-5.519024e-03	-1.657863e-01
8.462878e-01	-5.382052e-03	-1.707609e-01
8.333532e-01	-5.200286e-03	-1.762064e-01
8.192400e-01	-4.988830e-03	-1.804205e-01
7.969769e-01	-4.703077e-03	-1.858791e-01
7.720473e-01	-4.367592e-03	-1.899459e-01
7.360710e-01	-3.994966e-03	-1.960868e-01
6.922695e-01	-3.565255e-03	-1.989540e-01
6.298228e-01	-3.081413e-03	-2.024261e-01
5.495098e-01	-2.665595e-03	-1.960176e-01
4.407776e-01	-2.089190e-03	-1.828647e-01
2.807348e-01	-1.520368e-03	-1.343194e-01
4.213316e-02	-9.126476e-04	-2.519173e-02
-2.987829e-01	-2.981667e-04	2.290777e-01
-7.322757e-01	3.443923e-04	9.777696e-01
-4.742751e-01	9.835796e-04	3.008356e+00
2.929226e+00	1.720867e-03	2.933412e+00
3.049158e+00	2.350347e-03	9.420969e-01
2.580031e+00	2.973666e-03	6.654601e-02
2.206538e+00	3.559620e-03	-1.978787e-01
1.945960e+00	4.120982e-03	-3.582357e-01
1.759079e+00	4.658080e-03	-4.212778e-01
1.596376e+00	5.121585e-03	-4.688702e-01
1.475616e+00	5.665081e-03	-4.846586e-01
1.370981e+00	6.052195e-03	-4.980664e-01
1.285506e+00	6.394297e-03	-4.955979e-01
1.210106e+00	6.691897e-03	-4.932957e-01
1.145444e+00	6.921893e-03	-4.831851e-01
1.087675e+00	7.120409e-03	-4.747428e-01
1.034539e+00	7.243846e-03	-4.619285e-01
9.851478e-01	7.326098e-03	-4.508744e-01
9.352058e-01	7.373965e-03	-4.355579e-01
8.880450e-01	7.407424e-03	-4.214956e-01
8.399279e-01	7.411820e-03	-4.036007e-01
7.889727e-01	7.408486e-03	-3.833134e-01
7.404605e-01	7.404204e-03	-3.613518e-01
8.164744e-01	-3.326013e-03	-1.437782e-01
8.344688e-01	-3.319623e-03	-1.484571e-01
8.460478e-01	-3.302888e-03	-1.542849e-01
8.520652e-01	-3.290938e-03	-1.596049e-01
8.486451e-01	-3.218102e-03	-1.653745e-01
8.439032e-01	-3.125893e-03	-1.702797e-01
8.306449e-01	-3.007697e-03	-1.756337e-01
8.162488e-01	-2.851531e-03	-1.797617e-01
7.937134e-01	-2.678384e-03	-1.851180e-01
7.685167e-01	-2.470974e-03	-1.890772e-01
7.320369e-01	-2.232431e-03	-1.950122e-01
6.874442e-01	-1.955757e-03	-1.975672e-01
6.256951e-01	-1.649643e-03	-2.010994e-01
5.445017e-01	-1.427335e-03	-1.942312e-01
4.333504e-01	-1.084214e-03	-1.797834e-01
2.725171e-01	-7.181225e-04	-1.303876e-01
3.207922e-02	-3.368514e-04	-1.918040e-02
-3.111809e-01	4.969075e-05	2.385833e-01
-7.459168e-01	4.535943e-04	9.959838e-01
-4.800022e-01	8.550493e-04	3.044683e+00
2.954932e+00	1.317186e-03	2.959154e+00
3.070229e+00	1.710583e-03	9.486071e-01
2.594845e+00	2.098378e-03	6.692811e-02
2.217323e+00	2.460383e-03	-1.988459e-01
1.954427e+00	2.806994e-03	-3.597943e-01
1.765124e+00	3.125972e-03	-4.227255e-01
1.602726e+00	3.422389e-03	-4.707354e-01
1.481164e+00	3.793627e-03	-4.864809e-01
1.374367e+00	4.020984e-03	-4.992966e-01
1.288510e+00	4.214361e-03	-4.967563e-01
1.212623e+00	4.382010e-03	-4.943218e-01
1.147377e+00	4.498800e-03	-4.840005e-01
1.089150e+00	4.627458e-03	-4.753869e-01
1.035676e+00	4.698087e-03	-4.624361e-01
9.861160e-01	4.752793e-03	-4.513175e-01
9.365533e-01	4.788249e-03	-4.361854e-01
8.892044e-01	4.833174e-03	-4.220459e-01
8.395180e-01	4.826975e-03	-4.034037e-01
7.886140e-01	4.821506e-03	-3.831391e-01
7.401045e-01	4.818124e-03	-3.611780e-01
8.160671e-01	-2.047588e-03	-1.437064e-01
8.339482e-01	-2.043595e-03	-1.483645e-01
8.454132e-01	-2.038113e-03	-1.541691e-01
8.509222e-01	-2.021540e-03	-1.593908e-01
8.474061e-01	-1.981877e-03	-1.651330e-01
8.426336e-01	-2.026408e-03	-1.700236e-01
8.291058e-01	-1.923451e-03	-1.753083e-01
8.145562e-01	-1.814978e-03	-1.793889e-01
7.918398e-01	-1.695570e-03	-1.846810e-01
7.661924e-01	-1.559723e-03	-1.885054e-01
7.293378e-01	-1.411386e-03	-1.942932e-01
6.845031e-01	-1.239286e-03	-1.967220e-01
6.224372e-01	-1.059961e-03	-2.000523e-01
5.411832e-01	-7.583847e-04	-1.930474e-01
4.292457e-01	-5.763600e-04	-1.780804e-01
2.669733e-01	-3.406132e-04	-1.277351e-01
2.573296e-02	-1.040111e-04	-1.538593e-02
-3.189993e-01	1.386031e-04	2.445777e-01
-7.545199e-01	3.929891e-04	1.007471e+00
-4.836144e-01	6.266538e-04	3.067595e+00
2.971131e+00	9.388659e-04	2.975377e+00
3.083476e+00	1.184959e-03	9.527002e-01
2.604139e+00	1.428036e-03	6.716782e-02
2.224072e+00	1.655771e-03	-1.994511e-01
1.959297e+00	1.873513e-03	-3.606909e-01
1.769612e+00	2.067004e-03	-4.238002e-01
1.606551e+00	2.292323e-03	-4.718587e-01
1.483859e+00	2.361631e-03	-4.873661e-01
1.376461e+00	2.519308e-03	-5.000572e-01
1.290062e+00	2.646405e-03	-4.973544e-01
1.213669e+00	2.760273e-03	-4.947482e-01
1.148570e+00	2.849717e-03	-4.845039e-01
1.090355e+00	2.921733e-03	-4.759126e-01
1.036349e+00	2.978028e-03	-4.627366e-01
9.866089e-01	3.111735e-03	-4.515431e-01
9.366813e-01	3.101950e-03	-4.362450e-01
8.890764e-01	3.083973e-03	-4.219851e-01
8.395686e-01	3.081605e-03	-4.034280e-01
7.885286e-01	3.082437e-03	-3.830976e-01
7.399426e-01	3.080017e-03	-3.610990e-01
8.158044e-01	-1.168953e-03	-1.436602e-01
8.339607e-01	-1.166466e-03	-1.483668e-01
8.452451e-01	-1.160068e-03	-1.541385e-01
8.505973e-01	-1.148191e-03	-1.593299e-01
8.488992e-01	-1.129411e-03	-1.654240e-01
8.427288e-01	-1.102217e-03	-1.700428e-01
8.273895e-01	-1.065074e-03	-1.749454e-01
8.130081e-01	-1.023809e-03	-1.790480e-01
7.902694e-01	-1.028815e-03	-1.843147e-01
7.647861e-01	-9.441525e-04	-1.881594e-01
7.278492e-01	-8.592290e-04	-1.938966e-01
6.827582e-01	-7.548467e-04	-1.962205e-01
6.190619e-01	-6.498457e-04	-1.989675e-01
5.372198e-01	-4.254633e-04	-1.916336e-01
4.265996e-01	-2.910560e-04	-1.769827e-01
2.638052e-01	-1.603826e-04	-1.262194e-01
2.185010e-02	-2.084402e-05	-1.306434e-02
-3.238886e-01	1.225849e-04	2.483263e-01
-7.595055e-01	2.729805e-04	1.014128e+00
-4.858283e-01	4.225665e-04	3.081638e+00
2.982092e+00	5.946760e-04	2.986354e+00
3.091723e+00	7.410600e-04	9.552481e-01
2.609987e+00	8.853626e-04	6.731867e-02
2.228345e+00	1.020799e-03	-1.998343e-01
1.962654e+00	1.151497e-03	-3.613089e-01
1.772345e+00	1.275992e-03	-4.244547e-01
1.607078e+00	1.380843e-03	-4.720135e-01
1.484353e+00	1.378089e-03	-4.875283e-01
1.378074e+00	1.476000e-03	-5.006433e-01
1.291552e+00	1.571552e-03	-4.979288e-01
1.215169e+00	1.631706e-03	-4.953597e-01
1.149440e+00	1.780935e-03	-4.848706e-01
1.090867e+00	1.775295e-03	-4.761361e-01
1.038349e+00	1.793663e-03	-4.636297e-01
9.882478e-01	1.803473e-03	-4.522932e-01
9.360521e-01	1.809042e-03	-4.359520e-01
8.886953e-01	1.810625e-03	-4.218042e-01
8.394527e-01	1.809688e-03	-4.033723e-01
7.885896e-01	1.807798e-03	-3.831273e-01
7.397339e-01	1.806411e-03	-3.609972e-01
8.156497e-01	-1.380276e-03	-1.436329e-01
8.334299e-01	-1.380566e-03	-1.482723e-01
8.447716e-01	-1.376722e-03	-1.540521e-01
8.501399e-01	-1.367362e-03	-1.592442e-01
8.464667e-01	-1.325945e-03	-1.649500e-01
8.415139e-01	-1.252633e-03	-1.697976e-01
8.278970e-01	-1.131614e-03	-1.750527e-01
8.140620e-01	-1.191250e-03	-1.792801e-01
7.907433e-01	-9.974739e-04	-1.844253e-01
7.639666e-01	-1.058817e-03	-1.879578e-01
7.268643e-01	-6.825830e-04	-1.936342e-01
6.817101e-01	-7.705294e-04	-1.959193e-01
6.179097e-01	-3.519943e-04	-1.985972e-01
5.357797e-01	-4.164551e-04	-1.911199e-01
4.249225e-01	8.215046e-05	-1.762869e-01
2.620032e-01	4.156267e-04	-1.253572e-01
1.969372e-02	6.076062e-04	-1.177502e-02
-3.265120e-01	6.270140e-04	2.503377e-01
-7.628048e-01	6.727457e-04	1.018533e+00
-4.870935e-01	7.510095e-04	3.089663e+00
2.986730e+00	8.078404e-04	2.990998e+00
3.096246e+00	8.845553e-04	9.566458e-01
2.613137e+00	9.729903e-04	6.739991e-02
2.230660e+00	1.080515e-03	-2.000419e-01
1.964418e+00	1.013665e-03	-3.616337e-01
1.773525e+00	7.961477e-04	-4.247373e-01
1.608020e+00	4.051433e-04	-4.722901e-01
1.485224e+00	5.833139e-04	-4.878145e-01
1.378984e+00	2.356540e-04	-5.009739e-01
1.292025e+00	3.962629e-04	-4.981112e-01
1.216284e+00	9.853845e-05	-4.958143e-01
1.150439e+00	2.462560e-04	-4.852920e-01
1.090514e+00	1.051234e-05	-4.759822e-01
1.036759e+00	6.159569e-05	-4.629198e-01
9.868591e-01	-1.804346e-04	-4.516576e-01
9.368208e-01	-1.204979e-04	-4.363100e-01
8.890985e-01	-1.352897e-04	-4.219956e-01
8.394881e-01	-1.328646e-04	-4.033893e-01
7.883682e-01	-1.323876e-04	-3.830197e-01
7.397302e-01	-1.310821e-04	-3.609954e-01
8.158531e-01	2.626915e-05	-1.436688e-01
8.337105e-01	2.622192e-05	-1.483222e-01
8.447717e-01	2.597878e-05	-1.540522e-01
8.492365e-01	2.533886e-05	-1.590750e-01
8.465347e-01	2.418267e-05	-1.649632e-01
8.393267e-01	2.321818e-05	-1.693563e-01
8.265802e-01	-1.812140e-05	-1.747743e-01
8.109903e-01	-6.701384e-06	-1.786036e-01
7.885503e-01	7.389163e-05	-1.839138e-01
7.606249e-01	7.020290e-05	-1.871356e-01
7.240435e-01	7.693810e-05	-1.928828e-01
6.784834e-01	7.414702e-05	-1.949919e-01
6.139233e-01	1.633410e-05	-1.973160e-01
5.311648e-01	1.896369e-05	-1.894737e-01
4.128680e-01	2.857764e-06	-1.712859e-01
2.538821e-01	-8.503216e-06	-1.214716e-01
1.690251e-02	-6.762358e-06	-1.010614e-02
-3.254521e-01	-6.268279e-06	2.495250e-01
-7.627444e-01	-6.899010e-06	1.018453e+00
-4.873487e-01	-8.252739e-06	3.091282e+00
2.988901e+00	-1.040979e-05	2.993172e+00
3.099094e+00	-1.270233e-05	9.575256e-01
2.616422e+00	-1.551515e-05	6.748464e-02
2.228852e+00	-1.910225e-05	-1.998797e-01
1.956668e+00	-1.005275e-05	-3.602069e-01
1.761713e+00	1.282226e-06	-4.219086e-01
1.604269e+00	-7.866224e-06	-4.711884e-01
1.481767e+00	-1.925830e-05	-4.866792e-01
1.375767e+00	2.681761e-05	-4.998050e-01
1.289786e+00	1.650426e-06	-4.972479e-01
1.213264e+00	1.279841e-06	-4.945831e-01
1.148411e+00	-8.105063e-05	-4.844365e-01
1.088286e+00	-6.204783e-05	-4.750096e-01
1.035812e+00	-3.482914e-06	-4.624970e-01
9.850191e-01	-1.152827e-05	-4.508155e-01
9.370181e-01	-1.687939e-05	-4.364019e-01
8.883633e-01	-1.894647e-05	-4.216467e-01
8.395523e-01	-2.001590e-05	-4.034202e-01
7.886600e-01	-2.051901e-05	-3.831615e-01
7.399339e-01	-2.066488e-05	-3.610948e-01
8.156577e-01	1.453650e-03	-1.436343e-01
8.334479e-01	1.453751e-03	-1.482755e-01
8.448034e-01	1.454268e-03	-1.540579e-01
8.501861e-01	1.446221e-03	-1.592529e-01
8.465089e-01	1.406974e-03	-1.649582e-01
8.422886e-01	1.422954e-03	-1.699540e-01
8.283178e-01	1.262632e-03	-1.751417e-01
8.127245e-01	1.280449e-03	-1.789856e-01
7.897287e-01	1.075864e-03	-1.841886e-01
7.639260e-01	1.129748e-03	-1.879478e-01
7.268120e-01	6.861184e-04	-1.936203e-01
6.825039e-01	7.828323e-04	-1.961474e-01
6.187040e-01	3.615967e-04	-1.988525e-01
5.359667e-01	4.290386e-04	-1.911866e-01
4.253750e-01	-7.704123e-05	-1.764746e-01
2.622020e-01	-4.093799e-04	-1.254523e-01
1.964284e-02	-6.004643e-04	-1.174460e-02
-3.265131e-01	-6.213382e-04	2.503386e-01
-7.627542e-01	-6.694810e-04	1.018466e+00
-4.870566e-01	-7.537354e-04	3.089429e+00
2.986508e+00	-8.115206e-04	2.990775e+00
3.096017e+00	-8.923850e-04	9.565749e-01
2.612926e+00	-9.850842e-04	6.739447e-02
2.230832e+00	-1.096826e-03	-2.000573e-01
1.964832e+00	-1.033371e-03	-3.617099e-01
1.773540e+00	-8.013558e-04	-4.247409e-01
1.607707e+00	-4.269732e-04	-4.721982e-01
1.485731e+00	-6.117976e-04	-4.879809e-01
1.379238e+00	-2.623973e-04	-5.010662e-01
1.291704e+00	-3.532243e-04	-4.979876e-01
1.215254e+00	-9.314606e-05	-4.953944e-01
1.149607e+00	-2.591202e-04	-4.849410e-01
1.091531e+00	-2.185008e-05	-4.764262e-01
1.037530e+00	-9.408816e-05	-4.632643e-01
9.866422e-01	3.659679e-05	-4.515584e-01
9.366776e-01	-5.011606e-07	-4.362433e-01
8.890241e-01	2.496807e-05	-4.219603e-01
8.394370e-01	2.508306e-05	-4.033648e-01
7.883326e-01	2.116121e-05	-3.830024e-01
7.397079e-01	2.020059e-05	-3.609845e-01
8.158362e-01	1.138078e-03	-1.436658e-01
8.336721e-01	1.133144e-03	-1.483154e-01
8.450760e-01	1.118202e-03	-1.541076e-01
8.505082e-01	1.005881e-03	-1.593132e-01
8.468996e-01	1.046790e-03	-1.650343e-01
8.420140e-01	1.050404e-03	-1.698985e-01
8.286389e-01	1.054676e-03	-1.752096e-01
8.137415e-01	1.007201e-03	-1.792095e-01
7.905147e-01	9.437532e-04	-1.843719e-01
7.657724e-01	8.696850e-04	-1.884021e-01
7.286218e-01	7.825380e-04	-1.941024e-01
6.826742e-01	6.808073e-04	-1.961964e-01
6.190605e-01	6.082652e-04	-1.989671e-01
5.372791e-01	4.863134e-04	-1.916548e-01
4.267119e-01	3.737738e-04	-1.770293e-01
2.637674e-01	2.488086e-04	-1.262012e-01
2.185644e-02	1.038991e-04	-1.306813e-02
-3.237930e-01	-5.203961e-05	2.482530e-01
-7.592938e-01	-2.048175e-04	1.013845e+00
-4.857426e-01	-3.565510e-04	3.081095e+00
2.981811e+00	-5.313039e-04	2.986072e+00
3.091352e+00	-6.801791e-04	9.551334e-01
2.609713e+00	-8.169874e-04	6.731160e-02
2.228159e+00	-9.533915e-04	-1.998176e-01
1.962909e+00	-1.095947e-03	-3.613559e-01
1.772274e+00	-1.230771e-03	-4.244377e-01
1.606732e+00	-1.335330e-03	-4.719120e-01
1.484288e+00	-1.407332e-03	-4.875072e-01
1.379025e+00	-1.547091e-03	-5.009888e-01
1.291949e+00	-1.613605e-03	-4.980820e-01
1.214468e+00	-1.668977e-03	-4.950740e-01
1.149222e+00	-1.711201e-03	-4.847786e-01
1.090615e+00	-1.739436e-03	-4.760260e-01
1.036510e+00	-1.801152e-03	-4.628086e-01
9.866918e-01	-1.770984e-03	-4.515810e-01
9.366950e-01	-1.748265e-03	-4.362514e-01
8.890203e-01	-1.620479e-03	-4.219585e-01
8.394599e-01	-1.656902e-03	-4.033758e-01
7.883874e-01	-1.667100e-03	-3.830290e-01
7.397868e-01	-1.667382e-03	-3.610230e-01
8.164859e-01	2.127276e-03	-1.437802e-01
8.346286e-01	2.127082e-03	-1.484856e-01
8.496460e-01	2.045609e-03	-1.549410e-01
8.514733e-01	2.025159e-03	-1.594940e-01
8.456836e-01	1.986911e-03	-1.647973e-01
8.421521e-01	1.944949e-03	-1.699264e-01
8.290207e-01	1.873509e-03	-1.752903e-01
8.143068e-01	1.802012e-03	-1.793340e-01
7.915845e-01	1.674110e-03	-1.846214e-01
7.660427e-01	1.541254e-03	-1.884685e-01
7.292803e-01	1.462140e-03	-1.942778e-01
6.848364e-01	1.277982e-03	-1.968178e-01
6.213867e-01	1.089315e-03	-1.997147e-01
5.394627e-01	8.651567e-04	-1.924337e-01