# vtk DataFile Version 2.0
OUTPUT by 3D-VPM
ASCII
DATASET UNSTRUCTURED_GRID
POINTS 820 double
9.510565e-01	0.000000e+00	-3.090170e-01
9.442611e-01	0.000000e+00	-3.078203e-01
9.267277e-01	0.000000e+00	-3.047010e-01
8.963175e-01	0.000000e+00	-2.991555e-01
8.562911e-01	0.000000e+00	-2.916579e-01
8.054250e-01	0.000000e+00	-2.817457e-01
7.470317e-01	0.000000e+00	-2.699633e-01
6.809074e-01	0.000000e+00	-2.559818e-01
6.100852e-01	0.000000e+00	-2.403847e-01
5.354138e-01	0.000000e+00	-2.229691e-01
4.593635e-01	0.000000e+00	-2.042585e-01
3.837764e-01	0.000000e+00	-1.841224e-01
3.103069e-01	0.000000e+00	-1.630077e-01
2.415927e-01	0.000000e+00	-1.409228e-01
1.782654e-01	0.000000e+00	-1.183331e-01
1.234349e-01	0.000000e+00	-9.558566e-02
7.662509e-02	0.000000e+00	-7.318920e-02
4.106998e-02	0.000000e+00	-5.193053e-02
1.528206e-02	0.000000e+00	-3.215886e-02
2.347037e-03	0.000000e+00	-1.488740e-02
0.000000e+00	0.000000e+00	0.000000e+00
1.064939e-02	0.000000e+00	1.066461e-02
3.126595e-02	0.000000e+00	1.703450e-02
6.375031e-02	0.000000e+00	1.787236e-02
1.050105e-01	0.000000e+00	1.417221e-02
1.560448e-01	0.000000e+00	4.777214e-03
2.137742e-01	0.000000e+00	-9.048270e-03
2.782849e-01	0.000000e+00	-2.799567e-02
3.468570e-01	0.000000e+00	-5.051783e-02
4.187060e-01	0.000000e+00	-7.662000e-02
4.916930e-01	0.000000e+00	-1.047585e-01
5.642168e-01	0.000000e+00	-1.343226e-01
6.348639e-01	0.000000e+00	-1.641238e-01
7.013280e-01	0.000000e+00	-1.931337e-01
7.630418e-01	0.000000e+00	-2.206893e-01
8.172084e-01	0.000000e+00	-2.454799e-01
8.641863e-01	0.000000e+00	-2.673591e-01
9.009752e-01	0.000000e+00	-2.848204e-01
9.288372e-01	0.000000e+00	-2.982085e-01
9.448555e-01	0.000000e+00	-3.059908e-01
9.510565e-01	0.000000e+00	-3.090170e-01
9.510565e-01	1.052632e+00	-3.090170e-01
9.442611e-01	1.052632e+00	-3.078203e-01
9.267277e-01	1.052632e+00	-3.047010e-01
8.963175e-01	1.052632e+00	-2.991555e-01
8.562911e-01	1.052632e+00	-2.916579e-01
8.054250e-01	1.052632e+00	-2.817457e-01
7.470317e-01	1.052632e+00	-2.699633e-01
6.809074e-01	1.052632e+00	-2.559818e-01
6.100852e-01	1.052632e+00	-2.403847e-01
5.354138e-01	1.052632e+00	-2.229691e-01
4.593635e-01	1.052632e+00	-2.042585e-01
3.837764e-01	1.052632e+00	-1.841224e-01
3.103069e-01	1.052632e+00	-1.630077e-01
2.415927e-01	1.052632e+00	-1.409228e-01
1.782654e-01	1.052632e+00	-1.183331e-01
1.234349e-01	1.052632e+00	-9.558566e-02
7.662509e-02	1.052632e+00	-7.318920e-02
4.106998e-02	1.052632e+00	-5.193053e-02
1.528206e-02	1.052632e+00	-3.215886e-02
2.347037e-03	1.052632e+00	-1.488740e-02
0.000000e+00	1.052632e+00	0.000000e+00
1.064939e-02	1.052632e+00	1.066461e-02
3.126595e-02	1.052632e+00	1.703450e-02
6.375031e-02	1.052632e+00	1.787236e-02
1.050105e-01	1.052632e+00	1.417221e-02
1.560448e-01	1.052632e+00	4.777214e-03
2.137742e-01	1.052632e+00	-9.048270e-03
2.782849e-01	1.052632e+00	-2.799567e-02
3.468570e-01	1.052632e+00	-5.051783e-02
4.187060e-01	1.052632e+00	-7.662000e-02
4.916930e-01	1.052632e+00	-1.047585e-01
5.642168e-01	1.052632e+00	-1.343226e-01
6.348639e-01	1.052632e+00	-1.641238e-01
7.013280e-01	1.052632e+00	-1.931337e-01
7.630418e-01	1.052632e+00	-2.206893e-01
8.172084e-01	1.052632e+00	-2.454799e-01
8.641863e-01	1.052632e+00	-2.673591e-01
9.009752e-01	1.052632e+00	-2.848204e-01
9.288372e-01	1.052632e+00	-2.982085e-01
9.448555e-01	1.052632e+00	-3.059908e-01
9.510565e-01	1.052632e+00	-3.090170e-01
9.510565e-01	2.105263e+00	-3.090170e-01
9.442611e-01	2.105263e+00	-3.078203e-01
9.267277e-01	2.105263e+00	-3.047010e-01
8.963175e-01	2.105263e+00	-2.991555e-01
8.562911e-01	2.105263e+00	-2.916579e-01
8.054250e-01	2.105263e+00	-2.817457e-01
7.470317e-01	2.105263e+00	-2.699633e-01
6.809074e-01	2.105263e+00	-2.559818e-01
6.100852e-01	2.105263e+00	-2.403847e-01
5.354138e-01	2.105263e+00	-2.229691e-01
4.593635e-01	2.105263e+00	-2.042585e-01
3.837764e-01	2.105263e+00	-1.841224e-01
3.103069e-01	2.105263e+00	-1.630077e-01
2.415927e-01	2.105263e+00	-1.409228e-01
1.782654e-01	2.105263e+00	-1.183331e-01
1.234349e-01	2.105263e+00	-9.558566e-02
7.662509e-02	2.105263e+00	-7.318920e-02
4.106998e-02	2.105263e+00	-5.193053e-02
1.528206e-02	2.105263e+00	-3.215886e-02
2.347037e-03	2.105263e+00	-1.488740e-02
0.000000e+00	2.105263e+00	0.000000e+00
1.064939e-02	2.105263e+00	1.066461e-02
3.126595e-02	2.105263e+00	1.703450e-02
6.375031e-02	2.105263e+00	1.787236e-02
1.050105e-01	2.105263e+00	1.417221e-02
1.560448e-01	2.105263e+00	4.777214e-03
2.137742e-01	2.105263e+00	-9.048270e-03
2.782849e-01	2.105263e+00	-2.799567e-02
3.468570e-01	2.105263e+00	-5.051783e-02
4.187060e-01	2.105263e+00	-7.662000e-02
4.916930e-01	2.105263e+00	-1.047585e-01
5.642168e-01	2.105263e+00	-1.343226e-01
6.348639e-01	2.105263e+00	-1.641238e-01
7.013280e-01	2.105263e+00	-1.931337e-01
7.630418e-01	2.105263e+00	-2.206893e-01
8.172084e-01	2.105263e+00	-2.454799e-01
8.641863e-01	2.105263e+00	-2.673591e-01
9.009752e-01	2.105263e+00	-2.848204e-01
9.288372e-01	2.105263e+00	-2.982085e-01
9.448555e-01	2.105263e+00	-3.059908e-01
9.510565e-01	2.105263e+00	-3.090170e-01
9.510565e-01	3.157895e+00	-3.090170e-01
9.442611e-01	3.157895e+00	-3.078203e-01
9.267277e-01	3.157895e+00	-3.047010e-01
8.963175e-01	3.157895e+00	-2.991555e-01
8.562911e-01	3.157895e+00	-2.916579e-01
8.054250e-01	3.157895e+00	-2.817457e-01
7.470317e-01	3.157895e+00	-2.699633e-01
6.809074e-01	3.157895e+00	-2.559818e-01
6.100852e-01	3.157895e+00	-2.403847e-01
5.354138e-01	3.157895e+00	-2.229691e-01
4.593635e-01	3.157895e+00	-2.042585e-01
3.837764e-01	3.157895e+00	-1.841224e-01
3.103069e-01	3.157895e+00	-1.630077e-01
2.415927e-01	3.157895e+00	-1.409228e-01
1.782654e-01	3.157895e+00	-1.183331e-01
1.234349e-01	3.157895e+00	-9.558566e-02
7.662509e-02	3.157895e+00	-7.318920e-02
4.106998e-02	3.157895e+00	-5.193053e-02
1.528206e-02	3.157895e+00	-3.215886e-02
2.347037e-03	3.157895e+00	-1.488740e-02
0.000000e+00	3.157895e+00	0.000000e+00
1.064939e-02	3.157895e+00	1.066461e-02
3.126595e-02	3.157895e+00	1.703450e-02
6.375031e-02	3.157895e+00	1.787236e-02
1.050105e-01	3.157895e+00	1.417221e-02
1.560448e-01	3.157895e+00	4.777214e-03
2.137742e-01	3.157895e+00	-9.048270e-03
2.782849e-01	3.157895e+00	-2.799567e-02
3.468570e-01	3.157895e+00	-5.051783e-02
4.187060e-01	3.157895e+00	-7.662000e-02
4.916930e-01	3.157895e+00	-1.047585e-01
5.642168e-01	3.157895e+00	-1.343226e-01
6.348639e-01	3.157895e+00	-1.641238e-01
7.013280e-01	3.157895e+00	-1.931337e-01
7.630418e-01	3.157895e+00	-2.206893e-01
8.172084e-01	3.157895e+00	-2.454799e-01
8.641863e-01	3.157895e+00	-2.673591e-01
9.009752e-01	3.157895e+00	-2.848204e-01
9.288372e-01	3.157895e+00	-2.982085e-01
9.448555e-01	3.157895e+00	-3.059908e-01
9.510565e-01	3.157895e+00	-3.090170e-01
9.510565e-01	4.210526e+00	-3.090170e-01
9.442611e-01	4.210526e+00	-3.078203e-01
9.267277e-01	4.210526e+00	-3.047010e-01
8.963175e-01	4.210526e+00	-2.991555e-01
8.562911e-01	4.210526e+00	-2.916579e-01
8.054250e-01	4.210526e+00	-2.817457e-01
7.470317e-01	4.210526e+00	-2.699633e-01
6.809074e-01	4.210526e+00	-2.559818e-01
6.100852e-01	4.210526e+00	-2.403847e-01
5.354138e-01	4.210526e+00	-2.229691e-01
4.593635e-01	4.210526e+00	-2.042585e-01
3.837764e-01	4.210526e+00	-1.841224e-01
3.103069e-01	4.210526e+00	-1.630077e-01
2.415927e-01	4.210526e+00	-1.409228e-01
1.782654e-01	4.210526e+00	-1.183331e-01
1.234349e-01	4.210526e+00	-9.558566e-02
7.662509e-02	4.210526e+00	-7.318920e-02
4.106998e-02	4.210526e+00	-5.193053e-02
1.528206e-02	4.210526e+00	-3.215886e-02
2.347037e-03	4.210526e+00	-1.488740e-02
0.000000e+00	4.210526e+00	0.000000e+00
1.064939e-02	4.210526e+00	1.066461e-02
3.126595e-02	4.210526e+00	1.703450e-02
6.375031e-02	4.210526e+00	1.787236e-02
1.050105e-01	4.210526e+00	1.417221e-02
1.560448e-01	4.210526e+00	4.777214e-03
2.137742e-01	4.210526e+00	-9.048270e-03
2.782849e-01	4.210526e+00	-2.799567e-02
3.468570e-01	4.210526e+00	-5.051783e-02
4.187060e-01	4.210526e+00	-7.662000e-02
4.916930e-01	4.210526e+00	-1.047585e-01
5.642168e-01	4.210526e+00	-1.343226e-01
6.348639e-01	4.210526e+00	-1.641238e-01
7.013280e-01	4.210526e+00	-1.931337e-01
7.630418e-01	4.210526e+00	-2.206893e-01
8.172084e-01	4.210526e+00	-2.454799e-01
8.641863e-01	4.210526e+00	-2.673591e-01
9.009752e-01	4.210526e+00	-2.848204e-01
9.288372e-01	4.210526e+00	-2.982085e-01
9.448555e-01	4.210526e+00	-3.059908e-01
9.510565e-01	4.210526e+00	-3.090170e-01
9.510565e-01	5.263158e+00	-3.090170e-01
9.442611e-01	5.263158e+00	-3.078203e-01
9.267277e-01	5.263158e+00	-3.047010e-01
8.963175e-01	5.263158e+00	-2.991555e-01
8.562911e-01	5.263158e+00	-2.916579e-01
8.054250e-01	5.263158e+00	-2.817457e-01
7.470317e-01	5.263158e+00	-2.699633e-01
6.809074e-01	5.263158e+00	-2.559818e-01
6.100852e-01	5.263158e+00	-2.403847e-01
5.354138e-01	5.263158e+00	-2.229691e-01
4.593635e-01	5.263158e+00	-2.042585e-01
3.837764e-01	5.263158e+00	-1.841224e-01
3.103069e-01	5.263158e+00	-1.630077e-01
2.415927e-01	5.263158e+00	-1.409228e-01
1.782654e-01	5.263158e+00	-1.183331e-01
1.234349e-01	5.263158e+00	-9.558566e-02
7.662509e-02	5.263158e+00	-7.318920e-02
4.106998e-02	5.263158e+00	-5.193053e-02
1.528206e-02	5.263158e+00	-3.215886e-02
2.347037e-03	5.263158e+00	-1.488740e-02
0.000000e+00	5.263158e+00	0.000000e+00
1.064939e-02	5.263158e+00	1.066461e-02
3.126595e-02	5.263158e+00	1.703450e-02
6.375031e-02	5.263158e+00	1.787236e-02
1.050105e-01	5.263158e+00	1.417221e-02
1.560448e-01	5.263158e+00	4.777214e-03
2.137742e-01	5.263158e+00	-9.048270e-03
2.782849e-01	5.263158e+00	-2.799567e-02
3.468570e-01	5.263158e+00	-5.051783e-02
4.187060e-01	5.263158e+00	-7.662000e-02
4.916930e-01	5.263158e+00	-1.047585e-01
5.642168e-01	5.263158e+00	-1.343226e-01
6.348639e-01	5.263158e+00	-1.641238e-01
7.013280e-01	5.263158e+00	-1.931337e-01
7.630418e-01	5.263158e+00	-2.206893e-01
8.172084e-01	5.263158e+00	-2.454799e-01
8.641863e-01	5.263158e+00	-2.673591e-01
9.009752e-01	5.263158e+00	-2.848204e-01
9.288372e-01	5.263158e+00	-2.982085e-01
9.448555e-01	5.263158e+00	-3.059908e-01
9.510565e-01	5.263158e+00	-3.090170e-01
9.510565e-01	6.315789e+00	-3.090170e-01
9.442611e-01	6.315789e+00	-3.078203e-01
[...]
CELL_DATA 760
VECTORS V double
8.414257e-01	-6.903449e-02	-1.481720e-01
8.655472e-01	-6.886091e-02	-1.539862e-01
8.835626e-01	-6.841116e-02	-1.611260e-01
8.953289e-01	-6.761676e-02	-1.677088e-01
8.977943e-01	-6.645584e-02	-1.749521e-01
8.991072e-01	-6.491074e-02	-1.814186e-01
8.920698e-01	-6.297114e-02	-1.886216e-01
8.847597e-01	-6.061298e-02	-1.948498e-01
8.704259e-01	-5.780778e-02	-2.030096e-01
8.547862e-01	-5.452295e-02	-2.103020e-01
8.294817e-01	-5.073303e-02	-2.209712e-01
7.985604e-01	-4.642380e-02	-2.295013e-01
7.512118e-01	-4.162823e-02	-2.414407e-01
6.891882e-01	-3.639749e-02	-2.458428e-01
6.025386e-01	-3.076953e-02	-2.499742e-01
4.718631e-01	-2.486717e-02	-2.257660e-01
2.701543e-01	-1.869838e-02	-1.615272e-01
-1.741633e-02	-1.242921e-02	1.335315e-02
-4.218051e-01	-5.861108e-03	5.632143e-01
-3.426954e-01	7.198019e-04	2.173738e+00
2.327061e+00	8.433364e-03	2.330386e+00
2.541731e+00	1.519851e-02	7.853173e-01
2.210579e+00	2.214511e-02	5.701685e-02
1.925546e+00	2.899286e-02	-1.726798e-01
1.720200e+00	3.598276e-02	-3.166750e-01
1.570417e+00	4.294972e-02	-3.760954e-01
1.435563e+00	4.988807e-02	-4.216382e-01
1.336746e+00	5.661930e-02	-4.390475e-01
1.250647e+00	6.302525e-02	-4.543501e-01
1.181705e+00	6.890807e-02	-4.555799e-01
1.121875e+00	7.415226e-02	-4.573288e-01
1.071618e+00	7.862073e-02	-4.520427e-01
1.027478e+00	8.225125e-02	-4.484682e-01
9.872030e-01	8.503612e-02	-4.407927e-01
9.499817e-01	8.702673e-02	-4.347799e-01
9.115296e-01	8.832100e-02	-4.245310e-01
8.743625e-01	8.904723e-02	-4.150014e-01
8.341882e-01	8.935450e-02	-4.008427e-01
7.910599e-01	8.939845e-02	-3.843275e-01
7.483088e-01	8.935277e-02	-3.651818e-01
8.268602e-01	-4.834694e-02	-1.456071e-01
8.473487e-01	-4.822263e-02	-1.507486e-01
8.618120e-01	-4.790411e-02	-1.571596e-01
8.704988e-01	-4.734030e-02	-1.630578e-01
8.702508e-01	-4.650856e-02	-1.695847e-01
8.688673e-01	-4.539005e-02	-1.753169e-01
8.588690e-01	-4.397410e-02	-1.816015e-01
8.480002e-01	-4.224569e-02	-1.867543e-01
8.293307e-01	-4.019001e-02	-1.934250e-01
8.083433e-01	-3.779189e-02	-1.988757e-01
7.765563e-01	-3.502156e-02	-2.068720e-01
7.378974e-01	-3.192948e-02	-2.120672e-01
6.815938e-01	-2.849302e-02	-2.190654e-01
6.085430e-01	-2.476726e-02	-2.170756e-01
5.087441e-01	-2.077815e-02	-2.110618e-01
3.607444e-01	-1.660877e-02	-1.726006e-01
1.373378e-01	-1.226089e-02	-8.211530e-02
-1.815441e-01	-7.847919e-03	1.391904e-01
-6.032450e-01	-3.230000e-03	8.054815e-01
-4.198653e-01	1.389939e-03	2.663231e+00
2.682589e+00	6.790600e-03	2.686423e+00
2.844173e+00	1.150706e-02	8.787627e-01
2.433318e+00	1.632158e-02	6.276188e-02
2.097385e+00	2.103123e-02	-1.880900e-01
1.860525e+00	2.579476e-02	-3.425077e-01
1.689678e+00	3.049246e-02	-4.046571e-01
1.539089e+00	3.511856e-02	-4.520446e-01
1.427830e+00	3.955489e-02	-4.689637e-01
1.330736e+00	4.372963e-02	-4.834456e-01
1.251918e+00	4.753511e-02	-4.826490e-01
1.182681e+00	5.086100e-02	-4.821160e-01
1.123348e+00	5.367854e-02	-4.738643e-01
1.070401e+00	5.593800e-02	-4.672032e-01
1.021748e+00	5.764383e-02	-4.562173e-01
9.765955e-01	5.883727e-02	-4.469602e-01
9.307644e-01	5.958917e-02	-4.334893e-01
8.867523e-01	5.998792e-02	-4.208820e-01
8.402948e-01	6.013433e-02	-4.037770e-01
7.917023e-01	6.013070e-02	-3.846395e-01
7.448114e-01	6.008740e-02	-3.634750e-01
8.205647e-01	-2.042137e-02	-1.444984e-01
8.397235e-01	-2.036953e-02	-1.493920e-01
8.527066e-01	-2.023916e-02	-1.554992e-01
8.598653e-01	-2.000309e-02	-1.610660e-01
8.580744e-01	-1.964440e-02	-1.672119e-01
8.551076e-01	-1.914640e-02	-1.725405e-01
8.434839e-01	-1.849930e-02	-1.783484e-01
8.308798e-01	-1.769778e-02	-1.829839e-01
8.103199e-01	-1.671470e-02	-1.889911e-01
7.869284e-01	-1.559394e-02	-1.936070e-01
7.528596e-01	-1.432123e-02	-2.005593e-01
7.115630e-01	-1.291137e-02	-2.044988e-01
6.517400e-01	-1.135440e-02	-2.094703e-01
5.745813e-01	-9.686528e-03	-2.049610e-01
4.697920e-01	-7.917839e-03	-1.949018e-01
3.150395e-01	-6.080814e-03	-1.507327e-01
8.303797e-02	-4.172190e-03	-4.964902e-02
-2.483627e-01	-2.239913e-03	1.904204e-01
-6.767862e-01	-2.230986e-04	9.036773e-01
-4.509150e-01	1.786282e-03	2.860181e+00
2.823730e+00	4.116662e-03	2.827766e+00
2.961931e+00	6.125731e-03	9.151464e-01
2.517964e+00	8.140295e-03	6.494515e-02
2.160700e+00	1.006516e-02	-1.937680e-01
1.910361e+00	1.195661e-02	-3.516821e-01
1.730294e+00	1.376107e-02	-4.143840e-01
1.572792e+00	1.547392e-02	-4.619436e-01
1.456131e+00	1.705453e-02	-4.782589e-01
1.354657e+00	1.848538e-02	-4.921359e-01
1.271700e+00	1.975203e-02	-4.902754e-01
1.198798e+00	2.081782e-02	-4.886860e-01
1.136482e+00	2.167855e-02	-4.794046e-01
1.080551e+00	2.231591e-02	-4.716337e-01
1.029170e+00	2.278775e-02	-4.595311e-01
9.815343e-01	2.308999e-02	-4.492206e-01
9.334885e-01	2.325475e-02	-4.347580e-01
8.875245e-01	2.331729e-02	-4.212485e-01
8.394024e-01	2.331509e-02	-4.033482e-01
7.894777e-01	2.328465e-02	-3.835588e-01
7.416773e-01	2.325786e-02	-3.619456e-01
8.181610e-01	-1.025278e-02	-1.440752e-01
8.367461e-01	-1.023163e-02	-1.488623e-01
8.489731e-01	-1.017505e-02	-1.548183e-01
8.553583e-01	-1.006872e-02	-1.602217e-01
8.527781e-01	-9.902769e-03	-1.661799e-01
8.489710e-01	-9.653846e-03	-1.713023e-01
8.364775e-01	-9.339866e-03	-1.768670e-01
8.225780e-01	-8.940866e-03	-1.811556e-01
8.009447e-01	-8.465788e-03	-1.868045e-01
7.769201e-01	-7.899965e-03	-1.911447e-01
7.414941e-01	-7.258469e-03	-1.975316e-01
6.983599e-01	-6.518673e-03	-2.007043e-01
6.367973e-01	-5.710824e-03	-2.046677e-01
5.574797e-01	-4.832235e-03	-1.988606e-01
4.500636e-01	-3.894970e-03	-1.867172e-01
2.917667e-01	-2.916507e-03	-1.395977e-01
5.529084e-02	-1.900164e-03	-3.305881e-02
-2.825549e-01	-8.640750e-04	2.166357e-01
-7.144220e-01	2.185776e-04	9.539304e-01
-4.667664e-01	1.281179e-03	2.960727e+00
2.895379e+00	2.542630e-03	2.899517e+00
3.021243e+00	3.608720e-03	9.334720e-01
2.560219e+00	4.670226e-03	6.603502e-02
2.191959e+00	5.675604e-03	-1.965713e-01
1.934700e+00	6.657475e-03	-3.561627e-01
1.749919e+00	7.579747e-03	-4.190840e-01
1.588914e+00	8.446237e-03	-4.666788e-01
1.469555e+00	9.245212e-03	-4.826682e-01
1.365883e+00	9.955667e-03	-4.962144e-01
1.281349e+00	1.057626e-02	-4.939955e-01
1.206806e+00	1.111600e-02	-4.919505e-01
1.142502e+00	1.154832e-02	-4.819441e-01
1.085252e+00	1.188711e-02	-4.736851e-01
1.032976e+00	1.212572e-02	-4.612305e-01
9.842033e-01	1.228604e-02	-4.504422e-01
9.351579e-01	1.236711e-02	-4.355356e-01
8.883160e-01	1.241105e-02	-4.216242e-01
8.394653e-01	1.242118e-02	-4.033784e-01
7.889801e-01	1.241425e-02	-3.833170e-01
7.407089e-01	1.240552e-02	-3.614730e-01
8.170144e-01	-5.728349e-03	-1.438733e-01
8.351685e-01	-5.717294e-03	-1.485816e-01
8.469815e-01	-5.685884e-03	-1.544551e-01
8.529228e-01	-5.626416e-03	-1.597655e-01
8.495840e-01	-5.529648e-03	-1.655574e-01
8.453365e-01	-5.388011e-03	-1.705689e-01
8.324565e-01	-5.214388e-03	-1.760168e-01
8.184340e-01	-4.991463e-03	-1.802430e-01
7.962698e-01	-4.722408e-03	-1.857142e-01
7.710779e-01	-4.381730e-03	-1.897074e-01
7.348077e-01	-3.985303e-03	-1.957503e-01
6.909359e-01	-3.543129e-03	-1.985707e-01
6.283192e-01	-3.065445e-03	-2.019428e-01
5.476038e-01	-2.638803e-03	-1.953377e-01
4.386200e-01	-2.089149e-03	-1.819696e-01
2.783039e-01	-1.475299e-03	-1.331564e-01
3.921285e-02	-8.596015e-04	-2.344566e-02
-3.025514e-01	-2.338431e-04	2.319670e-01
-7.361149e-01	4.202771e-04	9.828958e-01
-4.759799e-01	1.071185e-03	3.019170e+00
2.937663e+00	1.821698e-03	2.941861e+00
3.055494e+00	2.462850e-03	9.440544e-01
2.584498e+00	3.097850e-03	6.666124e-02
2.209930e+00	3.695179e-03	-1.981829e-01
1.948550e+00	4.271557e-03	-3.587124e-01
1.760919e+00	4.801686e-03	-4.217185e-01
1.597988e+00	5.294351e-03	-4.693438e-01
1.477039e+00	5.845051e-03	-4.851260e-01
1.371998e+00	6.256051e-03	-4.984357e-01
1.286343e+00	6.600725e-03	-4.959205e-01
1.210971e+00	6.887242e-03	-4.936482e-01
1.146336e+00	7.121378e-03	-4.835613e-01
1.088288e+00	7.322418e-03	-4.750104e-01
1.034950e+00	7.467162e-03	-4.621119e-01
9.854755e-01	7.566432e-03	-4.510244e-01
9.358721e-01	7.615130e-03	-4.358682e-01
8.888553e-01	7.638181e-03	-4.218802e-01
8.395985e-01	7.644230e-03	-4.034424e-01
7.887759e-01	7.640172e-03	-3.832178e-01
7.403404e-01	7.635869e-03	-3.612932e-01
8.163058e-01	-3.946221e-03	-1.437485e-01
8.342408e-01	-3.830452e-03	-1.484166e-01
8.457773e-01	-3.740504e-03	-1.542355e-01
8.513650e-01	-3.640896e-03	-1.594737e-01
8.479044e-01	-3.521225e-03	-1.652301e-01
8.435037e-01	-3.416104e-03	-1.701991e-01
8.303428e-01	-3.252033e-03	-1.755698e-01
8.155713e-01	-3.066829e-03	-1.796125e-01
7.927097e-01	-2.846659e-03	-1.848839e-01
7.672423e-01	-2.583322e-03	-1.887637e-01
7.305335e-01	-2.317298e-03	-1.946117e-01
6.860987e-01	-2.068722e-03	-1.971805e-01
6.241987e-01	-1.734901e-03	-2.006185e-01
5.430410e-01	-1.499599e-03	-1.937101e-01
4.311727e-01	-1.119934e-03	-1.788799e-01
2.690888e-01	-7.286412e-04	-1.287473e-01
2.877762e-02	-3.203152e-04	-1.720635e-02
-3.152880e-01	8.632337e-05	2.417322e-01
-7.504628e-01	5.096743e-04	1.002054e+00
-4.819197e-01	9.448722e-04	3.056846e+00
2.963566e+00	1.412755e-03	2.967801e+00
3.077332e+00	1.826865e-03	9.508018e-01
2.599866e+00	2.235881e-03	6.705763e-02
2.221014e+00	2.619440e-03	-1.991769e-01
1.956871e+00	2.984349e-03	-3.602443e-01
1.767424e+00	3.327444e-03	-4.232763e-01
1.604772e+00	3.759924e-03	-4.713364e-01
1.482839e+00	4.031318e-03	-4.870313e-01
1.375724e+00	4.306961e-03	-4.997895e-01
1.289313e+00	4.555316e-03	-4.970659e-01
1.213326e+00	4.754980e-03	-4.946082e-01
1.148058e+00	4.900988e-03	-4.842879e-01
1.089883e+00	5.042031e-03	-4.757067e-01
1.036509e+00	5.169765e-03	-4.628083e-01
9.866212e-01	5.274620e-03	-4.515488e-01
9.365334e-01	5.400217e-03	-4.361762e-01
8.890289e-01	5.477699e-03	-4.219626e-01
8.395844e-01	5.551144e-03	-4.034356e-01
7.885943e-01	5.624671e-03	-3.831295e-01
7.400498e-01	5.747122e-03	-3.611514e-01
7.975854e-01	-2.047550e-03	-1.404519e-01
8.251072e-01	-2.042995e-03	-1.467917e-01
8.406247e-01	-2.031530e-03	-1.532959e-01
8.474202e-01	-2.010946e-03	-1.587348e-01
8.450941e-01	-1.978449e-03	-1.646825e-01
8.406320e-01	-2.019967e-03	-1.696197e-01
8.270697e-01	-1.895509e-03	-1.748778e-01
8.126621e-01	-1.788804e-03	-1.789718e-01
7.897431e-01	-1.688308e-03	-1.841920e-01
7.641301e-01	-1.546136e-03	-1.879980e-01
7.280783e-01	-1.389618e-03	-1.939576e-01
6.831896e-01	-1.219563e-03	-1.963445e-01
6.203610e-01	-1.021253e-03	-1.993850e-01
5.385570e-01	-7.431071e-04	-1.921106e-01
4.260701e-01	-5.073886e-04	-1.767630e-01
2.635814e-01	-2.996548e-04	-1.261123e-01
2.178742e-02	-5.590630e-05	-1.302686e-02
-3.237854e-01	1.666108e-04	2.482472e-01
-7.597465e-01	4.278034e-04	1.014450e+00
-4.858054e-01	6.866014e-04	3.081493e+00
2.981013e+00	9.834207e-04	2.985273e+00
3.091661e+00	1.234250e-03	9.552292e-01
2.609991e+00	1.506156e-03	6.731877e-02
2.228443e+00	1.735239e-03	-1.998431e-01
1.962750e+00	1.955435e-03	-3.613265e-01
1.774324e+00	2.168979e-03	-4.249287e-01
1.608539e+00	2.395419e-03	-4.724428e-01
1.484632e+00	2.467978e-03	-4.876201e-01
1.378826e+00	2.612204e-03	-5.009165e-01
1.291995e+00	2.748533e-03	-4.980997e-01
1.215300e+00	2.861808e-03	-4.954133e-01
1.149997e+00	2.953181e-03	-4.851056e-01
1.091875e+00	3.053165e-03	-4.765762e-01
1.038304e+00	3.120531e-03	-4.636095e-01
9.891362e-01	3.243480e-03	-4.526998e-01
9.397233e-01	3.237295e-03	-4.376618e-01
8.923080e-01	3.233259e-03	-4.235190e-01
8.440704e-01	3.231485e-03	-4.055912e-01
7.971620e-01	3.228630e-03	-3.872921e-01
7.590930e-01	3.226296e-03	-3.704446e-01
8.155414e-01	-4.537325e-04	-1.436139e-01
8.333085e-01	-5.596600e-04	-1.482507e-01
8.446552e-01	-6.220733e-04	-1.540309e-01
8.500106e-01	-6.945119e-04	-1.592200e-01
8.482231e-01	-7.327195e-04	-1.652922e-01
8.418860e-01	-7.342520e-04	-1.698727e-01
8.268013e-01	-7.404315e-04	-1.748210e-01
8.126319e-01	-7.536765e-04	-1.789652e-01
7.894289e-01	-7.971803e-04	-1.841187e-01
7.633212e-01	-7.485398e-04	-1.877990e-01
7.262648e-01	-6.726653e-04	-1.934745e-01
6.811923e-01	-5.410475e-04	-1.957705e-01
6.176085e-01	-4.813877e-04	-1.985004e-01
5.353643e-01	-2.646104e-04	-1.909717e-01
4.239176e-01	-1.903141e-04	-1.758700e-01
2.608192e-01	-7.641121e-05	-1.247907e-01
1.875765e-02	4.764712e-05	-1.121534e-02
-3.275438e-01	1.773515e-04	2.511287e-01
-7.648296e-01	3.145452e-04	1.021237e+00
-4.879304e-01	4.515240e-04	3.094972e+00
2.990373e+00	6.089734e-04	2.994646e+00
3.100520e+00	7.421124e-04	9.579661e-01
2.615842e+00	8.719389e-04	6.746968e-02
2.232134e+00	9.916857e-04	-2.001741e-01
1.965582e+00	1.103899e-03	-3.618479e-01
1.774987e+00	1.206574e-03	-4.250874e-01
1.609192e+00	1.213792e-03	-4.726344e-01
1.485880e+00	1.302053e-03	-4.880298e-01
1.379382e+00	1.383003e-03	-5.011184e-01
1.292463e+00	1.413191e-03	-4.982800e-01
1.215888e+00	1.446194e-03	-4.956529e-01
1.150496e+00	1.551008e-03	-4.853162e-01
1.092127e+00	1.524915e-03	-4.766860e-01
1.039202e+00	1.513732e-03	-4.640107e-01
9.886235e-01	1.466654e-03	-4.524651e-01
9.363400e-01	1.387706e-03	-4.360861e-01
8.888898e-01	1.322308e-03	-4.218966e-01
8.394498e-01	1.272439e-03	-4.033709e-01
7.883445e-01	1.192432e-03	-3.830082e-01
7.396923e-01	1.065312e-03	-3.609769e-01
8.153627e-01	-1.251351e-03	-1.435824e-01
8.329672e-01	-1.251885e-03	-1.481900e-01
8.451670e-01	-1.253816e-03	-1.541242e-01
8.500566e-01	-1.238225e-03	-1.592287e-01
8.458246e-01	-1.199964e-03	-1.648248e-01
8.407702e-01	-1.126817e-03	-1.696476e-01
8.273737e-01	-1.035546e-03	-1.749420e-01
8.134815e-01	-1.104887e-03	-1.791523e-01
7.896502e-01	-8.923836e-04	-1.841703e-01
7.624942e-01	-9.491146e-04	-1.875955e-01
7.253698e-01	-6.002332e-04	-1.932361e-01
6.806188e-01	-6.961716e-04	-1.956057e-01
6.165866e-01	-2.688948e-04	-1.981719e-01
5.341234e-01	-3.407498e-04	-1.905291e-01
4.230452e-01	1.104347e-04	-1.755081e-01
2.592084e-01	4.421356e-04	-1.240200e-01
1.637684e-02	6.297773e-04	-9.791834e-03
-3.306049e-01	6.700143e-04	2.534757e-01
-7.673157e-01	7.086789e-04	1.024557e+00
-4.889898e-01	7.607023e-04	3.101692e+00
2.995238e+00	8.315321e-04	2.999518e+00
3.103201e+00	9.016980e-04	9.587945e-01
2.618008e+00	9.590992e-04	6.752555e-02
2.234176e+00	1.062232e-03	-2.003572e-01
1.967054e+00	9.880479e-04	-3.621190e-01
1.776104e+00	7.963340e-04	-4.253549e-01
1.610046e+00	4.068836e-04	-4.728853e-01
1.486977e+00	5.591140e-04	-4.883903e-01
1.380263e+00	2.330510e-04	-5.014384e-01
1.292793e+00	3.540889e-04	-4.984073e-01
1.217021e+00	5.110579e-05	-4.961146e-01
1.151032e+00	1.943420e-04	-4.855424e-01
1.091372e+00	-7.122766e-05	-4.763566e-01
1.037492e+00	-2.076275e-05	-4.632473e-01
9.871560e-01	-2.425566e-04	-4.517935e-01
9.370213e-01	-1.876388e-04	-4.364034e-01
8.896349e-01	-2.038489e-04	-4.222502e-01
8.402929e-01	-2.106740e-04	-4.037760e-01
7.882288e-01	-2.057661e-04	-3.829520e-01
7.396252e-01	-2.045840e-04	-3.609442e-01
8.156311e-01	8.401570e-05	-1.436296e-01
8.334575e-01	6.620719e-05	-1.482772e-01
8.440907e-01	6.418999e-05	-1.539280e-01
8.486032e-01	8.481339e-05	-1.589564e-01
8.459197e-01	8.123508e-05	-1.648434e-01
8.390329e-01	7.842479e-05	-1.692970e-01
8.265837e-01	7.475551e-05	-1.747750e-01
8.104733e-01	7.296013e-05	-1.784898e-01
7.873989e-01	1.125612e-04	-1.836452e-01
7.594605e-01	9.759562e-05	-1.868491e-01
7.229227e-01	8.591118e-05	-1.925842e-01
6.769120e-01	4.933857e-05	-1.945403e-01
6.124440e-01	1.902128e-05	-1.968405e-01
5.300961e-01	1.957729e-05	-1.890925e-01
4.110356e-01	4.833522e-05	-1.705257e-01
2.510046e-01	1.297899e-05	-1.200948e-01
1.352006e-02	1.336855e-05	-8.083747e-03
-3.295754e-01	1.289714e-05	2.526864e-01
-7.672574e-01	1.095986e-05	1.024479e+00
-4.892394e-01	8.073355e-06	3.103275e+00
2.997372e+00	4.048067e-06	3.001655e+00
3.106017e+00	1.654963e-07	9.596646e-01
2.621270e+00	-4.182361e-06	6.760967e-02
2.232341e+00	-9.232143e-06	-2.001926e-01
1.960026e+00	2.040096e-05	-3.608251e-01
1.764798e+00	1.408600e-05	-4.226472e-01
1.605993e+00	-2.189614e-05	-4.716949e-01
1.483255e+00	2.848298e-05	-4.871678e-01
1.376824e+00	1.395757e-05	-5.001891e-01
1.290134e+00	4.237492e-07	-4.973821e-01
1.213861e+00	-9.805754e-06	-4.948266e-01
1.149036e+00	-5.570217e-05	-4.847002e-01
1.089128e+00	-5.416504e-05	-4.753771e-01
1.036932e+00	-5.658555e-05	-4.629973e-01
9.856646e-01	-5.645486e-05	-4.511110e-01
9.371803e-01	-5.703877e-05	-4.364775e-01
8.883374e-01	-5.616278e-05	-4.216344e-01
8.393235e-01	-7.863745e-05	-4.033102e-01
7.886851e-01	-7.746130e-05	-3.831736e-01
7.398734e-01	-5.984623e-05	-3.610653e-01
8.183514e-01	1.479276e-03	-1.441087e-01
8.337150e-01	1.479404e-03	-1.483230e-01
8.444058e-01	1.480491e-03	-1.539854e-01
8.497103e-01	1.464118e-03	-1.591638e-01
8.459515e-01	1.424582e-03	-1.648496e-01
8.408828e-01	1.436695e-03	-1.696703e-01
8.274564e-01	1.296671e-03	-1.749595e-01
8.129262e-01	1.357110e-03	-1.790300e-01
7.893323e-01	1.087239e-03	-1.840962e-01
7.628437e-01	1.139378e-03	-1.876815e-01
7.259988e-01	7.906337e-04	-1.934037e-01
6.815128e-01	8.037100e-04	-1.958626e-01
6.170142e-01	3.723304e-04	-1.983094e-01
5.337075e-01	4.622135e-04	-1.903807e-01
4.230853e-01	-3.360638e-05	-1.755247e-01
2.599116e-01	-3.753667e-04	-1.243564e-01
1.637645e-02	-5.739404e-04	-9.791601e-03
-3.305491e-01	-6.004785e-04	2.534330e-01
-7.671879e-01	-6.530356e-04	1.024386e+00
-4.889164e-01	-7.481337e-04	3.101226e+00
2.994846e+00	-8.364849e-04	2.999126e+00
3.102835e+00	-8.931696e-04	9.586813e-01
2.617700e+00	-9.918661e-04	6.751762e-02
2.234885e+00	-1.108510e-03	-2.004208e-01
1.967460e+00	-1.049164e-03	-3.621936e-01
1.775345e+00	-8.398826e-04	-4.251733e-01
1.610327e+00	-4.971021e-04	-4.729680e-01
1.487446e+00	-6.671506e-04	-4.885442e-01
1.379897e+00	-3.627192e-04	-5.013055e-01
1.292493e+00	-4.267664e-04	-4.982917e-01
1.216321e+00	-1.463802e-04	-4.958291e-01
1.150455e+00	-2.458643e-04	-4.852990e-01
1.091362e+00	-3.433702e-05	-4.763522e-01
1.037458e+00	-1.358875e-04	-4.632318e-01
9.871495e-01	-2.696067e-05	-4.517905e-01
9.370242e-01	-6.082610e-05	-4.364048e-01
8.892103e-01	-3.530727e-05	-4.220487e-01
8.395077e-01	-2.681351e-05	-4.033988e-01
7.888539e-01	-3.129951e-05	-3.832557e-01
7.423229e-01	-3.228473e-05	-3.622606e-01
8.156095e-01	1.273493e-03	-1.436258e-01
8.333795e-01	1.288332e-03	-1.482634e-01
8.447088e-01	1.281357e-03	-1.540407e-01
8.500632e-01	1.276122e-03	-1.592299e-01
8.463749e-01	1.165398e-03	-1.649321e-01
8.414096e-01	1.141844e-03	-1.697766e-01
8.276582e-01	1.101924e-03	-1.750022e-01
8.135945e-01	1.043567e-03	-1.791772e-01
7.902503e-01	1.011942e-03	-1.843103e-01
7.633793e-01	9.265518e-04	-1.878133e-01
7.273399e-01	8.314769e-04	-1.937609e-01
6.823734e-01	7.548051e-04	-1.961099e-01
6.174246e-01	6.681112e-04	-1.984413e-01
5.357151e-01	5.129077e-04	-1.910969e-01
4.248452e-01	3.722778e-04	-1.762548e-01
2.612050e-01	2.593011e-04	-1.249752e-01
1.875971e-02	1.048896e-04	-1.121657e-02
-3.276525e-01	-5.141519e-05	2.512121e-01
-7.634220e-01	-2.133612e-04	1.019358e+00
-4.872177e-01	-3.734746e-04	3.090452e+00
2.990442e+00	-5.571823e-04	2.994716e+00
3.098803e+00	-7.131633e-04	9.574356e-01
2.614214e+00	-8.664687e-04	6.742769e-02
2.231427e+00	-1.009073e-03	-2.001107e-01
1.965695e+00	-1.179687e-03	-3.618686e-01
1.774416e+00	-1.303769e-03	-4.249508e-01
1.608235e+00	-1.418769e-03	-4.723535e-01
1.485330e+00	-1.555786e-03	-4.878495e-01
1.379864e+00	-1.646882e-03	-5.012934e-01
1.292891e+00	-1.717848e-03	-4.984451e-01
1.216149e+00	-1.777673e-03	-4.957591e-01
1.150389e+00	-1.861466e-03	-4.852709e-01
1.090725e+00	-1.892096e-03	-4.760740e-01
1.036892e+00	-1.907555e-03	-4.629792e-01
9.870149e-01	-1.925679e-03	-4.517289e-01
9.369236e-01	-1.943578e-03	-4.363579e-01
8.891623e-01	-1.859869e-03	-4.220259e-01
8.395207e-01	-1.869645e-03	-4.034050e-01
7.883768e-01	-1.869118e-03	-3.830239e-01
7.397225e-01	-1.885607e-03	-3.609916e-01
8.158611e-01	2.130478e-03	-1.436702e-01
8.336777e-01	2.126242e-03	-1.483164e-01
8.448004e-01	2.119903e-03	-1.540574e-01
8.529200e-01	2.021207e-03	-1.597650e-01
8.484877e-01	1.989615e-03	-1.653438e-01
8.419949e-01	1.953717e-03	-1.698947e-01
8.289814e-01	1.875204e-03	-1.752820e-01
8.141920e-01	1.781167e-03	-1.793087e-01
7.909229e-01	1.683884e-03	-1.844671e-01
7.652129e-01	1.539912e-03	-1.882644e-01
7.282457e-01	1.372821e-03	-1.940022e-01
6.836894e-01	1.270260e-03	-1.964881e-01
6.203476e-01	1.048697e-03	-1.993807e-01
5.381199e-01	8.394374e-04	-1.919547e-01