# vtk DataFile Version 2.0
OUTPUT by 3D-VPM
ASCII
DATASET UNSTRUCTURED_GRID
POINTS 820 double
9.510565e-01	0.000000e+00	-3.090170e-01
9.442611e-01	0.000000e+00	-3.078203e-01
9.267277e-01	0.000000e+00	-3.047010e-01
8.963175e-01	0.000000e+00	-2.991555e-01
8.562911e-01	0.000000e+00	-2.916579e-01
8.054250e-01	0.000000e+00	-2.817457e-01
7.470317e-01	0.000000e+00	-2.699633e-01
6.809074e-01	0.000000e+00	-2.559818e-01
6.100852e-01	0.000000e+00	-2.403847e-01
5.354138e-01	0.000000e+00	-2.229691e-01
4.593635e-01	0.000000e+00	-2.042585e-01
3.837764e-01	0.000000e+00	-1.841224e-01
3.103069e-01	0.000000e+00	-1.630077e-01
2.415927e-01	0.000000e+00	-1.409228e-01
1.782654e-01	0.000000e+00	-1.183331e-01
1.234349e-01	0.000000e+00	-9.558566e-02
7.662509e-02	0.000000e+00	-7.318920e-02
4.106998e-02	0.000000e+00	-5.193053e-02
1.528206e-02	0.000000e+00	-3.215886e-02
2.347037e-03	0.000000e+00	-1.488740e-02
0.000000e+00	0.000000e+00	0.000000e+00
1.064939e-02	0.000000e+00	1.066461e-02
3.126595e-02	0.000000e+00	1.703450e-02
6.375031e-02	0.000000e+00	1.787236e-02
1.050105e-01	0.000000e+00	1.417221e-02
1.560448e-01	0.000000e+00	4.777214e-03
2.137742e-01	0.000000e+00	-9.048270e-03
2.782849e-01	0.000000e+00	-2.799567e-02
3.468570e-01	0.000000e+00	-5.051783e-02
4.187060e-01	0.000000e+00	-7.662000e-02
4.916930e-01	0.000000e+00	-1.047585e-01
5.642168e-01	0.000000e+00	-1.343226e-01
6.348639e-01	0.000000e+00	-1.641238e-01
7.013280e-01	0.000000e+00	-1.931337e-01
7.630418e-01	0.000000e+00	-2.206893e-01
8.172084e-01	0.000000e+00	-2.454799e-01
8.641863e-01	0.000000e+00	-2.673591e-01
9.009752e-01	0.000000e+00	-2.848204e-01
9.288372e-01	0.000000e+00	-2.982085e-01
9.448555e-01	0.000000e+00	-3.059908e-01
9.510565e-01	0.000000e+00	-3.090170e-01
9.510565e-01	1.052632e+00	-3.090170e-01
9.442611e-01	1.052632e+00	-3.078203e-01
9.267277e-01	1.052632e+00	-3.047010e-01
8.963175e-01	1.052632e+00	-2.991555e-01
8.562911e-01	1.052632e+00	-2.916579e-01
8.054250e-01	1.052632e+00	-2.817457e-01
7.470317e-01	1.052632e+00	-2.699633e-01
6.809074e-01	1.052632e+00	-2.559818e-01
6.100852e-01	1.052632e+00	-2.403847e-01
5.354138e-01	1.052632e+00	-2.229691e-01
4.593635e-01	1.052632e+00	-2.042585e-01
3.837764e-01	1.052632e+00	-1.841224e-01
3.103069e-01	1.052632e+00	-1.630077e-01
2.415927e-01	1.052632e+00	-1.409228e-01
1.782654e-01	1.052632e+00	-1.183331e-01
1.234349e-01	1.052632e+00	-9.558566e-02
7.662509e-02	1.052632e+00	-7.318920e-02
4.106998e-02	1.052632e+00	-5.193053e-02
1.528206e-02	1.052632e+00	-3.215886e-02
2.347037e-03	1.052632e+00	-1.488740e-02
0.000000e+00	1.052632e+00	0.000000e+00
1.064939e-02	1.052632e+00	1.066461e-02
3.126595e-02	1.052632e+00	1.703450e-02
6.375031e-02	1.052632e+00	1.787236e-02
1.050105e-01	1.052632e+00	1.417221e-02
1.560448e-01	1.052632e+00	4.777214e-03
2.137742e-01	1.052632e+00	-9.048270e-03
2.782849e-01	1.052632e+00	-2.799567e-02
3.468570e-01	1.052632e+00	-5.051783e-02
4.187060e-01	1.052632e+00	-7.662000e-02
4.916930e-01	1.052632e+00	-1.047585e-01
5.642168e-01	1.052632e+00	-1.343226e-01
6.348639e-01	1.052632e+00	-1.641238e-01
7.013280e-01	1.052632e+00	-1.931337e-01
7.630418e-01	1.052632e+00	-2.206893e-01
8.172084e-01	1.052632e+00	-2.454799e-01
8.641863e-01	1.052632e+00	-2.673591e-01
9.009752e-01	1.052632e+00	-2.848204e-01
9.288372e-01	1.052632e+00	-2.982085e-01
9.448555e-01	1.052632e+00	-3.059908e-01
9.510565e-01	1.052632e+00	-3.090170e-01
9.510565e-01	2.105263e+00	-3.090170e-01
9.442611e-01	2.105263e+00	-3.078203e-01
9.267277e-01	2.105263e+00	-3.047010e-01
8.963175e-01	2.105263e+00	-2.991555e-01
8.562911e-01	2.105263e+00	-2.916579e-01
8.054250e-01	2.105263e+00	-2.817457e-01
7.470317e-01	2.105263e+00	-2.699633e-01
6.809074e-01	2.105263e+00	-2.559818e-01
6.100852e-01	2.105263e+00	-2.403847e-01
5.354138e-01	2.105263e+00	-2.229691e-01
4.593635e-01	2.105263e+00	-2.042585e-01
3.837764e-01	2.105263e+00	-1.841224e-01
3.103069e-01	2.105263e+00	-1.630077e-01
2.415927e-01	2.105263e+00	-1.409228e-01
1.782654e-01	2.105263e+00	-1.183331e-01
1.234349e-01	2.105263e+00	-9.558566e-02
7.662509e-02	2.105263e+00	-7.318920e-02
4.106998e-02	2.105263e+00	-5.193053e-02
1.528206e-02	2.105263e+00	-3.215886e-02
2.347037e-03	2.105263e+00	-1.488740e-02
0.000000e+00	2.105263e+00	0.000000e+00
1.064939e-02	2.105263e+00	1.066461e-02
3.126595e-02	2.105263e+00	1.703450e-02
6.375031e-02	2.105263e+00	1.787236e-02
1.050105e-01	2.105263e+00	1.417221e-02
1.560448e-01	2.105263e+00	4.777214e-03
2.137742e-01	2.105263e+00	-9.048270e-03
2.782849e-01	2.105263e+00	-2.799567e-02
3.468570e-01	2.105263e+00	-5.051783e-02
4.187060e-01	2.105263e+00	-7.662000e-02
4.916930e-01	2.105263e+00	-1.047585e-01
5.642168e-01	2.105263e+00	-1.343226e-01
6.348639e-01	2.105263e+00	-1.641238e-01
7.013280e-01	2.105263e+00	-1.931337e-01
7.630418e-01	2.105263e+00	-2.206893e-01
8.172084e-01	2.105263e+00	-2.454799e-01
8.641863e-01	2.105263e+00	-2.673591e-01
9.009752e-01	2.105263e+00	-2.848204e-01
9.288372e-01	2.105263e+00	-2.982085e-01
9.448555e-01	2.105263e+00	-3.059908e-01
9.510565e-01	2.105263e+00	-3.090170e-01
9.510565e-01	3.157895e+00	-3.090170e-01
9.442611e-01	3.157895e+00	-3.078203e-01
9.267277e-01	3.157895e+00	-3.047010e-01
8.963175e-01	3.157895e+00	-2.991555e-01
8.562911e-01	3.157895e+00	-2.916579e-01
8.054250e-01	3.157895e+00	-2.817457e-01
7.470317e-01	3.157895e+00	-2.699633e-01
6.809074e-01	3.157895e+00	-2.559818e-01
6.100852e-01	3.157895e+00	-2.403847e-01
5.354138e-01	3.157895e+00	-2.229691e-01
4.593635e-01	3.157895e+00	-2.042585e-01
3.837764e-01	3.157895e+00	-1.841224e-01
3.103069e-01	3.157895e+00	-1.630077e-01
2.415927e-01	3.157895e+00	-1.409228e-01
1.782654e-01	3.157895e+00	-1.183331e-01
1.234349e-01	3.157895e+00	-9.558566e-02
7.662509e-02	3.157895e+00	-7.318920e-02
4.106998e-02	3.157895e+00	-5.193053e-02
1.528206e-02	3.157895e+00	-3.215886e-02
2.347037e-03	3.157895e+00	-1.488740e-02
0.000000e+00	3.157895e+00	0.000000e+00
1.064939e-02	3.157895e+00	1.066461e-02
3.126595e-02	3.157895e+00	1.703450e-02
6.375031e-02	3.157895e+00	1.787236e-02
1.050105e-01	3.157895e+00	1.417221e-02
1.560448e-01	3.157895e+00	4.777214e-03
2.137742e-01	3.157895e+00	-9.048270e-03
2.782849e-01	3.157895e+00	-2.799567e-02
3.468570e-01	3.157895e+00	-5.051783e-02
4.187060e-01	3.157895e+00	-7.662000e-02
4.916930e-01	3.157895e+00	-1.047585e-01
5.642168e-01	3.157895e+00	-1.343226e-01
6.348639e-01	3.157895e+00	-1.641238e-01
7.013280e-01	3.157895e+00	-1.931337e-01
7.630418e-01	3.157895e+00	-2.206893e-01
8.172084e-01	3.157895e+00	-2.454799e-01
8.641863e-01	3.157895e+00	-2.673591e-01
9.009752e-01	3.157895e+00	-2.848204e-01
9.288372e-01	3.157895e+00	-2.982085e-01
9.448555e-01	3.157895e+00	-3.059908e-01
9.510565e-01	3.157895e+00	-3.090170e-01
9.510565e-01	4.210526e+00	-3.090170e-01
9.442611e-01	4.210526e+00	-3.078203e-01
9.267277e-01	4.210526e+00	-3.047010e-01
8.963175e-01	4.210526e+00	-2.991555e-01
8.562911e-01	4.210526e+00	-2.916579e-01
8.054250e-01	4.210526e+00	-2.817457e-01
7.470317e-01	4.210526e+00	-2.699633e-01
6.809074e-01	4.210526e+00	-2.559818e-01
6.100852e-01	4.210526e+00	-2.403847e-01
5.354138e-01	4.210526e+00	-2.229691e-01
4.593635e-01	4.210526e+00	-2.042585e-01
3.837764e-01	4.210526e+00	-1.841224e-01
3.103069e-01	4.210526e+00	-1.630077e-01
2.415927e-01	4.210526e+00	-1.409228e-01
1.782654e-01	4.210526e+00	-1.183331e-01
1.234349e-01	4.210526e+00	-9.558566e-02
7.662509e-02	4.210526e+00	-7.318920e-02
4.106998e-02	4.210526e+00	-5.193053e-02
1.528206e-02	4.210526e+00	-3.215886e-02
2.347037e-03	4.210526e+00	-1.488740e-02
0.000000e+00	4.210526e+00	0.000000e+00
1.064939e-02	4.210526e+00	1.066461e-02
3.126595e-02	4.210526e+00	1.703450e-02
6.375031e-02	4.210526e+00	1.787236e-02
1.050105e-01	4.210526e+00	1.417221e-02
1.560448e-01	4.210526e+00	4.777214e-03
2.137742e-01	4.210526e+00	-9.048270e-03
2.782849e-01	4.210526e+00	-2.799567e-02
3.468570e-01	4.210526e+00	-5.051783e-02
4.187060e-01	4.210526e+00	-7.662000e-02
4.916930e-01	4.210526e+00	-1.047585e-01
5.642168e-01	4.210526e+00	-1.343226e-01
6.348639e-01	4.210526e+00	-1.641238e-01
7.013280e-01	4.210526e+00	-1.931337e-01
7.630418e-01	4.210526e+00	-2.206893e-01
8.172084e-01	4.210526e+00	-2.454799e-01
8.641863e-01	4.210526e+00	-2.673591e-01
9.009752e-01	4.210526e+00	-2.848204e-01
9.288372e-01	4.210526e+00	-2.982085e-01
9.448555e-01	4.210526e+00	-3.059908e-01
9.510565e-01	4.210526e+00	-3.090170e-01
9.510565e-01	5.263158e+00	-3.090170e-01
9.442611e-01	5.263158e+00	-3.078203e-01
9.267277e-01	5.263158e+00	-3.047010e-01
8.963175e-01	5.263158e+00	-2.991555e-01
8.562911e-01	5.263158e+00	-2.916579e-01
8.054250e-01	5.263158e+00	-2.817457e-01
7.470317e-01	5.263158e+00	-2.699633e-01
6.809074e-01	5.263158e+00	-2.559818e-01
6.100852e-01	5.263158e+00	-2.403847e-01
5.354138e-01	5.263158e+00	-2.229691e-01
4.593635e-01	5.263158e+00	-2.042585e-01
3.837764e-01	5.263158e+00	-1.841224e-01
3.103069e-01	5.263158e+00	-1.630077e-01
2.415927e-01	5.263158e+00	-1.409228e-01
1.782654e-01	5.263158e+00	-1.183331e-01
1.234349e-01	5.263158e+00	-9.558566e-02
7.662509e-02	5.263158e+00	-7.318920e-02
4.106998e-02	5.263158e+00	-5.193053e-02
1.528206e-02	5.263158e+00	-3.215886e-02
2.347037e-03	5.263158e+00	-1.488740e-02
0.000000e+00	5.263158e+00	0.000000e+00
1.064939e-02	5.263158e+00	1.066461e-02
3.126595e-02	5.263158e+00	1.703450e-02
6.375031e-02	5.263158e+00	1.787236e-02
1.050105e-01	5.263158e+00	1.417221e-02
1.560448e-01	5.263158e+00	4.777214e-03
2.137742e-01	5.263158e+00	-9.048270e-03
2.782849e-01	5.263158e+00	-2.799567e-02
3.468570e-01	5.263158e+00	-5.051783e-02
4.187060e-01	5.263158e+00	-7.662000e-02
4.916930e-01	5.263158e+00	-1.047585e-01
5.642168e-01	5.263158e+00	-1.343226e-01
6.348639e-01	5.263158e+00	-1.641238e-01
7.013280e-01	5.263158e+00	-1.931337e-01
7.630418e-01	5.263158e+00	-2.206893e-01
8.172084e-01	5.263158e+00	-2.454799e-01
8.641863e-01	5.263158e+00	-2.673591e-01
9.009752e-01	5.263158e+00	-2.848204e-01
9.288372e-01	5.263158e+00	-2.982085e-01
9.448555e-01	5.263158e+00	-3.059908e-01
9.510565e-01	5.263158e+00	-3.090170e-01
9.510565e-01	6.315789e+00	-3.090170e-01
9.442611e-01	6.315789e+00	-3.078203e-01
[...]
CELL_DATA 760
VECTORS V double
8.414230e-01	-6.903433e-02	-1.481715e-01
8.655438e-01	-6.886074e-02	-1.539856e-01
8.835585e-01	-6.841098e-02	-1.611253e-01
8.953240e-01	-6.761658e-02	-1.677079e-01
8.977885e-01	-6.645565e-02	-1.749510e-01
8.991005e-01	-6.491055e-02	-1.814173e-01
8.920622e-01	-6.297097e-02	-1.886199e-01
8.847512e-01	-6.061283e-02	-1.948479e-01
8.704162e-01	-5.780764e-02	-2.030074e-01
8.547757e-01	-5.452274e-02	-2.102994e-01
8.294700e-01	-5.073284e-02	-2.209680e-01
7.985471e-01	-4.642362e-02	-2.294975e-01
7.511968e-01	-4.162804e-02	-2.414359e-01
6.891709e-01	-3.639725e-02	-2.458366e-01
6.025182e-01	-3.076924e-02	-2.499657e-01
4.718384e-01	-2.486682e-02	-2.257542e-01
2.701240e-01	-1.869798e-02	-1.615091e-01
-1.745026e-02	-1.242883e-02	1.337916e-02
-4.218408e-01	-5.860334e-03	5.632619e-01
-3.427130e-01	7.205684e-04	2.173849e+00
2.327137e+00	8.434147e-03	2.330462e+00
2.541803e+00	1.519934e-02	7.853396e-01
2.210627e+00	2.214551e-02	5.701808e-02
1.925576e+00	2.899331e-02	-1.726825e-01
1.720222e+00	3.598321e-02	-3.166791e-01
1.570433e+00	4.295017e-02	-3.760994e-01
1.435576e+00	4.988854e-02	-4.216419e-01
1.336755e+00	5.661979e-02	-4.390506e-01
1.250654e+00	6.302582e-02	-4.543526e-01
1.181710e+00	6.890875e-02	-4.555819e-01
1.121879e+00	7.415287e-02	-4.573302e-01
1.071620e+00	7.862155e-02	-4.520436e-01
1.027479e+00	8.225225e-02	-4.484688e-01
9.872037e-01	8.503729e-02	-4.407930e-01
9.499817e-01	8.702805e-02	-4.347799e-01
9.115292e-01	8.832243e-02	-4.245308e-01
8.743617e-01	8.904875e-02	-4.150010e-01
8.341870e-01	8.935607e-02	-4.008421e-01
7.910584e-01	8.940003e-02	-3.843267e-01
7.483071e-01	8.935436e-02	-3.651810e-01
8.268572e-01	-4.834395e-02	-1.456065e-01
8.473451e-01	-4.821964e-02	-1.507479e-01
8.618076e-01	-4.790112e-02	-1.571588e-01
8.704937e-01	-4.733730e-02	-1.630568e-01
8.702450e-01	-4.650556e-02	-1.695836e-01
8.688608e-01	-4.538707e-02	-1.753156e-01
8.588617e-01	-4.397116e-02	-1.815999e-01
8.479919e-01	-4.224282e-02	-1.867525e-01
8.293206e-01	-4.018724e-02	-1.934227e-01
8.083324e-01	-3.778924e-02	-1.988730e-01
7.765449e-01	-3.501905e-02	-2.068690e-01
7.378841e-01	-3.192712e-02	-2.120633e-01
6.815783e-01	-2.849084e-02	-2.190604e-01
6.085248e-01	-2.476528e-02	-2.170691e-01
5.087228e-01	-2.077639e-02	-2.110530e-01
3.607188e-01	-1.660725e-02	-1.725883e-01
1.373071e-01	-1.225949e-02	-8.209695e-02
-1.815819e-01	-7.846810e-03	1.392194e-01
-6.032871e-01	-3.228994e-03	8.055378e-01
-4.198829e-01	1.390650e-03	2.663342e+00
2.682667e+00	6.790986e-03	2.686500e+00
2.844235e+00	1.150718e-02	8.787819e-01
2.433361e+00	1.632122e-02	6.276299e-02
2.097415e+00	2.103047e-02	-1.880927e-01
1.860547e+00	2.579374e-02	-3.425117e-01
1.689695e+00	3.049122e-02	-4.046612e-01
1.539102e+00	3.511710e-02	-4.520484e-01
1.427840e+00	3.955326e-02	-4.689670e-01
1.330744e+00	4.372784e-02	-4.834485e-01
1.251924e+00	4.753323e-02	-4.826511e-01
1.182685e+00	5.085905e-02	-4.821178e-01
1.123353e+00	5.367658e-02	-4.738662e-01
1.070405e+00	5.593605e-02	-4.672048e-01
1.021751e+00	5.764190e-02	-4.562186e-01
9.765976e-01	5.883536e-02	-4.469612e-01
9.307659e-01	5.958728e-02	-4.334900e-01
8.867529e-01	5.998606e-02	-4.208823e-01
8.402947e-01	6.013248e-02	-4.037769e-01
7.917015e-01	6.012885e-02	-3.846392e-01
7.448101e-01	6.008555e-02	-3.634744e-01
8.205612e-01	-2.041076e-02	-1.444978e-01
8.397195e-01	-2.035892e-02	-1.493913e-01
8.527021e-01	-2.022855e-02	-1.554983e-01
8.598604e-01	-1.999250e-02	-1.610650e-01
8.580691e-01	-1.963388e-02	-1.672109e-01
8.551021e-01	-1.913599e-02	-1.725394e-01
8.434780e-01	-1.848909e-02	-1.783472e-01
8.308736e-01	-1.768785e-02	-1.829825e-01
8.103134e-01	-1.670514e-02	-1.889896e-01
7.869212e-01	-1.558491e-02	-1.936053e-01
7.528516e-01	-1.431275e-02	-2.005571e-01
7.115543e-01	-1.290355e-02	-2.044963e-01
6.517303e-01	-1.134733e-02	-2.094672e-01
5.745701e-01	-9.680282e-03	-2.049570e-01
4.697789e-01	-7.912454e-03	-1.948964e-01
3.150218e-01	-6.076357e-03	-1.507243e-01
8.301619e-02	-4.168708e-03	-4.963600e-02
-2.483859e-01	-2.237394e-03	1.904382e-01
-6.768120e-01	-2.216011e-04	9.037117e-01
-4.509258e-01	1.786767e-03	2.860250e+00
2.823778e+00	4.115979e-03	2.827813e+00
2.961968e+00	6.124047e-03	9.151579e-01
2.517984e+00	8.137616e-03	6.494566e-02
2.160714e+00	1.006152e-02	-1.937693e-01
1.910373e+00	1.195206e-02	-3.516843e-01
1.730303e+00	1.375561e-02	-4.143862e-01
1.572799e+00	1.546765e-02	-4.619456e-01
1.456135e+00	1.704751e-02	-4.782605e-01
1.354661e+00	1.847769e-02	-4.921373e-01
1.271703e+00	1.974376e-02	-4.902765e-01
1.198800e+00	2.080913e-02	-4.886870e-01
1.136484e+00	2.166944e-02	-4.794055e-01
1.080553e+00	2.230646e-02	-4.716344e-01
1.029171e+00	2.277806e-02	-4.595317e-01
9.815352e-01	2.308012e-02	-4.492210e-01
9.334888e-01	2.324476e-02	-4.347582e-01
8.875243e-01	2.330722e-02	-4.212484e-01
8.394015e-01	2.330498e-02	-4.033477e-01
7.894762e-01	2.327451e-02	-3.835580e-01
7.416754e-01	2.324771e-02	-3.619447e-01
8.181574e-01	-1.021938e-02	-1.440745e-01
8.367424e-01	-1.019833e-02	-1.488616e-01
8.489696e-01	-1.014204e-02	-1.548177e-01
8.553554e-01	-1.003623e-02	-1.602212e-01
8.527760e-01	-9.871034e-03	-1.661795e-01
8.489699e-01	-9.623132e-03	-1.713021e-01
8.364776e-01	-9.310436e-03	-1.768670e-01
8.225791e-01	-8.912960e-03	-1.811558e-01
8.009468e-01	-8.439616e-03	-1.868050e-01
7.769235e-01	-7.875710e-03	-1.911455e-01
7.414985e-01	-7.236298e-03	-1.975327e-01
6.983653e-01	-6.498727e-03	-2.007059e-01
6.368037e-01	-5.693189e-03	-2.046697e-01
5.574867e-01	-4.816980e-03	-1.988631e-01
4.500714e-01	-3.882148e-03	-1.867204e-01
2.917761e-01	-2.906140e-03	-1.396022e-01
5.530162e-02	-1.892401e-03	-3.306525e-02
-2.825421e-01	-8.588756e-04	2.166258e-01
-7.144080e-01	2.208369e-04	9.539117e-01
-4.667603e-01	1.295503e-03	2.960689e+00
2.895350e+00	2.537640e-03	2.899488e+00
3.021217e+00	3.602385e-03	9.334640e-01
2.560199e+00	4.662013e-03	6.603450e-02
2.191943e+00	5.665522e-03	-1.965698e-01
1.934685e+00	6.645314e-03	-3.561600e-01
1.749906e+00	7.565509e-03	-4.190810e-01
1.588904e+00	8.429984e-03	-4.666756e-01
1.469546e+00	9.227093e-03	-4.826651e-01
1.365875e+00	9.935880e-03	-4.962113e-01
1.281342e+00	1.055503e-02	-4.939927e-01
1.206800e+00	1.109357e-02	-4.919480e-01
1.142497e+00	1.152497e-02	-4.819419e-01
1.085247e+00	1.186311e-02	-4.736833e-01
1.032972e+00	1.210131e-02	-4.612291e-01
9.842006e-01	1.226142e-02	-4.504409e-01
9.351555e-01	1.234242e-02	-4.355345e-01
8.883137e-01	1.238639e-02	-4.216231e-01
8.394627e-01	1.239659e-02	-4.033771e-01
7.889773e-01	1.238977e-02	-3.833157e-01
7.407060e-01	1.238110e-02	-3.614716e-01
8.170298e-01	-5.651725e-03	-1.438760e-01
8.351876e-01	-5.640606e-03	-1.485850e-01
8.470048e-01	-5.609105e-03	-1.544594e-01
8.529503e-01	-5.549733e-03	-1.597707e-01
8.496150e-01	-5.453550e-03	-1.655635e-01
8.453709e-01	-5.313265e-03	-1.705759e-01
8.324940e-01	-5.141921e-03	-1.760247e-01
8.184742e-01	-4.922236e-03	-1.802518e-01
7.963125e-01	-4.657327e-03	-1.857242e-01
7.711233e-01	-4.321544e-03	-1.897185e-01
7.348561e-01	-3.930646e-03	-1.957632e-01
6.909877e-01	-3.494340e-03	-1.985856e-01
6.283747e-01	-3.022829e-03	-2.019607e-01
5.476642e-01	-2.602496e-03	-1.953593e-01
4.386866e-01	-2.059210e-03	-1.819972e-01
2.783793e-01	-1.451635e-03	-1.331924e-01
3.930163e-02	-8.422262e-04	-2.349874e-02
-3.024350e-01	-2.226616e-04	2.318778e-01
-7.363078e-01	4.251126e-04	9.831534e-01
-4.759717e-01	1.069746e-03	3.019117e+00
2.936841e+00	1.812947e-03	2.941038e+00
3.055385e+00	2.447683e-03	9.440207e-01
2.584397e+00	3.076064e-03	6.665862e-02
2.209845e+00	3.666813e-03	-1.981753e-01
1.948478e+00	4.236401e-03	-3.586992e-01
1.760858e+00	4.759684e-03	-4.217039e-01
1.597936e+00	5.245416e-03	-4.693285e-01
1.476994e+00	5.789243e-03	-4.851115e-01
1.371961e+00	6.193556e-03	-4.984223e-01
1.286312e+00	6.531972e-03	-4.959088e-01
1.210947e+00	6.812880e-03	-4.936385e-01
1.146318e+00	7.042325e-03	-4.835537e-01
1.088275e+00	7.239819e-03	-4.750049e-01
1.034942e+00	7.382246e-03	-4.621084e-01
9.854717e-01	7.480377e-03	-4.510227e-01
9.358715e-01	7.528848e-03	-4.358679e-01
8.888575e-01	7.552183e-03	-4.218812e-01
8.396029e-01	7.558607e-03	-4.034445e-01
7.887823e-01	7.554766e-03	-3.832209e-01
7.403482e-01	7.550506e-03	-3.612970e-01
8.162912e-01	-3.263159e-03	-1.437459e-01
8.342287e-01	-3.270136e-03	-1.484144e-01
8.457752e-01	-3.250881e-03	-1.542352e-01
8.513805e-01	-3.214417e-03	-1.594766e-01
8.479427e-01	-3.152752e-03	-1.652376e-01
8.435662e-01	-3.100195e-03	-1.702117e-01
8.304285e-01	-2.983113e-03	-1.755880e-01
8.156777e-01	-2.839283e-03	-1.796359e-01
7.928339e-01	-2.655141e-03	-1.849128e-01
7.673825e-01	-2.422865e-03	-1.887982e-01
7.306869e-01	-2.183548e-03	-1.946525e-01
6.862646e-01	-1.957879e-03	-1.972282e-01
6.243786e-01	-1.643823e-03	-2.006763e-01
5.432366e-01	-1.425706e-03	-1.937799e-01
4.313866e-01	-1.061253e-03	-1.789687e-01
2.693299e-01	-6.836012e-04	-1.288627e-01
2.905548e-02	-2.879203e-04	-1.737249e-02
-3.149540e-01	1.070804e-04	2.414761e-01
-7.501000e-01	5.192102e-04	1.001569e+00
-4.817669e-01	9.285283e-04	3.055877e+00
2.962863e+00	1.399628e-03	2.967097e+00
3.076731e+00	1.800775e-03	9.506161e-01
2.599420e+00	2.196524e-03	6.704611e-02
2.220666e+00	2.566478e-03	-1.991457e-01
1.956582e+00	2.916410e-03	-3.601911e-01
1.767175e+00	3.242905e-03	-4.232166e-01
1.604552e+00	3.656488e-03	-4.712718e-01
1.482642e+00	3.906157e-03	-4.869664e-01
1.375547e+00	4.156483e-03	-4.997251e-01
1.289156e+00	4.375253e-03	-4.970053e-01
1.213190e+00	4.540274e-03	-4.945531e-01
1.147948e+00	4.645928e-03	-4.842413e-01
1.089800e+00	4.740465e-03	-4.756705e-01
1.036456e+00	4.815386e-03	-4.627844e-01
9.865958e-01	4.861396e-03	-4.515371e-01
9.365312e-01	4.922906e-03	-4.361751e-01
8.890413e-01	4.931991e-03	-4.219685e-01
8.396008e-01	4.933830e-03	-4.034435e-01
7.886063e-01	4.930491e-03	-3.831354e-01
7.400537e-01	4.941384e-03	-3.611533e-01
8.182007e-01	-2.031493e-03	-1.440821e-01
8.341239e-01	-2.027461e-03	-1.483958e-01
8.450454e-01	-2.017282e-03	-1.541021e-01
8.504365e-01	-1.998688e-03	-1.592998e-01
8.473368e-01	-1.968576e-03	-1.651195e-01
8.423751e-01	-2.012546e-03	-1.699714e-01
8.284619e-01	-1.890342e-03	-1.751721e-01
8.137990e-01	-1.785554e-03	-1.792222e-01
7.906886e-01	-1.686589e-03	-1.844125e-01
7.649334e-01	-1.545544e-03	-1.881956e-01
7.287756e-01	-1.389768e-03	-1.941434e-01
6.838115e-01	-1.220229e-03	-1.965232e-01
6.209315e-01	-1.022149e-03	-1.995684e-01
5.391009e-01	-7.440261e-04	-1.923046e-01
4.266085e-01	-5.082055e-04	-1.769864e-01
2.641433e-01	-3.002783e-04	-1.263811e-01
2.239779e-02	-5.623137e-05	-1.339180e-02
-3.230806e-01	1.666557e-04	2.477068e-01
-7.589981e-01	4.282555e-04	1.013451e+00
-4.854930e-01	6.874775e-04	3.079512e+00
2.979565e+00	9.847957e-04	2.983823e+00
3.090396e+00	1.236048e-03	9.548380e-01
2.609019e+00	1.508347e-03	6.729370e-02
2.227645e+00	1.737779e-03	-1.997716e-01
1.962040e+00	1.958281e-03	-3.611959e-01
1.773651e+00	2.172046e-03	-4.247676e-01
1.607870e+00	2.398528e-03	-4.722461e-01
1.483933e+00	2.470954e-03	-4.873906e-01
1.378072e+00	2.614822e-03	-5.006425e-01
1.291153e+00	2.750501e-03	-4.977752e-01
1.214338e+00	2.862779e-03	-4.950210e-01
1.148873e+00	2.952752e-03	-4.846315e-01
1.090542e+00	3.050918e-03	-4.759942e-01
1.036698e+00	3.116078e-03	-4.628924e-01
9.871735e-01	3.236593e-03	-4.518015e-01
9.372715e-01	3.228031e-03	-4.365199e-01
8.891276e-01	3.222050e-03	-4.220094e-01
8.395873e-01	3.219083e-03	-4.034370e-01
7.889174e-01	3.215831e-03	-3.832866e-01
7.420164e-01	3.213541e-03	-3.621111e-01
8.156146e-01	-1.152760e-03	-1.436267e-01
8.334014e-01	-1.135871e-03	-1.482673e-01
8.447664e-01	-1.127423e-03	-1.540512e-01
8.501360e-01	-1.136446e-03	-1.592435e-01
8.483587e-01	-1.116250e-03	-1.653187e-01
8.420293e-01	-1.064719e-03	-1.699016e-01
8.269508e-01	-1.023292e-03	-1.748526e-01
8.127870e-01	-9.944500e-04	-1.789993e-01
7.895888e-01	-1.001080e-03	-1.841560e-01
7.634859e-01	-9.204532e-04	-1.878395e-01
7.264346e-01	-8.168488e-04	-1.935198e-01
6.813683e-01	-6.612043e-04	-1.958211e-01
6.177920e-01	-5.805910e-04	-1.985593e-01
5.355587e-01	-3.453593e-04	-1.910411e-01
4.241268e-01	-2.545334e-04	-1.759568e-01
2.610514e-01	-1.255904e-04	-1.249018e-01
1.902140e-02	1.252850e-05	-1.137304e-02
-3.272295e-01	1.554132e-04	2.508878e-01
-7.644897e-01	3.057411e-04	1.020783e+00
-4.877875e-01	4.555384e-04	3.094066e+00
2.989715e+00	6.279487e-04	2.993987e+00
3.099954e+00	7.744249e-04	9.577913e-01
2.615419e+00	9.184179e-04	6.745877e-02
2.231802e+00	1.052845e-03	-2.001443e-01
1.965304e+00	1.181146e-03	-3.617967e-01
1.774742e+00	1.301573e-03	-4.250288e-01
1.608970e+00	1.328816e-03	-4.725694e-01
1.485675e+00	1.439820e-03	-4.879627e-01
1.379192e+00	1.547018e-03	-5.010492e-01
1.292285e+00	1.607544e-03	-4.982115e-01
1.215723e+00	1.675806e-03	-4.955856e-01
1.150345e+00	1.821432e-03	-4.852523e-01
1.091991e+00	1.842149e-03	-4.766266e-01
1.039082e+00	1.883991e-03	-4.639571e-01
9.885211e-01	1.895871e-03	-4.524183e-01
9.362569e-01	1.881064e-03	-4.360474e-01
8.888285e-01	1.884058e-03	-4.218675e-01
8.394132e-01	1.905767e-03	-4.033533e-01
7.883333e-01	1.902572e-03	-3.830028e-01
7.397031e-01	1.886970e-03	-3.609822e-01
8.153663e-01	-1.385562e-03	-1.435830e-01
8.329724e-01	-1.385619e-03	-1.481909e-01
8.451749e-01	-1.386271e-03	-1.541257e-01
8.500671e-01	-1.368345e-03	-1.592306e-01
8.458374e-01	-1.326576e-03	-1.648273e-01
8.407853e-01	-1.248689e-03	-1.696506e-01
8.273907e-01	-1.151500e-03	-1.749456e-01
8.134994e-01	-1.213832e-03	-1.791562e-01
7.896690e-01	-9.933561e-04	-1.841747e-01
7.625140e-01	-1.041382e-03	-1.876004e-01
7.253902e-01	-6.832389e-04	-1.932415e-01
6.806398e-01	-7.695537e-04	-1.956117e-01
6.166080e-01	-3.324724e-04	-1.981788e-01
5.341453e-01	-3.944855e-04	-1.905369e-01
4.230676e-01	6.650765e-05	-1.755173e-01
2.592319e-01	4.079051e-04	-1.240312e-01
1.640270e-02	6.051901e-04	-9.807299e-03
-3.305756e-01	6.548735e-04	2.534533e-01
-7.672855e-01	7.032122e-04	1.024516e+00
-4.889776e-01	7.647899e-04	3.101614e+00
2.995182e+00	8.467442e-04	2.999462e+00
3.103152e+00	9.266648e-04	9.587795e-01
2.617971e+00	9.941388e-04	6.752460e-02
2.234145e+00	1.107275e-03	-2.003544e-01
1.967029e+00	1.043406e-03	-3.621142e-01
1.776082e+00	8.621898e-04	-4.253497e-01
1.610026e+00	4.834337e-04	-4.728796e-01
1.486960e+00	6.463925e-04	-4.883846e-01
1.380248e+00	3.309429e-04	-5.014330e-01
1.292780e+00	4.622364e-04	-4.984023e-01
1.217010e+00	1.688611e-04	-4.961103e-01
1.151024e+00	3.207302e-04	-4.855389e-01
1.091367e+00	6.255125e-05	-4.763542e-01
1.037489e+00	1.189789e-04	-4.632459e-01
9.871549e-01	-9.837150e-05	-4.517930e-01
9.370217e-01	-4.045309e-05	-4.364036e-01
8.896365e-01	-5.491707e-05	-4.222509e-01
8.402949e-01	-6.097304e-05	-4.037770e-01
7.882306e-01	-5.594391e-05	-3.829529e-01
7.396270e-01	-5.487572e-05	-3.609450e-01
8.156242e-01	-2.057751e-04	-1.436284e-01
8.334475e-01	-2.338904e-04	-1.482755e-01
8.440752e-01	-1.794183e-04	-1.539251e-01
8.485799e-01	-1.265751e-04	-1.589520e-01
8.458873e-01	-1.039198e-04	-1.648371e-01
8.389913e-01	-8.367037e-05	-1.692886e-01
8.265337e-01	-6.670872e-05	-1.747644e-01
8.104152e-01	-5.002357e-05	-1.784770e-01
7.873339e-01	6.037561e-06	-1.836301e-01
7.593894e-01	5.811231e-06	-1.868317e-01
7.228456e-01	7.311296e-06	-1.925637e-01
6.768288e-01	-1.742437e-05	-1.945164e-01
6.123543e-01	-3.698375e-05	-1.968117e-01
5.299982e-01	-2.661937e-05	-1.890576e-01
4.109268e-01	1.126244e-05	-1.704805e-01
2.508799e-01	-1.561518e-05	-1.200352e-01
1.337525e-02	-7.051464e-06	-7.997163e-03
-3.297509e-01	2.854235e-07	2.528210e-01
-7.674489e-01	6.244152e-06	1.024735e+00
-4.893200e-01	1.103742e-05	3.103786e+00
2.997739e+00	1.592501e-05	3.002023e+00
3.106327e+00	1.988555e-05	9.597603e-01
2.621496e+00	2.365208e-05	6.761550e-02
2.232513e+00	2.687772e-05	-2.002081e-01
1.960166e+00	6.537545e-05	-3.608510e-01
1.764917e+00	6.839901e-05	-4.226757e-01
1.606096e+00	4.254299e-05	-4.717252e-01
1.483347e+00	1.039711e-04	-4.871979e-01
1.376906e+00	1.016804e-04	-5.002188e-01
1.290206e+00	1.017800e-04	-4.974102e-01
1.213925e+00	1.068707e-04	-4.948524e-01
1.149089e+00	7.822300e-05	-4.847226e-01
1.089170e+00	9.912390e-05	-4.753956e-01
1.036963e+00	1.182833e-04	-4.630108e-01
9.856827e-01	1.423316e-04	-4.511192e-01
9.371874e-01	1.680296e-04	-4.364808e-01
8.883363e-01	1.979923e-04	-4.216338e-01
8.393177e-01	2.092481e-04	-4.033075e-01
7.886778e-01	2.877863e-04	-3.831701e-01
7.398667e-01	2.772386e-04	-3.610620e-01
8.200848e-01	1.464587e-03	-1.444139e-01
8.302508e-01	1.464945e-03	-1.477067e-01
8.416210e-01	1.466634e-03	-1.534776e-01
8.482897e-01	1.451278e-03	-1.588977e-01
8.449798e-01	1.413133e-03	-1.646602e-01
8.401480e-01	1.426989e-03	-1.695220e-01
8.268735e-01	1.289064e-03	-1.748363e-01
8.124489e-01	1.351701e-03	-1.789248e-01
7.889311e-01	1.110493e-03	-1.840026e-01
7.624971e-01	1.135400e-03	-1.875962e-01
7.256919e-01	7.863384e-04	-1.933219e-01
6.812321e-01	7.992591e-04	-1.957819e-01
6.167492e-01	3.680364e-04	-1.982242e-01
5.334472e-01	4.583122e-04	-1.902879e-01
4.228202e-01	-3.694276e-05	-1.754147e-01
2.596274e-01	-3.780210e-04	-1.242205e-01
1.605975e-02	-5.758192e-04	-9.602246e-03
-3.309226e-01	-6.015243e-04	2.537193e-01
-7.675888e-01	-6.531969e-04	1.024921e+00
-4.890834e-01	-7.474125e-04	3.102286e+00
2.995614e+00	-8.347382e-04	2.999894e+00
3.103491e+00	-8.905486e-04	9.588840e-01
2.618194e+00	-9.884004e-04	6.753035e-02
2.235282e+00	-1.104283e-03	-2.004564e-01
1.967801e+00	-1.044218e-03	-3.622564e-01
1.775658e+00	-8.343422e-04	-4.252482e-01
1.610630e+00	-4.911105e-04	-4.730567e-01
1.487752e+00	-6.609354e-04	-4.886449e-01
1.380220e+00	-3.566024e-04	-5.014228e-01
1.292846e+00	-4.214066e-04	-4.984277e-01
1.216718e+00	-1.431619e-04	-4.959910e-01
1.150913e+00	-2.448457e-04	-4.854922e-01
1.091901e+00	-2.950270e-05	-4.765875e-01
1.038106e+00	-1.270610e-04	-4.635213e-01
9.879481e-01	-1.572859e-05	-4.521560e-01
9.380473e-01	-4.790025e-05	-4.368813e-01
8.906305e-01	-2.122076e-05	-4.227228e-01
8.426376e-01	-1.207055e-05	-4.049027e-01
7.927560e-01	-1.633207e-05	-3.851515e-01
7.380117e-01	-1.732098e-05	-3.601568e-01
8.155640e-01	1.521842e-03	-1.436178e-01
8.333210e-01	1.547112e-03	-1.482529e-01
8.446369e-01	1.483977e-03	-1.540276e-01
8.499790e-01	1.447149e-03	-1.592141e-01
8.462788e-01	1.311136e-03	-1.649133e-01
8.413014e-01	1.265846e-03	-1.697548e-01
8.275420e-01	1.206976e-03	-1.749776e-01
8.130864e-01	1.132131e-03	-1.790653e-01
7.901803e-01	1.086313e-03	-1.842939e-01
7.636681e-01	9.887137e-04	-1.878843e-01
7.272690e-01	8.831806e-04	-1.937420e-01
6.822903e-01	7.975578e-04	-1.960860e-01
6.173274e-01	7.031142e-04	-1.984100e-01
5.356030e-01	5.411885e-04	-1.910569e-01
4.247162e-01	3.946017e-04	-1.762013e-01
2.610536e-01	2.762991e-04	-1.249028e-01
1.858065e-02	1.168549e-04	-1.110951e-02
-3.278719e-01	-4.409517e-05	2.513803e-01
-7.636623e-01	-2.107085e-04	1.019678e+00
-4.873189e-01	-3.753394e-04	3.091094e+00
2.990903e+00	-5.643379e-04	2.995177e+00
3.099188e+00	-7.250604e-04	9.575546e-01
2.614492e+00	-8.833743e-04	6.743485e-02
2.231636e+00	-1.031193e-03	-2.001294e-01
1.965861e+00	-1.207702e-03	-3.618993e-01
1.774553e+00	-1.338286e-03	-4.249836e-01
1.608349e+00	-1.460693e-03	-4.723868e-01
1.485424e+00	-1.606193e-03	-4.878801e-01
1.379934e+00	-1.707171e-03	-5.013190e-01
1.292927e+00	-1.789668e-03	-4.984591e-01
1.216158e+00	-1.863005e-03	-4.957628e-01
1.150461e+00	-1.962558e-03	-4.853014e-01
1.090871e+00	-2.011384e-03	-4.761379e-01
1.037015e+00	-2.047592e-03	-4.630342e-01
9.870992e-01	-2.089113e-03	-4.517675e-01
9.369846e-01	-2.133021e-03	-4.363863e-01
8.892041e-01	-2.078299e-03	-4.220457e-01
8.395442e-01	-2.121841e-03	-4.034163e-01
7.883833e-01	-2.198752e-03	-3.830270e-01
7.397152e-01	-2.187139e-03	-3.609881e-01
8.158439e-01	2.166334e-03	-1.436671e-01
8.336564e-01	2.161862e-03	-1.483126e-01
8.447747e-01	2.154896e-03	-1.540527e-01
8.528904e-01	2.055047e-03	-1.597595e-01
8.484543e-01	2.021756e-03	-1.653373e-01
8.419578e-01	1.983550e-03	-1.698872e-01
8.289416e-01	1.902090e-03	-1.752736e-01
8.141493e-01	1.804741e-03	-1.792993e-01
7.908770e-01	1.677400e-03	-1.844564e-01
7.651637e-01	1.559099e-03	-1.882523e-01
7.281927e-01	1.390678e-03	-1.939881e-01
6.836318e-01	1.286560e-03	-1.964716e-01
6.202843e-01	1.063121e-03	-1.993604e-01
5.380489e-01	8.518032e-04	-1.919294e-01