# vtk DataFile Version 2.0
OUTPUT by 3D-VPM
ASCII
DATASET UNSTRUCTURED_GRID
POINTS 820 double
9.510565e-01	0.000000e+00	-3.090170e-01
9.442611e-01	0.000000e+00	-3.078203e-01
9.267277e-01	0.000000e+00	-3.047010e-01
8.963175e-01	0.000000e+00	-2.991555e-01
8.562911e-01	0.000000e+00	-2.916579e-01
8.054250e-01	0.000000e+00	-2.817457e-01
7.470317e-01	0.000000e+00	-2.699633e-01
6.809074e-01	0.000000e+00	-2.559818e-01
6.100852e-01	0.000000e+00	-2.403847e-01
5.354138e-01	0.000000e+00	-2.229691e-01
4.593635e-01	0.000000e+00	-2.042585e-01
3.837764e-01	0.000000e+00	-1.841224e-01
3.103069e-01	0.000000e+00	-1.630077e-01
2.415927e-01	0.000000e+00	-1.409228e-01
1.782654e-01	0.000000e+00	-1.183331e-01
1.234349e-01	0.000000e+00	-9.558566e-02
7.662509e-02	0.000000e+00	-7.318920e-02
4.106998e-02	0.000000e+00	-5.193053e-02
1.528206e-02	0.000000e+00	-3.215886e-02
2.347037e-03	0.000000e+00	-1.488740e-02
0.000000e+00	0.000000e+00	0.000000e+00
1.064939e-02	0.000000e+00	1.066461e-02
3.126595e-02	0.000000e+00	1.703450e-02
6.375031e-02	0.000000e+00	1.787236e-02
1.050105e-01	0.000000e+00	1.417221e-02
1.560448e-01	0.000000e+00	4.777214e-03
2.137742e-01	0.000000e+00	-9.048270e-03
2.782849e-01	0.000000e+00	-2.799567e-02
3.468570e-01	0.000000e+00	-5.051783e-02
4.187060e-01	0.000000e+00	-7.662000e-02
4.916930e-01	0.000000e+00	-1.047585e-01
5.642168e-01	0.000000e+00	-1.343226e-01
6.348639e-01	0.000000e+00	-1.641238e-01
7.013280e-01	0.000000e+00	-1.931337e-01
7.630418e-01	0.000000e+00	-2.206893e-01
8.172084e-01	0.000000e+00	-2.454799e-01
8.641863e-01	0.000000e+00	-2.673591e-01
9.009752e-01	0.000000e+00	-2.848204e-01
9.288372e-01	0.000000e+00	-2.982085e-01
9.448555e-01	0.000000e+00	-3.059908e-01
9.510565e-01	0.000000e+00	-3.090170e-01
9.510565e-01	1.052632e+00	-3.090170e-01
9.442611e-01	1.052632e+00	-3.078203e-01
9.267277e-01	1.052632e+00	-3.047010e-01
8.963175e-01	1.052632e+00	-2.991555e-01
8.562911e-01	1.052632e+00	-2.916579e-01
8.054250e-01	1.052632e+00	-2.817457e-01
7.470317e-01	1.052632e+00	-2.699633e-01
6.809074e-01	1.052632e+00	-2.559818e-01
6.100852e-01	1.052632e+00	-2.403847e-01
5.354138e-01	1.052632e+00	-2.229691e-01
4.593635e-01	1.052632e+00	-2.042585e-01
3.837764e-01	1.052632e+00	-1.841224e-01
3.103069e-01	1.052632e+00	-1.630077e-01
2.415927e-01	1.052632e+00	-1.409228e-01
1.782654e-01	1.052632e+00	-1.183331e-01
1.234349e-01	1.052632e+00	-9.558566e-02
7.662509e-02	1.052632e+00	-7.318920e-02
4.106998e-02	1.052632e+00	-5.193053e-02
1.528206e-02	1.052632e+00	-3.215886e-02
2.347037e-03	1.052632e+00	-1.488740e-02
0.000000e+00	1.052632e+00	0.000000e+00
1.064939e-02	1.052632e+00	1.066461e-02
3.126595e-02	1.052632e+00	1.703450e-02
6.375031e-02	1.052632e+00	1.787236e-02
1.050105e-01	1.052632e+00	1.417221e-02
1.560448e-01	1.052632e+00	4.777214e-03
2.137742e-01	1.052632e+00	-9.048270e-03
2.782849e-01	1.052632e+00	-2.799567e-02
3.468570e-01	1.052632e+00	-5.051783e-02
4.187060e-01	1.052632e+00	-7.662000e-02
4.916930e-01	1.052632e+00	-1.047585e-01
5.642168e-01	1.052632e+00	-1.343226e-01
6.348639e-01	1.052632e+00	-1.641238e-01
7.013280e-01	1.052632e+00	-1.931337e-01
7.630418e-01	1.052632e+00	-2.206893e-01
8.172084e-01	1.052632e+00	-2.454799e-01
8.641863e-01	1.052632e+00	-2.673591e-01
9.009752e-01	1.052632e+00	-2.848204e-01
9.288372e-01	1.052632e+00	-2.982085e-01
9.448555e-01	1.052632e+00	-3.059908e-01
9.510565e-01	1.052632e+00	-3.090170e-01
9.510565e-01	2.105263e+00	-3.090170e-01
9.442611e-01	2.105263e+00	-3.078203e-01
9.267277e-01	2.105263e+00	-3.047010e-01
8.963175e-01	2.105263e+00	-2.991555e-01
8.562911e-01	2.105263e+00	-2.916579e-01
8.054250e-01	2.105263e+00	-2.817457e-01
7.470317e-01	2.105263e+00	-2.699633e-01
6.809074e-01	2.105263e+00	-2.559818e-01
6.100852e-01	2.105263e+00	-2.403847e-01
5.354138e-01	2.105263e+00	-2.229691e-01
4.593635e-01	2.105263e+00	-2.042585e-01
3.837764e-01	2.105263e+00	-1.841224e-01
3.103069e-01	2.105263e+00	-1.630077e-01
2.415927e-01	2.105263e+00	-1.409228e-01
1.782654e-01	2.105263e+00	-1.183331e-01
1.234349e-01	2.105263e+00	-9.558566e-02
7.662509e-02	2.105263e+00	-7.318920e-02
4.106998e-02	2.105263e+00	-5.193053e-02
1.528206e-02	2.105263e+00	-3.215886e-02
2.347037e-03	2.105263e+00	-1.488740e-02
0.000000e+00	2.105263e+00	0.000000e+00
1.064939e-02	2.105263e+00	1.066461e-02
3.126595e-02	2.105263e+00	1.703450e-02
6.375031e-02	2.105263e+00	1.787236e-02
1.050105e-01	2.105263e+00	1.417221e-02
1.560448e-01	2.105263e+00	4.777214e-03
2.137742e-01	2.105263e+00	-9.048270e-03
2.782849e-01	2.105263e+00	-2.799567e-02
3.468570e-01	2.105263e+00	-5.051783e-02
4.187060e-01	2.105263e+00	-7.662000e-02
4.916930e-01	2.105263e+00	-1.047585e-01
5.642168e-01	2.105263e+00	-1.343226e-01
6.348639e-01	2.105263e+00	-1.641238e-01
7.013280e-01	2.105263e+00	-1.931337e-01
7.630418e-01	2.105263e+00	-2.206893e-01
8.172084e-01	2.105263e+00	-2.454799e-01
8.641863e-01	2.105263e+00	-2.673591e-01
9.009752e-01	2.105263e+00	-2.848204e-01
9.288372e-01	2.105263e+00	-2.982085e-01
9.448555e-01	2.105263e+00	-3.059908e-01
9.510565e-01	2.105263e+00	-3.090170e-01
9.510565e-01	3.157895e+00	-3.090170e-01
9.442611e-01	3.157895e+00	-3.078203e-01
9.267277e-01	3.157895e+00	-3.047010e-01
8.963175e-01	3.157895e+00	-2.991555e-01
8.562911e-01	3.157895e+00	-2.916579e-01
8.054250e-01	3.157895e+00	-2.817457e-01
7.470317e-01	3.157895e+00	-2.699633e-01
6.809074e-01	3.157895e+00	-2.559818e-01
6.100852e-01	3.157895e+00	-2.403847e-01
5.354138e-01	3.157895e+00	-2.229691e-01
4.593635e-01	3.157895e+00	-2.042585e-01
3.837764e-01	3.157895e+00	-1.841224e-01
3.103069e-01	3.157895e+00	-1.630077e-01
2.415927e-01	3.157895e+00	-1.409228e-01
1.782654e-01	3.157895e+00	-1.183331e-01
1.234349e-01	3.157895e+00	-9.558566e-02
7.662509e-02	3.157895e+00	-7.318920e-02
4.106998e-02	3.157895e+00	-5.193053e-02
1.528206e-02	3.157895e+00	-3.215886e-02
2.347037e-03	3.157895e+00	-1.488740e-02
0.000000e+00	3.157895e+00	0.000000e+00
1.064939e-02	3.157895e+00	1.066461e-02
3.126595e-02	3.157895e+00	1.703450e-02
6.375031e-02	3.157895e+00	1.787236e-02
1.050105e-01	3.157895e+00	1.417221e-02
1.560448e-01	3.157895e+00	4.777214e-03
2.137742e-01	3.157895e+00	-9.048270e-03
2.782849e-01	3.157895e+00	-2.799567e-02
3.468570e-01	3.157895e+00	-5.051783e-02
4.187060e-01	3.157895e+00	-7.662000e-02
4.916930e-01	3.157895e+00	-1.047585e-01
5.642168e-01	3.157895e+00	-1.343226e-01
6.348639e-01	3.157895e+00	-1.641238e-01
7.013280e-01	3.157895e+00	-1.931337e-01
7.630418e-01	3.157895e+00	-2.206893e-01
8.172084e-01	3.157895e+00	-2.454799e-01
8.641863e-01	3.157895e+00	-2.673591e-01
9.009752e-01	3.157895e+00	-2.848204e-01
9.288372e-01	3.157895e+00	-2.982085e-01
9.448555e-01	3.157895e+00	-3.059908e-01
9.510565e-01	3.157895e+00	-3.090170e-01
9.510565e-01	4.210526e+00	-3.090170e-01
9.442611e-01	4.210526e+00	-3.078203e-01
9.267277e-01	4.210526e+00	-3.047010e-01
8.963175e-01	4.210526e+00	-2.991555e-01
8.562911e-01	4.210526e+00	-2.916579e-01
8.054250e-01	4.210526e+00	-2.817457e-01
7.470317e-01	4.210526e+00	-2.699633e-01
6.809074e-01	4.210526e+00	-2.559818e-01
6.100852e-01	4.210526e+00	-2.403847e-01
5.354138e-01	4.210526e+00	-2.229691e-01
4.593635e-01	4.210526e+00	-2.042585e-01
3.837764e-01	4.210526e+00	-1.841224e-01
3.103069e-01	4.210526e+00	-1.630077e-01
2.415927e-01	4.210526e+00	-1.409228e-01
1.782654e-01	4.210526e+00	-1.183331e-01
1.234349e-01	4.210526e+00	-9.558566e-02
7.662509e-02	4.210526e+00	-7.318920e-02
4.106998e-02	4.210526e+00	-5.193053e-02
1.528206e-02	4.210526e+00	-3.215886e-02
2.347037e-03	4.210526e+00	-1.488740e-02
0.000000e+00	4.210526e+00	0.000000e+00
1.064939e-02	4.210526e+00	1.066461e-02
3.126595e-02	4.210526e+00	1.703450e-02
6.375031e-02	4.210526e+00	1.787236e-02
1.050105e-01	4.210526e+00	1.417221e-02
1.560448e-01	4.210526e+00	4.777214e-03
2.137742e-01	4.210526e+00	-9.048270e-03
2.782849e-01	4.210526e+00	-2.799567e-02
3.468570e-01	4.210526e+00	-5.051783e-02
4.187060e-01	4.210526e+00	-7.662000e-02
4.916930e-01	4.210526e+00	-1.047585e-01
5.642168e-01	4.210526e+00	-1.343226e-01
6.348639e-01	4.210526e+00	-1.641238e-01
7.013280e-01	4.210526e+00	-1.931337e-01
7.630418e-01	4.210526e+00	-2.206893e-01
8.172084e-01	4.210526e+00	-2.454799e-01
8.641863e-01	4.210526e+00	-2.673591e-01
9.009752e-01	4.210526e+00	-2.848204e-01
9.288372e-01	4.210526e+00	-2.982085e-01
9.448555e-01	4.210526e+00	-3.059908e-01
9.510565e-01	4.210526e+00	-3.090170e-01
9.510565e-01	5.263158e+00	-3.090170e-01
9.442611e-01	5.263158e+00	-3.078203e-01
9.267277e-01	5.263158e+00	-3.047010e-01
8.963175e-01	5.263158e+00	-2.991555e-01
8.562911e-01	5.263158e+00	-2.916579e-01
8.054250e-01	5.263158e+00	-2.817457e-01
7.470317e-01	5.263158e+00	-2.699633e-01
6.809074e-01	5.263158e+00	-2.559818e-01
6.100852e-01	5.263158e+00	-2.403847e-01
5.354138e-01	5.263158e+00	-2.229691e-01
4.593635e-01	5.263158e+00	-2.042585e-01
3.837764e-01	5.263158e+00	-1.841224e-01
3.103069e-01	5.263158e+00	-1.630077e-01
2.415927e-01	5.263158e+00	-1.409228e-01
1.782654e-01	5.263158e+00	-1.183331e-01
1.234349e-01	5.263158e+00	-9.558566e-02
7.662509e-02	5.263158e+00	-7.318920e-02
4.106998e-02	5.263158e+00	-5.193053e-02
1.528206e-02	5.263158e+00	-3.215886e-02
2.347037e-03	5.263158e+00	-1.488740e-02
0.000000e+00	5.263158e+00	0.000000e+00
1.064939e-02	5.263158e+00	1.066461e-02
3.126595e-02	5.263158e+00	1.703450e-02
6.375031e-02	5.263158e+00	1.787236e-02
1.050105e-01	5.263158e+00	1.417221e-02
1.560448e-01	5.263158e+00	4.777214e-03
2.137742e-01	5.263158e+00	-9.048270e-03
2.782849e-01	5.263158e+00	-2.799567e-02
3.468570e-01	5.263158e+00	-5.051783e-02
4.187060e-01	5.263158e+00	-7.662000e-02
4.916930e-01	5.263158e+00	-1.047585e-01
5.642168e-01	5.263158e+00	-1.343226e-01
6.348639e-01	5.263158e+00	-1.641238e-01
7.013280e-01	5.263158e+00	-1.931337e-01
7.630418e-01	5.263158e+00	-2.206893e-01
8.172084e-01	5.263158e+00	-2.454799e-01
8.641863e-01	5.263158e+00	-2.673591e-01
9.009752e-01	5.263158e+00	-2.848204e-01
9.288372e-01	5.263158e+00	-2.982085e-01
9.448555e-01	5.263158e+00	-3.059908e-01
9.510565e-01	5.263158e+00	-3.090170e-01
9.510565e-01	6.315789e+00	-3.090170e-01
9.442611e-01	6.315789e+00	-3.078203e-01
[...]
CELL_DATA 760
VECTORS V double
8.414302e-01	-6.902532e-02	-1.481728e-01
8.655530e-01	-6.885174e-02	-1.539872e-01
8.835701e-01	-6.840201e-02	-1.611274e-01
8.953385e-01	-6.760766e-02	-1.677106e-01
8.978062e-01	-6.644680e-02	-1.749544e-01
8.991217e-01	-6.490180e-02	-1.814215e-01
8.920870e-01	-6.296235e-02	-1.886252e-01
8.847797e-01	-6.060439e-02	-1.948542e-01
8.704488e-01	-5.779947e-02	-2.030150e-01
8.548124e-01	-5.451504e-02	-2.103085e-01
8.295117e-01	-5.072563e-02	-2.209792e-01
7.985946e-01	-4.641707e-02	-2.295112e-01
7.512510e-01	-4.162231e-02	-2.414533e-01
6.892342e-01	-3.639249e-02	-2.458592e-01
6.025930e-01	-3.076554e-02	-2.499968e-01
4.719289e-01	-2.486424e-02	-2.257975e-01
2.702347e-01	-1.869655e-02	-1.615753e-01
-1.731536e-02	-1.242848e-02	1.327574e-02
-4.216925e-01	-5.861502e-03	5.630640e-01
-3.426479e-01	7.183223e-04	2.173436e+00
2.326848e+00	8.430659e-03	2.330173e+00
2.541558e+00	1.519478e-02	7.852640e-01
2.210460e+00	2.214036e-02	5.701377e-02
1.925461e+00	2.898716e-02	-1.726722e-01
1.720137e+00	3.597614e-02	-3.166634e-01
1.570369e+00	4.294221e-02	-3.760839e-01
1.435527e+00	4.987970e-02	-4.216273e-01
1.336717e+00	5.661009e-02	-4.390382e-01
1.250626e+00	6.301522e-02	-4.543423e-01
1.181689e+00	6.889723e-02	-4.555738e-01
1.121864e+00	7.414065e-02	-4.573240e-01
1.071609e+00	7.860840e-02	-4.520392e-01
1.027472e+00	8.223830e-02	-4.484658e-01
9.871995e-01	8.502266e-02	-4.407912e-01
9.499799e-01	8.701286e-02	-4.347790e-01
9.115291e-01	8.830683e-02	-4.245308e-01
8.743632e-01	8.903288e-02	-4.150017e-01
8.341897e-01	8.934005e-02	-4.008434e-01
7.910620e-01	8.938394e-02	-3.843285e-01
7.483113e-01	8.933825e-02	-3.651830e-01
8.268651e-01	-4.833883e-02	-1.456079e-01
8.473552e-01	-4.821453e-02	-1.507497e-01
8.618205e-01	-4.789604e-02	-1.571612e-01
8.705097e-01	-4.733227e-02	-1.630598e-01
8.702645e-01	-4.650061e-02	-1.695874e-01
8.688840e-01	-4.538221e-02	-1.753203e-01
8.588889e-01	-4.396642e-02	-1.816057e-01
8.480237e-01	-4.223824e-02	-1.867595e-01
8.293583e-01	-4.018287e-02	-1.934314e-01
8.083755e-01	-3.778515e-02	-1.988836e-01
7.765941e-01	-3.501536e-02	-2.068821e-01
7.379414e-01	-3.192387e-02	-2.120798e-01
6.816450e-01	-2.848812e-02	-2.190818e-01
6.086032e-01	-2.476317e-02	-2.170970e-01
5.088153e-01	-2.077495e-02	-2.110914e-01
3.608302e-01	-1.660650e-02	-1.726416e-01
1.374418e-01	-1.225958e-02	-8.217745e-02
-1.814146e-01	-7.847595e-03	1.390911e-01
-6.031018e-01	-3.230684e-03	8.052904e-01
-4.198052e-01	1.388267e-03	2.662850e+00
2.682321e+00	6.787800e-03	2.686155e+00
2.843956e+00	1.150330e-02	8.786956e-01
2.433167e+00	1.631688e-02	6.275798e-02
2.097276e+00	2.102564e-02	-1.880803e-01
1.860443e+00	2.578830e-02	-3.424927e-01
1.689615e+00	3.048519e-02	-4.046420e-01
1.539039e+00	3.511049e-02	-4.520300e-01
1.427790e+00	3.954609e-02	-4.689505e-01
1.330704e+00	4.372013e-02	-4.834339e-01
1.251892e+00	4.752496e-02	-4.826391e-01
1.182660e+00	5.085029e-02	-4.821075e-01
1.123331e+00	5.366732e-02	-4.738572e-01
1.070388e+00	5.592637e-02	-4.671974e-01
1.021738e+00	5.763187e-02	-4.562128e-01
9.765880e-01	5.882507e-02	-4.469568e-01
9.307594e-01	5.957681e-02	-4.334870e-01
8.867494e-01	5.997546e-02	-4.208807e-01
8.402937e-01	6.012182e-02	-4.037764e-01
7.917026e-01	6.011818e-02	-3.846397e-01
7.448127e-01	6.007487e-02	-3.634757e-01
8.205704e-01	-2.041071e-02	-1.444995e-01
8.397311e-01	-2.035888e-02	-1.493933e-01
8.527166e-01	-2.022853e-02	-1.555010e-01
8.598780e-01	-1.999253e-02	-1.610683e-01
8.580903e-01	-1.963395e-02	-1.672150e-01
8.551270e-01	-1.913612e-02	-1.725444e-01
8.435072e-01	-1.848930e-02	-1.783534e-01
8.309075e-01	-1.768815e-02	-1.829900e-01
8.103525e-01	-1.670557e-02	-1.889987e-01
7.869669e-01	-1.558540e-02	-1.936165e-01
7.529043e-01	-1.431339e-02	-2.005712e-01
7.116147e-01	-1.290432e-02	-2.045137e-01
6.518004e-01	-1.134826e-02	-2.094897e-01
5.746523e-01	-9.681375e-03	-2.049863e-01
4.698758e-01	-7.913743e-03	-1.949366e-01
3.151404e-01	-6.077825e-03	-1.507810e-01
8.315999e-02	-4.170354e-03	-4.972197e-02
-2.482108e-01	-2.239243e-03	1.903040e-01
-6.766185e-01	-2.236448e-04	9.034533e-01
-4.508446e-01	1.784529e-03	2.859734e+00
2.823415e+00	4.113515e-03	2.827450e+00
2.961675e+00	6.121388e-03	9.150673e-01
2.517786e+00	8.134761e-03	6.494055e-02
2.160572e+00	1.005850e-02	-1.937565e-01
1.910263e+00	1.194885e-02	-3.516642e-01
1.730218e+00	1.375226e-02	-4.143659e-01
1.572732e+00	1.546413e-02	-4.619260e-01
1.456082e+00	1.704384e-02	-4.782430e-01
1.354618e+00	1.847389e-02	-4.921219e-01
1.271669e+00	1.973983e-02	-4.902634e-01
1.198773e+00	2.080505e-02	-4.886757e-01
1.136462e+00	2.166531e-02	-4.793962e-01
1.080536e+00	2.230234e-02	-4.716269e-01
1.029158e+00	2.277392e-02	-4.595259e-01
9.815261e-01	2.307600e-02	-4.492169e-01
9.334831e-01	2.324067e-02	-4.347555e-01
8.875216e-01	2.330315e-02	-4.212472e-01
8.394015e-01	2.330092e-02	-4.033477e-01
7.894785e-01	2.327047e-02	-3.835591e-01
7.416792e-01	2.324368e-02	-3.619465e-01
8.181670e-01	-1.022165e-02	-1.440762e-01
8.367543e-01	-1.020061e-02	-1.488637e-01
8.489846e-01	-1.014431e-02	-1.548204e-01
8.553736e-01	-1.003848e-02	-1.602246e-01
8.527978e-01	-9.873277e-03	-1.661837e-01
8.489956e-01	-9.625378e-03	-1.713073e-01
8.365074e-01	-9.312664e-03	-1.768733e-01
8.226139e-01	-8.915168e-03	-1.811635e-01
8.009869e-01	-8.441802e-03	-1.868144e-01
7.769694e-01	-7.877868e-03	-1.911568e-01
7.415515e-01	-7.238405e-03	-1.975468e-01
6.984265e-01	-6.500808e-03	-2.007235e-01
6.368748e-01	-5.695252e-03	-2.046926e-01
5.575703e-01	-4.819047e-03	-1.988929e-01
4.501700e-01	-3.884224e-03	-1.867613e-01
2.918941e-01	-2.908217e-03	-1.396587e-01
5.544434e-02	-1.894339e-03	-3.315059e-02
-2.823645e-01	-8.606984e-04	2.164897e-01
-7.142119e-01	2.194506e-04	9.536499e-01
-4.666782e-01	1.279598e-03	2.960168e+00
2.894984e+00	2.538236e-03	2.899121e+00
3.020921e+00	3.601918e-03	9.333724e-01
2.559993e+00	4.661016e-03	6.602919e-02
2.191795e+00	5.664087e-03	-1.965566e-01
1.934575e+00	6.643677e-03	-3.561398e-01
1.749821e+00	7.563782e-03	-4.190606e-01
1.588836e+00	8.428212e-03	-4.666558e-01
1.469492e+00	9.225276e-03	-4.826473e-01
1.365832e+00	9.934037e-03	-4.961956e-01
1.281307e+00	1.055316e-02	-4.939793e-01
1.206772e+00	1.109170e-02	-4.919366e-01
1.142475e+00	1.152310e-02	-4.819327e-01
1.085230e+00	1.186125e-02	-4.736759e-01
1.032959e+00	1.209946e-02	-4.612233e-01
9.841916e-01	1.225957e-02	-4.504368e-01
9.351499e-01	1.234059e-02	-4.355318e-01
8.883112e-01	1.238456e-02	-4.216219e-01
8.394629e-01	1.239477e-02	-4.033772e-01
7.889796e-01	1.238793e-02	-3.833167e-01
7.407100e-01	1.237927e-02	-3.614736e-01
8.170385e-01	-5.656892e-03	-1.438775e-01
8.351987e-01	-5.645772e-03	-1.485870e-01
8.470188e-01	-5.614272e-03	-1.544619e-01
8.529674e-01	-5.554886e-03	-1.597739e-01
8.496360e-01	-5.458670e-03	-1.655676e-01
8.453956e-01	-5.318321e-03	-1.705809e-01
8.325226e-01	-5.146859e-03	-1.760307e-01
8.185075e-01	-4.927001e-03	-1.802591e-01
7.963509e-01	-4.661878e-03	-1.857331e-01
7.711679e-01	-4.325880e-03	-1.897295e-01
7.349078e-01	-3.934694e-03	-1.957770e-01
6.910476e-01	-3.498166e-03	-1.986028e-01
6.284446e-01	-3.026356e-03	-2.019831e-01
5.477466e-01	-2.605709e-03	-1.953887e-01
4.387837e-01	-2.062122e-03	-1.820375e-01
2.784955e-01	-1.454351e-03	-1.332480e-01
3.943994e-02	-8.446946e-04	-2.358143e-02
-3.022727e-01	-2.248833e-04	2.317533e-01
-7.358100e-01	4.231405e-04	9.824887e-01
-4.758525e-01	1.068020e-03	3.018361e+00
2.937092e+00	1.811508e-03	2.941290e+00
3.055026e+00	2.446499e-03	9.439098e-01
2.584168e+00	3.075148e-03	6.665272e-02
2.209687e+00	3.666175e-03	-1.981611e-01
1.948363e+00	4.236053e-03	-3.586781e-01
1.760771e+00	4.759657e-03	-4.216830e-01
1.597868e+00	5.245691e-03	-4.693085e-01
1.476940e+00	5.789815e-03	-4.850938e-01
1.371918e+00	6.194433e-03	-4.984066e-01
1.286278e+00	6.533163e-03	-4.958955e-01
1.210919e+00	6.814363e-03	-4.936272e-01
1.146296e+00	7.044077e-03	-4.835444e-01
1.088258e+00	7.241754e-03	-4.749975e-01
1.034929e+00	7.384308e-03	-4.621027e-01
9.854629e-01	7.482521e-03	-4.510186e-01
9.358662e-01	7.531041e-03	-4.358654e-01
8.888548e-01	7.554392e-03	-4.218799e-01
8.396028e-01	7.560815e-03	-4.034445e-01
7.887843e-01	7.556974e-03	-3.832219e-01
7.403518e-01	7.552714e-03	-3.612987e-01
8.163009e-01	-3.305340e-03	-1.437476e-01
8.342407e-01	-3.298543e-03	-1.484166e-01
8.457897e-01	-3.280567e-03	-1.542378e-01
8.513975e-01	-3.246238e-03	-1.594798e-01
8.479624e-01	-3.213657e-03	-1.652414e-01
8.435887e-01	-3.126911e-03	-1.702163e-01
8.304537e-01	-3.004352e-03	-1.755933e-01
8.157070e-01	-2.856382e-03	-1.796424e-01
7.928682e-01	-2.669081e-03	-1.849208e-01
7.674218e-01	-2.434374e-03	-1.888079e-01
7.307332e-01	-2.193041e-03	-1.946649e-01
6.863189e-01	-1.965682e-03	-1.972438e-01
6.244412e-01	-1.650326e-03	-2.006964e-01
5.433111e-01	-1.431095e-03	-1.938065e-01
4.314770e-01	-1.065748e-03	-1.790062e-01
2.694398e-01	-6.873366e-04	-1.289153e-01
2.918764e-02	-2.910000e-04	-1.745150e-02
-3.147891e-01	1.044445e-04	2.413497e-01
-7.499177e-01	5.166752e-04	1.001326e+00
-4.816905e-01	9.410288e-04	3.055392e+00
2.962523e+00	1.396234e-03	2.966757e+00
3.076458e+00	1.798997e-03	9.505316e-01
2.599232e+00	2.195888e-03	6.704126e-02
2.220533e+00	2.566764e-03	-1.991337e-01
1.956484e+00	2.917628e-03	-3.601731e-01
1.767101e+00	3.245130e-03	-4.231988e-01
1.604494e+00	3.659812e-03	-4.712546e-01
1.482596e+00	3.910846e-03	-4.869514e-01
1.375512e+00	4.162765e-03	-4.997123e-01
1.289129e+00	4.383467e-03	-4.969949e-01
1.213170e+00	4.550887e-03	-4.945446e-01
1.147932e+00	4.659590e-03	-4.842345e-01
1.089788e+00	4.757858e-03	-4.756650e-01
1.036446e+00	4.837718e-03	-4.627799e-01
9.865889e-01	4.891575e-03	-4.515340e-01
9.365268e-01	4.964945e-03	-4.361731e-01
8.890391e-01	4.967668e-03	-4.219674e-01
8.396009e-01	4.966129e-03	-4.034435e-01
7.886085e-01	4.962392e-03	-3.831365e-01
7.400576e-01	4.959144e-03	-3.611552e-01
8.158979e-01	-2.029707e-03	-1.436766e-01
8.337488e-01	-2.025657e-03	-1.483291e-01
8.451781e-01	-2.015424e-03	-1.541263e-01
8.513132e-01	-1.996744e-03	-1.594640e-01
8.471377e-01	-1.966515e-03	-1.650807e-01
8.417491e-01	-2.010334e-03	-1.698451e-01
8.283436e-01	-1.887977e-03	-1.751471e-01
8.137291e-01	-1.782970e-03	-1.792068e-01
7.906519e-01	-1.683681e-03	-1.844039e-01
7.649196e-01	-1.542219e-03	-1.881923e-01
7.287788e-01	-1.385809e-03	-1.941442e-01
6.838314e-01	-1.215083e-03	-1.965289e-01
6.209677e-01	-1.015180e-03	-1.995800e-01
5.391532e-01	-7.357679e-04	-1.923233e-01
4.266784e-01	-5.008582e-04	-1.770154e-01
2.642333e-01	-2.940002e-04	-1.264242e-01
2.251206e-02	-5.026256e-05	-1.346013e-02
-3.229337e-01	1.720823e-04	2.475942e-01
-7.588338e-01	4.317320e-04	1.013231e+00
-4.854239e-01	6.884985e-04	3.079073e+00
2.979260e+00	9.834164e-04	2.983518e+00
3.090154e+00	1.233474e-03	9.547633e-01
2.608856e+00	1.473973e-03	6.728949e-02
2.227534e+00	1.732015e-03	-1.997616e-01
1.961965e+00	1.951659e-03	-3.611820e-01
1.773600e+00	2.164878e-03	-4.247554e-01
1.607839e+00	2.362580e-03	-4.722371e-01
1.483921e+00	2.463556e-03	-4.873864e-01
1.378075e+00	2.607863e-03	-5.006436e-01
1.291174e+00	2.744049e-03	-4.977830e-01
1.214379e+00	2.856756e-03	-4.950375e-01
1.148937e+00	2.947058e-03	-4.846586e-01
1.090640e+00	3.045436e-03	-4.760370e-01
1.036866e+00	3.110778e-03	-4.629677e-01
9.874754e-01	3.231442e-03	-4.519397e-01
9.373994e-01	3.222996e-03	-4.365795e-01
8.888942e-01	3.217097e-03	-4.218986e-01
8.394550e-01	3.214175e-03	-4.033734e-01
7.884514e-01	3.210935e-03	-3.830601e-01
7.398544e-01	3.208646e-03	-3.610560e-01
8.156212e-01	-1.104856e-03	-1.436279e-01
8.334092e-01	-1.101814e-03	-1.482686e-01
8.447760e-01	-1.092275e-03	-1.540529e-01
8.501479e-01	-1.099453e-03	-1.592457e-01
8.483730e-01	-1.050657e-03	-1.653214e-01
8.420465e-01	-1.033941e-03	-1.699051e-01
8.269703e-01	-9.988121e-04	-1.748568e-01
8.128086e-01	-9.750628e-04	-1.790041e-01
7.896131e-01	-9.861178e-04	-1.841617e-01
7.635114e-01	-9.093122e-04	-1.878458e-01
7.264572e-01	-8.090237e-04	-1.935258e-01
6.813826e-01	-6.881823e-04	-1.958252e-01
6.178110e-01	-5.766268e-04	-1.985655e-01
5.356260e-01	-3.423850e-04	-1.910651e-01
4.242493e-01	-2.522287e-04	-1.760076e-01
2.611879e-01	-1.240212e-04	-1.249671e-01
1.917118e-02	1.336023e-05	-1.146259e-02
-3.270064e-01	1.555308e-04	2.507168e-01
-7.641886e-01	3.051125e-04	1.020381e+00
-4.876578e-01	4.541676e-04	3.093243e+00
2.989207e+00	6.257193e-04	2.993479e+00
3.097954e+00	7.714582e-04	9.571733e-01
2.615442e+00	9.147201e-04	6.745935e-02
2.232272e+00	1.048501e-03	-2.001865e-01
1.965178e+00	1.176262e-03	-3.617736e-01
1.774133e+00	1.296263e-03	-4.248830e-01
1.608950e+00	1.323486e-03	-4.725635e-01
1.486019e+00	1.435218e-03	-4.880757e-01
1.379169e+00	1.542383e-03	-5.010409e-01
1.292270e+00	1.598893e-03	-4.982056e-01
1.215712e+00	1.662002e-03	-4.955810e-01
1.150335e+00	1.803014e-03	-4.852485e-01
1.091983e+00	1.819132e-03	-4.766233e-01
1.039077e+00	1.855412e-03	-4.639547e-01
9.885185e-01	1.859092e-03	-4.524171e-01
9.362562e-01	1.832208e-03	-4.360471e-01
8.888294e-01	1.841479e-03	-4.218679e-01
8.394152e-01	1.866519e-03	-4.033543e-01
7.883364e-01	1.863759e-03	-3.830042e-01
7.397070e-01	1.862332e-03	-3.609841e-01
8.153874e-01	-1.374990e-03	-1.435867e-01
8.329988e-01	-1.375180e-03	-1.481956e-01
8.452054e-01	-1.376356e-03	-1.541312e-01
8.501040e-01	-1.359802e-03	-1.592375e-01
8.458809e-01	-1.320506e-03	-1.648358e-01
8.408351e-01	-1.275911e-03	-1.696607e-01
8.274466e-01	-1.144148e-03	-1.749575e-01
8.135644e-01	-1.204058e-03	-1.791705e-01
7.897433e-01	-9.826201e-04	-1.841920e-01
7.625938e-01	-1.030858e-03	-1.876200e-01
7.258893e-01	-6.739524e-04	-1.933745e-01
6.807288e-01	-7.625718e-04	-1.956373e-01
6.162135e-01	-3.288341e-04	-1.980520e-01
5.342226e-01	-3.938860e-04	-1.905645e-01
4.231604e-01	6.615700e-05	-1.755558e-01
2.593490e-01	4.066709e-04	-1.240872e-01
1.654807e-02	6.021983e-04	-9.894213e-03
-3.303914e-01	6.503417e-04	2.533120e-01
-7.670800e-01	6.984663e-04	1.024242e+00
-4.888911e-01	7.603391e-04	3.101066e+00
2.994799e+00	8.421676e-04	2.999079e+00
3.102846e+00	9.210682e-04	9.586849e-01
2.617764e+00	1.018072e-03	6.751925e-02
2.234004e+00	1.100373e-03	-2.003418e-01
1.966934e+00	1.035131e-03	-3.620967e-01
1.776024e+00	8.521572e-04	-4.253357e-01
1.610007e+00	5.000660e-04	-4.728739e-01
1.486956e+00	6.325925e-04	-4.883834e-01
1.380197e+00	3.151671e-04	-5.014145e-01
1.292684e+00	4.448151e-04	-4.983654e-01
1.216929e+00	1.505809e-04	-4.960769e-01
1.150971e+00	3.027353e-04	-4.855165e-01
1.091330e+00	4.651876e-05	-4.763381e-01
1.037462e+00	1.081654e-04	-4.632339e-01
9.871369e-01	-1.007539e-04	-4.517848e-01
9.370106e-01	-4.893080e-05	-4.363984e-01
8.896306e-01	-6.725636e-05	-4.222482e-01
8.402940e-01	-7.439213e-05	-4.037766e-01
7.882359e-01	-6.965802e-05	-3.829554e-01
7.396358e-01	-6.863244e-05	-3.609493e-01
8.156532e-01	3.670511e-05	-1.436335e-01
8.334952e-01	1.908253e-05	-1.482839e-01
8.441531e-01	1.749855e-05	-1.539393e-01
8.486907e-01	3.889737e-05	-1.589728e-01
8.466775e-01	3.655666e-05	-1.649910e-01
8.389092e-01	3.546129e-05	-1.692721e-01
8.260082e-01	3.400337e-05	-1.746533e-01
8.103894e-01	3.486046e-05	-1.784713e-01
7.873484e-01	7.774685e-05	-1.836335e-01
7.594340e-01	6.640607e-05	-1.868426e-01
7.229144e-01	5.850061e-05	-1.925820e-01
6.769182e-01	5.774122e-05	-1.945421e-01
6.124622e-01	-2.011970e-06	-1.968464e-01
5.301263e-01	1.346543e-06	-1.891033e-01
4.110792e-01	3.291032e-05	-1.705438e-01
2.510638e-01	5.841932e-07	-1.201231e-01
1.359606e-02	4.112874e-06	-8.129186e-03
-3.294774e-01	6.835726e-06	2.526113e-01
-7.671472e-01	8.229296e-06	1.024332e+00
-4.891929e-01	8.644251e-06	3.102981e+00
2.997167e+00	8.413843e-06	3.001450e+00
3.105856e+00	7.763329e-06	9.596147e-01
2.621162e+00	6.603109e-06	6.760691e-02
2.232270e+00	4.517753e-06	-2.001862e-01
1.959978e+00	3.687555e-05	-3.608162e-01
1.764766e+00	3.292597e-05	-4.226398e-01
1.605977e+00	-1.347871e-06	-4.716903e-01
1.483254e+00	4.960206e-05	-4.871674e-01
1.376836e+00	3.588710e-05	-5.001933e-01
1.290160e+00	2.663140e-05	-4.973921e-01
1.213906e+00	2.104963e-05	-4.948448e-01
1.149108e+00	-2.172936e-05	-4.847307e-01
1.089257e+00	-1.804740e-05	-4.754335e-01
1.037151e+00	-1.890565e-05	-4.630950e-01
9.857328e-01	-1.779217e-05	-4.511421e-01
9.369982e-01	-1.779609e-05	-4.363926e-01
8.882164e-01	-1.664838e-05	-4.215769e-01
8.392734e-01	-3.903297e-05	-4.032862e-01
7.886613e-01	-3.791065e-05	-3.831621e-01
7.398641e-01	-2.038491e-05	-3.610607e-01
8.183449e-01	1.457510e-03	-1.441075e-01
8.337109e-01	1.457871e-03	-1.483223e-01
8.444020e-01	1.459701e-03	-1.539847e-01
8.497062e-01	1.445010e-03	-1.591630e-01
8.459477e-01	1.408275e-03	-1.648488e-01
8.408795e-01	1.453932e-03	-1.696696e-01
8.274542e-01	1.279489e-03	-1.749591e-01
8.129245e-01	1.337469e-03	-1.790296e-01
7.893321e-01	1.066490e-03	-1.840961e-01
7.628462e-01	1.118452e-03	-1.876821e-01
7.260032e-01	7.703036e-04	-1.934048e-01
6.815202e-01	7.845876e-04	-1.958647e-01
6.170258e-01	3.548419e-04	-1.983131e-01
5.337232e-01	4.466096e-04	-1.903864e-01
4.231056e-01	-4.701958e-05	-1.755331e-01
2.599386e-01	-3.864085e-04	-1.243693e-01
1.641243e-02	-5.823758e-04	-9.813113e-03
-3.305025e-01	-6.058572e-04	2.533972e-01
-7.671355e-01	-6.836910e-04	1.024316e+00
-4.888944e-01	-7.459385e-04	3.101087e+00
2.994751e+00	-8.303907e-04	2.999031e+00
3.102762e+00	-8.836367e-04	9.586588e-01
2.617654e+00	-9.801040e-04	6.751642e-02
2.234855e+00	-1.095154e-03	-2.004181e-01
1.967440e+00	-1.034127e-03	-3.621900e-01
1.775334e+00	-8.230853e-04	-4.251707e-01
1.610322e+00	-4.786116e-04	-4.729665e-01
1.487444e+00	-6.472871e-04	-4.885437e-01
1.379899e+00	-3.419171e-04	-5.013060e-01
1.292497e+00	-4.055573e-04	-4.982933e-01
1.216326e+00	-1.254977e-04	-4.958311e-01
1.150461e+00	-2.263670e-04	-4.853014e-01
1.091369e+00	-1.755567e-05	-4.763553e-01
1.037465e+00	-1.248229e-04	-4.632349e-01
9.871558e-01	-2.458822e-05	-4.517934e-01
9.370298e-01	-5.241617e-05	-4.364074e-01
8.892148e-01	-2.298271e-05	-4.220508e-01
8.395108e-01	-1.335296e-05	-4.034003e-01
7.888549e-01	-1.754191e-05	-3.832562e-01
7.423197e-01	-1.851665e-05	-3.622591e-01
8.155926e-01	1.197281e-03	-1.436229e-01
8.333590e-01	1.212025e-03	-1.482597e-01
8.446847e-01	1.204843e-03	-1.540363e-01
8.500359e-01	1.199227e-03	-1.592248e-01
8.463452e-01	1.087922e-03	-1.649263e-01
8.413783e-01	1.063764e-03	-1.697703e-01
8.276260e-01	9.905200e-04	-1.749954e-01
8.135607e-01	9.725156e-04	-1.791697e-01
7.902168e-01	9.474868e-04	-1.843025e-01
7.633473e-01	8.686636e-04	-1.878054e-01
7.273080e-01	7.799794e-04	-1.937524e-01
6.823419e-01	7.095462e-04	-1.961008e-01
6.173941e-01	6.290817e-04	-1.984315e-01
5.356848e-01	4.800116e-04	-1.910861e-01
4.248147e-01	3.454187e-04	-1.762422e-01
2.611728e-01	2.383351e-04	-1.249598e-01
1.871576e-02	8.983083e-05	-1.119029e-02
-3.271010e-01	-6.067551e-05	2.507892e-01
-7.631925e-01	-2.166887e-04	1.019051e+00
-4.876293e-01	-3.709450e-04	3.093063e+00
2.990598e+00	-5.478441e-04	2.994872e+00
3.098880e+00	-6.978725e-04	9.574594e-01
2.614227e+00	-8.450614e-04	6.742803e-02
2.231437e+00	-9.816092e-04	-2.001116e-01
1.965716e+00	-1.145939e-03	-3.618725e-01
1.774444e+00	-1.263696e-03	-4.249575e-01
1.608266e+00	-1.372211e-03	-4.723625e-01
1.485361e+00	-1.502706e-03	-4.878595e-01
1.379893e+00	-1.587142e-03	-5.013040e-01
1.292918e+00	-1.651441e-03	-4.984555e-01
1.216172e+00	-1.704517e-03	-4.957687e-01
1.150409e+00	-1.781145e-03	-4.852794e-01
1.090743e+00	-1.802947e-03	-4.760819e-01
1.036906e+00	-1.808915e-03	-4.629855e-01
9.870250e-01	-1.830906e-03	-4.517336e-01
9.369298e-01	-1.852381e-03	-4.363608e-01
8.891645e-01	-1.770063e-03	-4.220269e-01
8.395190e-01	-1.780528e-03	-4.034042e-01
7.883717e-01	-1.780296e-03	-3.830214e-01
7.397148e-01	-1.796828e-03	-3.609879e-01
8.158704e-01	1.719664e-03	-1.436718e-01
8.336909e-01	1.708768e-03	-1.483188e-01
8.448172e-01	1.585168e-03	-1.540604e-01
8.529404e-01	1.678042e-03	-1.597688e-01
8.485077e-01	1.705718e-03	-1.653477e-01
8.426133e-01	1.715404e-03	-1.700195e-01
8.288162e-01	1.674569e-03	-1.752470e-01
8.135387e-01	1.612463e-03	-1.791649e-01
7.907454e-01	1.542541e-03	-1.844257e-01
7.650453e-01	1.422265e-03	-1.882232e-01
7.280850e-01	1.276011e-03	-1.939594e-01
6.835305e-01	1.192212e-03	-1.964425e-01
6.201873e-01	9.866992e-04	-1.993292e-01
5.379545e-01	7.893863e-04	-1.918957e-01