# vtk DataFile Version 2.0
OUTPUT by 3D-VPM
ASCII
DATASET UNSTRUCTURED_GRID
POINTS 820 double
9.510565e-01	0.000000e+00	-3.090170e-01
9.442611e-01	0.000000e+00	-3.078203e-01
9.267277e-01	0.000000e+00	-3.047010e-01
8.963175e-01	0.000000e+00	-2.991555e-01
8.562911e-01	0.000000e+00	-2.916579e-01
8.054250e-01	0.000000e+00	-2.817457e-01
7.470317e-01	0.000000e+00	-2.699633e-01
6.809074e-01	0.000000e+00	-2.559818e-01
6.100852e-01	0.000000e+00	-2.403847e-01
5.354138e-01	0.000000e+00	-2.229691e-01
4.593635e-01	0.000000e+00	-2.042585e-01
3.837764e-01	0.000000e+00	-1.841224e-01
3.103069e-01	0.000000e+00	-1.630077e-01
2.415927e-01	0.000000e+00	-1.409228e-01
1.782654e-01	0.000000e+00	-1.183331e-01
1.234349e-01	0.000000e+00	-9.558566e-02
7.662509e-02	0.000000e+00	-7.318920e-02
4.106998e-02	0.000000e+00	-5.193053e-02
1.528206e-02	0.000000e+00	-3.215886e-02
2.347037e-03	0.000000e+00	-1.488740e-02
0.000000e+00	0.000000e+00	0.000000e+00
1.064939e-02	0.000000e+00	1.066461e-02
3.126595e-02	0.000000e+00	1.703450e-02
6.375031e-02	0.000000e+00	1.787236e-02
1.050105e-01	0.000000e+00	1.417221e-02
1.560448e-01	0.000000e+00	4.777214e-03
2.137742e-01	0.000000e+00	-9.048270e-03
2.782849e-01	0.000000e+00	-2.799567e-02
3.468570e-01	0.000000e+00	-5.051783e-02
4.187060e-01	0.000000e+00	-7.662000e-02
4.916930e-01	0.000000e+00	-1.047585e-01
5.642168e-01	0.000000e+00	-1.343226e-01
6.348639e-01	0.000000e+00	-1.641238e-01
7.013280e-01	0.000000e+00	-1.931337e-01
7.630418e-01	0.000000e+00	-2.206893e-01
8.172084e-01	0.000000e+00	-2.454799e-01
8.641863e-01	0.000000e+00	-2.673591e-01
9.009752e-01	0.000000e+00	-2.848204e-01
9.288372e-01	0.000000e+00	-2.982085e-01
9.448555e-01	0.000000e+00	-3.059908e-01
9.510565e-01	0.000000e+00	-3.090170e-01
9.510565e-01	1.052632e+00	-3.090170e-01
9.442611e-01	1.052632e+00	-3.078203e-01
9.267277e-01	1.052632e+00	-3.047010e-01
8.963175e-01	1.052632e+00	-2.991555e-01
8.562911e-01	1.052632e+00	-2.916579e-01
8.054250e-01	1.052632e+00	-2.817457e-01
7.470317e-01	1.052632e+00	-2.699633e-01
6.809074e-01	1.052632e+00	-2.559818e-01
6.100852e-01	1.052632e+00	-2.403847e-01
5.354138e-01	1.052632e+00	-2.229691e-01
4.593635e-01	1.052632e+00	-2.042585e-01
3.837764e-01	1.052632e+00	-1.841224e-01
3.103069e-01	1.052632e+00	-1.630077e-01
2.415927e-01	1.052632e+00	-1.409228e-01
1.782654e-01	1.052632e+00	-1.183331e-01
1.234349e-01	1.052632e+00	-9.558566e-02
7.662509e-02	1.052632e+00	-7.318920e-02
4.106998e-02	1.052632e+00	-5.193053e-02
1.528206e-02	1.052632e+00	-3.215886e-02
2.347037e-03	1.052632e+00	-1.488740e-02
0.000000e+00	1.052632e+00	0.000000e+00
1.064939e-02	1.052632e+00	1.066461e-02
3.126595e-02	1.052632e+00	1.703450e-02
6.375031e-02	1.052632e+00	1.787236e-02
1.050105e-01	1.052632e+00	1.417221e-02
1.560448e-01	1.052632e+00	4.777214e-03
2.137742e-01	1.052632e+00	-9.048270e-03
2.782849e-01	1.052632e+00	-2.799567e-02
3.468570e-01	1.052632e+00	-5.051783e-02
4.187060e-01	1.052632e+00	-7.662000e-02
4.916930e-01	1.052632e+00	-1.047585e-01
5.642168e-01	1.052632e+00	-1.343226e-01
6.348639e-01	1.052632e+00	-1.641238e-01
7.013280e-01	1.052632e+00	-1.931337e-01
7.630418e-01	1.052632e+00	-2.206893e-01
8.172084e-01	1.052632e+00	-2.454799e-01
8.641863e-01	1.052632e+00	-2.673591e-01
9.009752e-01	1.052632e+00	-2.848204e-01
9.288372e-01	1.052632e+00	-2.982085e-01
9.448555e-01	1.052632e+00	-3.059908e-01
9.510565e-01	1.052632e+00	-3.090170e-01
9.510565e-01	2.105263e+00	-3.090170e-01
9.442611e-01	2.105263e+00	-3.078203e-01
9.267277e-01	2.105263e+00	-3.047010e-01
8.963175e-01	2.105263e+00	-2.991555e-01
8.562911e-01	2.105263e+00	-2.916579e-01
8.054250e-01	2.105263e+00	-2.817457e-01
7.470317e-01	2.105263e+00	-2.699633e-01
6.809074e-01	2.105263e+00	-2.559818e-01
6.100852e-01	2.105263e+00	-2.403847e-01
5.354138e-01	2.105263e+00	-2.229691e-01
4.593635e-01	2.105263e+00	-2.042585e-01
3.837764e-01	2.105263e+00	-1.841224e-01
3.103069e-01	2.105263e+00	-1.630077e-01
2.415927e-01	2.105263e+00	-1.409228e-01
1.782654e-01	2.105263e+00	-1.183331e-01
1.234349e-01	2.105263e+00	-9.558566e-02
7.662509e-02	2.105263e+00	-7.318920e-02
4.106998e-02	2.105263e+00	-5.193053e-02
1.528206e-02	2.105263e+00	-3.215886e-02
2.347037e-03	2.105263e+00	-1.488740e-02
0.000000e+00	2.105263e+00	0.000000e+00
1.064939e-02	2.105263e+00	1.066461e-02
3.126595e-02	2.105263e+00	1.703450e-02
6.375031e-02	2.105263e+00	1.787236e-02
1.050105e-01	2.105263e+00	1.417221e-02
1.560448e-01	2.105263e+00	4.777214e-03
2.137742e-01	2.105263e+00	-9.048270e-03
2.782849e-01	2.105263e+00	-2.799567e-02
3.468570e-01	2.105263e+00	-5.051783e-02
4.187060e-01	2.105263e+00	-7.662000e-02
4.916930e-01	2.105263e+00	-1.047585e-01
5.642168e-01	2.105263e+00	-1.343226e-01
6.348639e-01	2.105263e+00	-1.641238e-01
7.013280e-01	2.105263e+00	-1.931337e-01
7.630418e-01	2.105263e+00	-2.206893e-01
8.172084e-01	2.105263e+00	-2.454799e-01
8.641863e-01	2.105263e+00	-2.673591e-01
9.009752e-01	2.105263e+00	-2.848204e-01
9.288372e-01	2.105263e+00	-2.982085e-01
9.448555e-01	2.105263e+00	-3.059908e-01
9.510565e-01	2.105263e+00	-3.090170e-01
9.510565e-01	3.157895e+00	-3.090170e-01
9.442611e-01	3.157895e+00	-3.078203e-01
9.267277e-01	3.157895e+00	-3.047010e-01
8.963175e-01	3.157895e+00	-2.991555e-01
8.562911e-01	3.157895e+00	-2.916579e-01
8.054250e-01	3.157895e+00	-2.817457e-01
7.470317e-01	3.157895e+00	-2.699633e-01
6.809074e-01	3.157895e+00	-2.559818e-01
6.100852e-01	3.157895e+00	-2.403847e-01
5.354138e-01	3.157895e+00	-2.229691e-01
4.593635e-01	3.157895e+00	-2.042585e-01
3.837764e-01	3.157895e+00	-1.841224e-01
3.103069e-01	3.157895e+00	-1.630077e-01
2.415927e-01	3.157895e+00	-1.409228e-01
1.782654e-01	3.157895e+00	-1.183331e-01
1.234349e-01	3.157895e+00	-9.558566e-02
7.662509e-02	3.157895e+00	-7.318920e-02
4.106998e-02	3.157895e+00	-5.193053e-02
1.528206e-02	3.157895e+00	-3.215886e-02
2.347037e-03	3.157895e+00	-1.488740e-02
0.000000e+00	3.157895e+00	0.000000e+00
1.064939e-02	3.157895e+00	1.066461e-02
3.126595e-02	3.157895e+00	1.703450e-02
6.375031e-02	3.157895e+00	1.787236e-02
1.050105e-01	3.157895e+00	1.417221e-02
1.560448e-01	3.157895e+00	4.777214e-03
2.137742e-01	3.157895e+00	-9.048270e-03
2.782849e-01	3.157895e+00	-2.799567e-02
3.468570e-01	3.157895e+00	-5.051783e-02
4.187060e-01	3.157895e+00	-7.662000e-02
4.916930e-01	3.157895e+00	-1.047585e-01
5.642168e-01	3.157895e+00	-1.343226e-01
6.348639e-01	3.157895e+00	-1.641238e-01
7.013280e-01	3.157895e+00	-1.931337e-01
7.630418e-01	3.157895e+00	-2.206893e-01
8.172084e-01	3.157895e+00	-2.454799e-01
8.641863e-01	3.157895e+00	-2.673591e-01
9.009752e-01	3.157895e+00	-2.848204e-01
9.288372e-01	3.157895e+00	-2.982085e-01
9.448555e-01	3.157895e+00	-3.059908e-01
9.510565e-01	3.157895e+00	-3.090170e-01
9.510565e-01	4.210526e+00	-3.090170e-01
9.442611e-01	4.210526e+00	-3.078203e-01
9.267277e-01	4.210526e+00	-3.047010e-01
8.963175e-01	4.210526e+00	-2.991555e-01
8.562911e-01	4.210526e+00	-2.916579e-01
8.054250e-01	4.210526e+00	-2.817457e-01
7.470317e-01	4.210526e+00	-2.699633e-01
6.809074e-01	4.210526e+00	-2.559818e-01
6.100852e-01	4.210526e+00	-2.403847e-01
5.354138e-01	4.210526e+00	-2.229691e-01
4.593635e-01	4.210526e+00	-2.042585e-01
3.837764e-01	4.210526e+00	-1.841224e-01
3.103069e-01	4.210526e+00	-1.630077e-01
2.415927e-01	4.210526e+00	-1.409228e-01
1.782654e-01	4.210526e+00	-1.183331e-01
1.234349e-01	4.210526e+00	-9.558566e-02
7.662509e-02	4.210526e+00	-7.318920e-02
4.106998e-02	4.210526e+00	-5.193053e-02
1.528206e-02	4.210526e+00	-3.215886e-02
2.347037e-03	4.210526e+00	-1.488740e-02
0.000000e+00	4.210526e+00	0.000000e+00
1.064939e-02	4.210526e+00	1.066461e-02
3.126595e-02	4.210526e+00	1.703450e-02
6.375031e-02	4.210526e+00	1.787236e-02
1.050105e-01	4.210526e+00	1.417221e-02
1.560448e-01	4.210526e+00	4.777214e-03
2.137742e-01	4.210526e+00	-9.048270e-03
2.782849e-01	4.210526e+00	-2.799567e-02
3.468570e-01	4.210526e+00	-5.051783e-02
4.187060e-01	4.210526e+00	-7.662000e-02
4.916930e-01	4.210526e+00	-1.047585e-01
5.642168e-01	4.210526e+00	-1.343226e-01
6.348639e-01	4.210526e+00	-1.641238e-01
7.013280e-01	4.210526e+00	-1.931337e-01
7.630418e-01	4.210526e+00	-2.206893e-01
8.172084e-01	4.210526e+00	-2.454799e-01
8.641863e-01	4.210526e+00	-2.673591e-01
9.009752e-01	4.210526e+00	-2.848204e-01
9.288372e-01	4.210526e+00	-2.982085e-01
9.448555e-01	4.210526e+00	-3.059908e-01
9.510565e-01	4.210526e+00	-3.090170e-01
9.510565e-01	5.263158e+00	-3.090170e-01
9.442611e-01	5.263158e+00	-3.078203e-01
9.267277e-01	5.263158e+00	-3.047010e-01
8.963175e-01	5.263158e+00	-2.991555e-01
8.562911e-01	5.263158e+00	-2.916579e-01
8.054250e-01	5.263158e+00	-2.817457e-01
7.470317e-01	5.263158e+00	-2.699633e-01
6.809074e-01	5.263158e+00	-2.559818e-01
6.100852e-01	5.263158e+00	-2.403847e-01
5.354138e-01	5.263158e+00	-2.229691e-01
4.593635e-01	5.263158e+00	-2.042585e-01
3.837764e-01	5.263158e+00	-1.841224e-01
3.103069e-01	5.263158e+00	-1.630077e-01
2.415927e-01	5.263158e+00	-1.409228e-01
1.782654e-01	5.263158e+00	-1.183331e-01
1.234349e-01	5.263158e+00	-9.558566e-02
7.662509e-02	5.263158e+00	-7.318920e-02
4.106998e-02	5.263158e+00	-5.193053e-02
1.528206e-02	5.263158e+00	-3.215886e-02
2.347037e-03	5.263158e+00	-1.488740e-02
0.000000e+00	5.263158e+00	0.000000e+00
1.064939e-02	5.263158e+00	1.066461e-02
3.126595e-02	5.263158e+00	1.703450e-02
6.375031e-02	5.263158e+00	1.787236e-02
1.050105e-01	5.263158e+00	1.417221e-02
1.560448e-01	5.263158e+00	4.777214e-03
2.137742e-01	5.263158e+00	-9.048270e-03
2.782849e-01	5.263158e+00	-2.799567e-02
3.468570e-01	5.263158e+00	-5.051783e-02
4.187060e-01	5.263158e+00	-7.662000e-02
4.916930e-01	5.263158e+00	-1.047585e-01
5.642168e-01	5.263158e+00	-1.343226e-01
6.348639e-01	5.263158e+00	-1.641238e-01
7.013280e-01	5.263158e+00	-1.931337e-01
7.630418e-01	5.263158e+00	-2.206893e-01
8.172084e-01	5.263158e+00	-2.454799e-01
8.641863e-01	5.263158e+00	-2.673591e-01
9.009752e-01	5.263158e+00	-2.848204e-01
9.288372e-01	5.263158e+00	-2.982085e-01
9.448555e-01	5.263158e+00	-3.059908e-01
9.510565e-01	5.263158e+00	-3.090170e-01
9.510565e-01	6.315789e+00	-3.090170e-01
9.442611e-01	6.315789e+00	-3.078203e-01
[...]
CELL_DATA 760
VECTORS V double
8.414275e-01	-6.902842e-02	-1.481723e-01
8.655495e-01	-6.885484e-02	-1.539866e-01
8.835657e-01	-6.840509e-02	-1.611266e-01
8.953330e-01	-6.761071e-02	-1.677096e-01
8.977995e-01	-6.644981e-02	-1.749531e-01
8.991137e-01	-6.490476e-02	-1.814199e-01
8.920776e-01	-6.296524e-02	-1.886232e-01
8.847689e-01	-6.060719e-02	-1.948518e-01
8.704364e-01	-5.780215e-02	-2.030121e-01
8.547982e-01	-5.451757e-02	-2.103050e-01
8.294954e-01	-5.072796e-02	-2.209748e-01
7.985760e-01	-4.641914e-02	-2.295058e-01
7.512297e-01	-4.162407e-02	-2.414464e-01
6.892092e-01	-3.639391e-02	-2.458503e-01
6.025635e-01	-3.076659e-02	-2.499846e-01
4.718934e-01	-2.486489e-02	-2.257805e-01
2.701915e-01	-1.869680e-02	-1.615495e-01
-1.736933e-02	-1.242833e-02	1.331711e-02
-4.217524e-01	-5.860932e-03	5.631440e-01
-3.426731e-01	7.192881e-04	2.173596e+00
2.326960e+00	8.432074e-03	2.330285e+00
2.541648e+00	1.519657e-02	7.852919e-01
2.210522e+00	2.214253e-02	5.701537e-02
1.925505e+00	2.898969e-02	-1.726761e-01
1.720169e+00	3.597903e-02	-3.166694e-01
1.570393e+00	4.294545e-02	-3.760898e-01
1.435545e+00	4.988328e-02	-4.216328e-01
1.336732e+00	5.661401e-02	-4.390429e-01
1.250637e+00	6.301948e-02	-4.543462e-01
1.181697e+00	6.890183e-02	-4.555769e-01
1.121869e+00	7.414559e-02	-4.573264e-01
1.071614e+00	7.861366e-02	-4.520410e-01
1.027475e+00	8.224382e-02	-4.484671e-01
9.872014e-01	8.502841e-02	-4.407920e-01
9.499809e-01	8.701879e-02	-4.347795e-01
9.115294e-01	8.831290e-02	-4.245310e-01
8.743628e-01	8.903903e-02	-4.150016e-01
8.341889e-01	8.934624e-02	-4.008430e-01
7.910608e-01	8.939015e-02	-3.843279e-01
7.483098e-01	8.934447e-02	-3.651823e-01
8.268619e-01	-4.834031e-02	-1.456074e-01
8.473512e-01	-4.821601e-02	-1.507490e-01
8.618154e-01	-4.789750e-02	-1.571602e-01
8.705034e-01	-4.733371e-02	-1.630586e-01
8.702569e-01	-4.650202e-02	-1.695859e-01
8.688750e-01	-4.538358e-02	-1.753184e-01
8.588783e-01	-4.396775e-02	-1.816035e-01
8.480113e-01	-4.223951e-02	-1.867567e-01
8.293439e-01	-4.018406e-02	-1.934281e-01
8.083590e-01	-3.778624e-02	-1.988796e-01
7.765748e-01	-3.501630e-02	-2.068769e-01
7.379191e-01	-3.192467e-02	-2.120734e-01
6.816192e-01	-2.848875e-02	-2.190735e-01
6.085729e-01	-2.476360e-02	-2.170863e-01
5.087796e-01	-2.077516e-02	-2.110766e-01
3.607873e-01	-1.660647e-02	-1.726211e-01
1.373899e-01	-1.225932e-02	-8.214644e-02
-1.814791e-01	-7.847087e-03	1.391405e-01
-6.031730e-01	-3.229932e-03	8.053854e-01
-4.198350e-01	1.389256e-03	2.663039e+00
2.682454e+00	6.789059e-03	2.686287e+00
2.844063e+00	1.150479e-02	8.787286e-01
2.433241e+00	1.631859e-02	6.275989e-02
2.097329e+00	2.102757e-02	-1.880850e-01
1.860483e+00	2.579044e-02	-3.425000e-01
1.689646e+00	3.048753e-02	-4.046493e-01
1.539063e+00	3.511304e-02	-4.520370e-01
1.427809e+00	3.954884e-02	-4.689568e-01
1.330719e+00	4.372306e-02	-4.834395e-01
1.251905e+00	4.752808e-02	-4.826438e-01
1.182670e+00	5.085357e-02	-4.821115e-01
1.123339e+00	5.367077e-02	-4.738606e-01
1.070394e+00	5.592996e-02	-4.672001e-01
1.021743e+00	5.763557e-02	-4.562150e-01
9.765916e-01	5.882885e-02	-4.469585e-01
9.307617e-01	5.958064e-02	-4.334881e-01
8.867507e-01	5.997933e-02	-4.208813e-01
8.402939e-01	6.012571e-02	-4.037766e-01
7.917021e-01	6.012206e-02	-3.846394e-01
7.448116e-01	6.007876e-02	-3.634752e-01
8.205668e-01	-2.040987e-02	-1.444988e-01
8.397266e-01	-2.035804e-02	-1.493925e-01
8.527110e-01	-2.022769e-02	-1.555000e-01
8.598712e-01	-1.999168e-02	-1.610671e-01
8.580822e-01	-1.963309e-02	-1.672135e-01
8.551175e-01	-1.913526e-02	-1.725425e-01
8.434961e-01	-1.848843e-02	-1.783510e-01
8.308946e-01	-1.768728e-02	-1.829871e-01
8.103376e-01	-1.670468e-02	-1.889952e-01
7.869495e-01	-1.558451e-02	-1.936122e-01
7.528843e-01	-1.431249e-02	-2.005659e-01
7.115918e-01	-1.290344e-02	-2.045071e-01
6.517738e-01	-1.134737e-02	-2.094812e-01
5.746212e-01	-9.680481e-03	-2.049752e-01
4.698391e-01	-7.912834e-03	-1.949214e-01
3.150962e-01	-6.076910e-03	-1.507599e-01
8.310655e-02	-4.169432e-03	-4.969002e-02
-2.482772e-01	-2.238314e-03	1.903549e-01
-6.766917e-01	-2.227057e-04	9.035511e-01
-4.508752e-01	1.785478e-03	2.859929e+00
2.823552e+00	4.114476e-03	2.827587e+00
2.961785e+00	6.122360e-03	9.151013e-01
2.517862e+00	8.135742e-03	6.494252e-02
2.160626e+00	1.005949e-02	-1.937614e-01
1.910304e+00	1.194985e-02	-3.516717e-01
1.730250e+00	1.375325e-02	-4.143734e-01
1.572757e+00	1.546512e-02	-4.619333e-01
1.456102e+00	1.704484e-02	-4.782495e-01
1.354634e+00	1.847488e-02	-4.921275e-01
1.271681e+00	1.974083e-02	-4.902682e-01
1.198783e+00	2.080602e-02	-4.886798e-01
1.136470e+00	2.166627e-02	-4.793996e-01
1.080542e+00	2.230327e-02	-4.716296e-01
1.029163e+00	2.277484e-02	-4.595280e-01
9.815293e-01	2.307690e-02	-4.492183e-01
9.334851e-01	2.324154e-02	-4.347565e-01
8.875225e-01	2.330401e-02	-4.212476e-01
8.394014e-01	2.330177e-02	-4.033477e-01
7.894775e-01	2.327132e-02	-3.835586e-01
7.416777e-01	2.324452e-02	-3.619458e-01
8.181634e-01	-1.021903e-02	-1.440756e-01
8.367500e-01	-1.019799e-02	-1.488630e-01
8.489791e-01	-1.014171e-02	-1.548194e-01
8.553670e-01	-1.003591e-02	-1.602234e-01
8.527898e-01	-9.870746e-03	-1.661821e-01
8.489863e-01	-9.622892e-03	-1.713054e-01
8.364966e-01	-9.310245e-03	-1.768710e-01
8.226012e-01	-8.912829e-03	-1.811607e-01
8.009724e-01	-8.439554e-03	-1.868110e-01
7.769527e-01	-7.875729e-03	-1.911527e-01
7.415322e-01	-7.236395e-03	-1.975417e-01
6.984043e-01	-6.498921e-03	-2.007171e-01
6.368489e-01	-5.693493e-03	-2.046843e-01
5.575398e-01	-4.817412e-03	-1.988821e-01
4.501340e-01	-3.882717e-03	-1.867464e-01
2.918510e-01	-2.906840e-03	-1.396380e-01
5.539216e-02	-1.893085e-03	-3.311938e-02
-2.824294e-01	-8.595769e-04	2.165395e-01
-7.142836e-01	2.204371e-04	9.537456e-01
-4.667082e-01	1.280452e-03	2.960358e+00
2.895117e+00	2.538937e-03	2.899255e+00
3.021029e+00	3.602487e-03	9.334057e-01
2.560068e+00	4.661451e-03	6.603112e-02
2.191849e+00	5.664374e-03	-1.965614e-01
1.934615e+00	6.643842e-03	-3.561471e-01
1.749851e+00	7.563819e-03	-4.190678e-01
1.588860e+00	8.428122e-03	-4.666628e-01
1.469511e+00	9.225075e-03	-4.826536e-01
1.365847e+00	9.933732e-03	-4.962011e-01
1.281319e+00	1.055276e-02	-4.939839e-01
1.206781e+00	1.109123e-02	-4.919405e-01
1.142483e+00	1.152255e-02	-4.819358e-01
1.085236e+00	1.186064e-02	-4.736784e-01
1.032964e+00	1.209880e-02	-4.612252e-01
9.841946e-01	1.225888e-02	-4.504381e-01
9.351516e-01	1.233988e-02	-4.355326e-01
8.883118e-01	1.238384e-02	-4.216222e-01
8.394626e-01	1.239404e-02	-4.033771e-01
7.889787e-01	1.238721e-02	-3.833163e-01
7.407084e-01	1.237855e-02	-3.614727e-01
8.170359e-01	-5.650926e-03	-1.438770e-01
8.351954e-01	-5.639809e-03	-1.485864e-01
8.470146e-01	-5.608314e-03	-1.544612e-01
8.529623e-01	-5.548956e-03	-1.597729e-01
8.496296e-01	-5.452797e-03	-1.655663e-01
8.453880e-01	-5.312549e-03	-1.705793e-01
8.325138e-01	-5.141245e-03	-1.760289e-01
8.184970e-01	-4.921611e-03	-1.802568e-01
7.963388e-01	-4.656767e-03	-1.857303e-01
7.711536e-01	-4.321081e-03	-1.897260e-01
7.348911e-01	-3.930290e-03	-1.957725e-01
6.910280e-01	-3.494107e-03	-1.985972e-01
6.284216e-01	-3.022716e-03	-2.019757e-01
5.477192e-01	-2.602508e-03	-1.953789e-01
4.387511e-01	-2.059359e-03	-1.820240e-01
2.784560e-01	-1.451988e-03	-1.332291e-01
3.939192e-02	-8.427538e-04	-2.355272e-02
-3.023323e-01	-2.233615e-04	2.317990e-01
-7.358759e-01	4.242320e-04	9.825767e-01
-4.758801e-01	1.068686e-03	3.018536e+00
2.937215e+00	1.811678e-03	2.941412e+00
3.055124e+00	2.446234e-03	9.439403e-01
2.584235e+00	3.074436e-03	6.665445e-02
2.209735e+00	3.665020e-03	-1.981654e-01
1.948399e+00	4.234443e-03	-3.586846e-01
1.760799e+00	4.757590e-03	-4.216895e-01
1.597889e+00	5.243170e-03	-4.693147e-01
1.476957e+00	5.786851e-03	-4.850992e-01
1.371931e+00	6.191034e-03	-4.984114e-01
1.286288e+00	6.529346e-03	-4.958995e-01
1.210927e+00	6.810168e-03	-4.936305e-01
1.146302e+00	7.039550e-03	-4.835471e-01
1.088263e+00	7.236977e-03	-4.749996e-01
1.034933e+00	7.379354e-03	-4.621043e-01
9.854652e-01	7.477451e-03	-4.510197e-01
9.358675e-01	7.525908e-03	-4.358660e-01
8.888554e-01	7.549236e-03	-4.218802e-01
8.396027e-01	7.555656e-03	-4.034444e-01
7.887836e-01	7.551813e-03	-3.832215e-01
7.403506e-01	7.547555e-03	-3.612982e-01
8.162976e-01	-3.274253e-03	-1.437470e-01
8.342368e-01	-3.267240e-03	-1.484159e-01
8.457854e-01	-3.248389e-03	-1.542370e-01
8.513931e-01	-3.212005e-03	-1.594790e-01
8.479577e-01	-3.150396e-03	-1.652405e-01
8.435839e-01	-3.097868e-03	-1.702153e-01
8.304489e-01	-2.980860e-03	-1.755923e-01
8.157015e-01	-2.837112e-03	-1.796412e-01
7.928616e-01	-2.653094e-03	-1.849193e-01
7.674144e-01	-2.421001e-03	-1.888060e-01
7.307236e-01	-2.181846e-03	-1.946623e-01
6.863068e-01	-1.956338e-03	-1.972404e-01
6.244272e-01	-1.642519e-03	-2.006919e-01
5.432936e-01	-1.424640e-03	-1.938002e-01
4.314547e-01	-1.060470e-03	-1.789969e-01
2.694119e-01	-6.831226e-04	-1.289019e-01
2.915343e-02	-2.877833e-04	-1.743105e-02
-3.148323e-01	1.067548e-04	2.413828e-01
-7.499657e-01	5.180882e-04	1.001390e+00
-4.817106e-01	9.415711e-04	3.055519e+00
2.962611e+00	1.395767e-03	2.966845e+00
3.076527e+00	1.797634e-03	9.505529e-01
2.599278e+00	2.193578e-03	6.704244e-02
2.220564e+00	2.563507e-03	-1.991365e-01
1.956506e+00	2.913306e-03	-3.601770e-01
1.767115e+00	3.239623e-03	-4.232023e-01
1.604504e+00	3.652987e-03	-4.712577e-01
1.482603e+00	3.902479e-03	-4.869537e-01
1.375516e+00	4.152619e-03	-4.997138e-01
1.289131e+00	4.371223e-03	-4.969957e-01
1.213170e+00	4.536115e-03	-4.945449e-01
1.147932e+00	4.641721e-03	-4.842345e-01
1.089787e+00	4.736184e-03	-4.756649e-01
1.036446e+00	4.811056e-03	-4.627800e-01
9.865889e-01	4.857038e-03	-4.515340e-01
9.365269e-01	4.918510e-03	-4.361731e-01
8.890391e-01	4.927608e-03	-4.219674e-01
8.396005e-01	4.929502e-03	-4.034434e-01
7.886075e-01	4.926556e-03	-3.831360e-01
7.400562e-01	4.923451e-03	-3.611545e-01
8.158590e-01	-2.025935e-03	-1.436698e-01
8.336789e-01	-2.021909e-03	-1.483166e-01
8.450692e-01	-2.011735e-03	-1.541064e-01
8.504518e-01	-1.993147e-03	-1.593027e-01
8.473531e-01	-1.963038e-03	-1.651227e-01
8.423941e-01	-2.007000e-03	-1.699752e-01
8.284840e-01	-1.884776e-03	-1.751768e-01
8.138248e-01	-1.779919e-03	-1.792279e-01
7.907190e-01	-1.680797e-03	-1.844196e-01
7.649683e-01	-1.539490e-03	-1.882042e-01
7.288148e-01	-1.383213e-03	-1.941538e-01
6.838571e-01	-1.212702e-03	-1.965363e-01
6.209850e-01	-1.012977e-03	-1.995856e-01
5.391636e-01	-7.337673e-04	-1.923270e-01
4.266825e-01	-4.990661e-04	-1.770171e-01
2.642319e-01	-2.924446e-04	-1.264235e-01
2.250497e-02	-4.892944e-05	-1.345589e-02
-3.229469e-01	1.732029e-04	2.476043e-01
-7.588507e-01	4.326262e-04	1.013254e+00
-4.854312e-01	6.891687e-04	3.079119e+00
2.979289e+00	9.838277e-04	2.983547e+00
3.090171e+00	1.233661e-03	9.547686e-01
2.608862e+00	1.473904e-03	6.728964e-02
2.227531e+00	1.731747e-03	-1.997613e-01
1.961955e+00	1.951171e-03	-3.611802e-01
1.773585e+00	2.164191e-03	-4.247516e-01
1.607817e+00	2.361666e-03	-4.722305e-01
1.483891e+00	2.462444e-03	-4.873767e-01
1.378038e+00	2.606542e-03	-5.006299e-01
1.291125e+00	2.742552e-03	-4.977645e-01
1.214316e+00	2.855101e-03	-4.950121e-01
1.148856e+00	2.945259e-03	-4.846242e-01
1.090528e+00	3.043518e-03	-4.759881e-01
1.036687e+00	3.108737e-03	-4.628877e-01
9.871660e-01	3.229288e-03	-4.517981e-01
9.372669e-01	3.220739e-03	-4.365178e-01
8.891269e-01	3.214763e-03	-4.220091e-01
8.395987e-01	3.211799e-03	-4.034425e-01
7.885041e-01	3.208549e-03	-3.830857e-01
7.398752e-01	3.206264e-03	-3.610661e-01
8.156218e-01	-1.127377e-03	-1.436280e-01
8.334100e-01	-1.124545e-03	-1.482688e-01
8.447770e-01	-1.115861e-03	-1.540531e-01
8.501487e-01	-1.125075e-03	-1.592459e-01
8.483736e-01	-1.105245e-03	-1.653216e-01
8.420465e-01	-1.054224e-03	-1.699051e-01
8.269698e-01	-1.013390e-03	-1.748567e-01
8.128076e-01	-9.852087e-04	-1.790038e-01
7.896108e-01	-9.926019e-04	-1.841611e-01
7.635078e-01	-9.127178e-04	-1.878449e-01
7.264522e-01	-8.099343e-04	-1.935244e-01
6.813758e-01	-6.551653e-04	-1.958232e-01
6.178023e-01	-5.753734e-04	-1.985627e-01
5.356147e-01	-3.410080e-04	-1.910610e-01
4.242342e-01	-2.509991e-04	-1.760014e-01
2.611685e-01	-1.229001e-04	-1.249578e-01
1.914630e-02	1.438883e-05	-1.144771e-02
-3.270384e-01	1.564849e-04	2.507413e-01
-7.642242e-01	3.060138e-04	1.020429e+00
-4.876727e-01	4.550314e-04	3.093337e+00
2.989271e+00	6.265469e-04	2.993543e+00
3.098001e+00	7.722513e-04	9.571879e-01
2.615473e+00	9.154624e-04	6.746016e-02
2.232292e+00	1.049144e-03	-2.001883e-01
1.965191e+00	1.176713e-03	-3.617760e-01
1.774140e+00	1.296388e-03	-4.248848e-01
1.608954e+00	1.322892e-03	-4.725647e-01
1.486021e+00	1.433197e-03	-4.880761e-01
1.379168e+00	1.539724e-03	-5.010405e-01
1.292267e+00	1.599686e-03	-4.982048e-01
1.215709e+00	1.667444e-03	-4.955797e-01
1.150332e+00	1.812615e-03	-4.852470e-01
1.091980e+00	1.833045e-03	-4.766218e-01
1.039074e+00	1.874633e-03	-4.639533e-01
9.885150e-01	1.886364e-03	-4.524155e-01
9.362529e-01	1.871499e-03	-4.360455e-01
8.888266e-01	1.874462e-03	-4.218665e-01
8.394131e-01	1.896125e-03	-4.033533e-01
7.883349e-01	1.892588e-03	-3.830035e-01
7.397062e-01	1.891020e-03	-3.609837e-01
8.153838e-01	-1.359969e-03	-1.435861e-01
8.329940e-01	-1.360019e-03	-1.481948e-01
8.452000e-01	-1.360693e-03	-1.541303e-01
8.500967e-01	-1.342903e-03	-1.592362e-01
8.458715e-01	-1.301498e-03	-1.648340e-01
8.408233e-01	-1.224314e-03	-1.696583e-01
8.274322e-01	-1.128205e-03	-1.749544e-01
8.135455e-01	-1.192056e-03	-1.791664e-01
7.897198e-01	-9.735540e-04	-1.841865e-01
7.625693e-01	-1.023950e-03	-1.876140e-01
7.254515e-01	-6.686420e-04	-1.932579e-01
6.807081e-01	-7.584379e-04	-1.956313e-01
6.166849e-01	-3.256022e-04	-1.982035e-01
5.342331e-01	-3.913298e-04	-1.905682e-01
4.231687e-01	6.816739e-05	-1.755593e-01
2.593514e-01	4.082829e-04	-1.240884e-01
1.654459e-02	6.034873e-04	-9.892133e-03
-3.304013e-01	6.513574e-04	2.533196e-01
-7.670944e-01	6.992427e-04	1.024261e+00
-4.888976e-01	7.608978e-04	3.101107e+00
2.994824e+00	8.424781e-04	2.999104e+00
3.102859e+00	9.211512e-04	9.586889e-01
2.617765e+00	1.017927e-03	6.751927e-02
2.233995e+00	1.099911e-03	-2.003410e-01
1.966913e+00	1.034298e-03	-3.620930e-01
1.775989e+00	8.508880e-04	-4.253275e-01
1.609952e+00	4.982164e-04	-4.728576e-01
1.486898e+00	6.299373e-04	-4.883644e-01
1.380197e+00	3.114589e-04	-5.014146e-01
1.292738e+00	4.397327e-04	-4.983863e-01
1.216977e+00	1.436486e-04	-4.960965e-01
1.150997e+00	2.932627e-04	-4.855277e-01
1.091346e+00	3.336123e-05	-4.763450e-01
1.037473e+00	8.859076e-05	-4.632387e-01
9.871440e-01	-1.294501e-04	-4.517880e-01
9.370154e-01	-7.179052e-05	-4.364007e-01
8.896341e-01	-8.625673e-05	-4.222498e-01
8.402963e-01	-9.222330e-05	-4.037777e-01
7.882362e-01	-8.712602e-05	-3.829556e-01
7.396351e-01	-8.604054e-05	-3.609490e-01
8.156304e-01	3.248629e-05	-1.436295e-01
8.334574e-01	1.483541e-05	-1.482772e-01
8.440917e-01	1.321313e-05	-1.539282e-01
8.486058e-01	3.455728e-05	-1.589569e-01
8.459243e-01	3.210150e-05	-1.648443e-01
8.390397e-01	3.083628e-05	-1.692984e-01
8.265930e-01	2.912938e-05	-1.747770e-01
8.104856e-01	2.967229e-05	-1.784925e-01
7.874146e-01	7.200531e-05	-1.836489e-01
7.594796e-01	6.005165e-05	-1.868539e-01
7.229457e-01	5.165083e-05	-1.925903e-01
6.769392e-01	1.860723e-05	-1.945482e-01
6.124756e-01	-8.030931e-06	-1.968506e-01
5.301332e-01	-3.643858e-06	-1.891057e-01
4.110797e-01	2.904296e-05	-1.705440e-01
2.510578e-01	-2.336724e-06	-1.201202e-01
1.358405e-02	2.081494e-06	-8.122006e-03
-3.294961e-01	5.600915e-06	2.526256e-01
-7.671701e-01	7.755680e-06	1.024362e+00
-4.892027e-01	8.891676e-06	3.103043e+00
2.997208e+00	9.487874e-06	3.001491e+00
3.105883e+00	9.572447e-06	9.596232e-01
2.621176e+00	9.205590e-06	6.760725e-02
2.232273e+00	7.976356e-06	-2.001865e-01
1.959974e+00	4.139773e-05	-3.608155e-01
1.764756e+00	3.872629e-05	-4.226374e-01
1.605960e+00	6.249568e-06	-4.716853e-01
1.483229e+00	5.990977e-05	-4.871593e-01
1.376803e+00	4.838693e-05	-5.001815e-01
1.290117e+00	3.752117e-05	-4.973755e-01
1.213848e+00	2.958767e-05	-4.948212e-01
1.149026e+00	-1.444092e-05	-4.846959e-01
1.089120e+00	-1.145303e-05	-4.753738e-01
1.036927e+00	-1.280272e-05	-4.629948e-01
9.856610e-01	-1.198447e-05	-4.511093e-01
9.371782e-01	-1.218712e-05	-4.364765e-01
8.883360e-01	-1.116464e-05	-4.216337e-01
8.393225e-01	-3.363622e-05	-4.033098e-01
7.886841e-01	-3.254053e-05	-3.831732e-01
7.398724e-01	-1.500363e-05	-3.610648e-01
8.183460e-01	1.435153e-03	-1.441077e-01
8.337096e-01	1.435397e-03	-1.483221e-01
8.443998e-01	1.436784e-03	-1.539843e-01
8.497034e-01	1.420967e-03	-1.591625e-01
8.459441e-01	1.382284e-03	-1.648481e-01
8.408750e-01	1.395581e-03	-1.696687e-01
8.274484e-01	1.257064e-03	-1.749578e-01
8.129180e-01	1.319342e-03	-1.790282e-01
7.893243e-01	1.051660e-03	-1.840943e-01
7.628362e-01	1.106248e-03	-1.876797e-01
7.259915e-01	7.602164e-04	-1.934017e-01
6.815060e-01	7.762350e-04	-1.958606e-01
6.170081e-01	3.479872e-04	-1.983074e-01
5.337018e-01	4.410770e-04	-1.903787e-01
4.230800e-01	-5.139106e-05	-1.755225e-01
2.599070e-01	-3.897288e-04	-1.243542e-01
1.637267e-02	-5.847090e-04	-9.789344e-03
-3.305525e-01	-6.072633e-04	2.534356e-01
-7.671910e-01	-6.841972e-04	1.024390e+00
-4.889176e-01	-7.455513e-04	3.101234e+00
2.994854e+00	-8.289721e-04	2.999133e+00
3.102843e+00	-8.812892e-04	9.586839e-01
2.617709e+00	-9.768053e-04	6.751782e-02
2.234893e+00	-1.090880e-03	-2.004215e-01
1.967468e+00	-1.028793e-03	-3.621950e-01
1.775353e+00	-8.166040e-04	-4.251752e-01
1.610336e+00	-4.708678e-04	-4.729705e-01
1.487454e+00	-6.380992e-04	-4.885470e-01
1.379905e+00	-3.310403e-04	-5.013085e-01
1.292501e+00	-3.927129e-04	-4.982949e-01
1.216328e+00	-1.102682e-04	-4.958323e-01
1.150463e+00	-2.080742e-04	-4.853021e-01
1.091369e+00	4.786233e-06	-4.763553e-01
1.037464e+00	-9.578257e-05	-4.632346e-01
9.871549e-01	1.379754e-05	-4.517930e-01
9.370285e-01	-1.970319e-05	-4.364068e-01
8.892133e-01	5.969860e-06	-4.220501e-01
8.395093e-01	1.447732e-05	-4.033995e-01
7.888539e-01	9.936158e-06	-3.832557e-01
7.423208e-01	8.897812e-06	-3.622596e-01
8.155895e-01	1.191734e-03	-1.436223e-01
8.333551e-01	1.206509e-03	-1.482590e-01
8.446798e-01	1.199364e-03	-1.540354e-01
8.500299e-01	1.193819e-03	-1.592236e-01
8.463379e-01	1.082600e-03	-1.649249e-01
8.413696e-01	1.058588e-03	-1.697685e-01
8.276157e-01	9.855013e-04	-1.749932e-01
8.135495e-01	9.677230e-04	-1.791672e-01
7.902034e-01	9.430083e-04	-1.842993e-01
7.633307e-01	8.645004e-04	-1.878013e-01
7.272889e-01	7.761735e-04	-1.937473e-01
6.823197e-01	7.061543e-04	-1.960945e-01
6.173681e-01	6.261022e-04	-1.984231e-01
5.356547e-01	4.774579e-04	-1.910753e-01
4.247790e-01	3.433249e-04	-1.762274e-01
2.611290e-01	2.367390e-04	-1.249389e-01
1.866269e-02	8.870487e-05	-1.115856e-02
-3.271666e-01	-6.133321e-05	2.508396e-01
-7.632649e-01	-2.168625e-04	1.019148e+00
-4.876599e-01	-3.706389e-04	3.093257e+00
2.990735e+00	-5.469795e-04	2.995009e+00
3.098990e+00	-6.965208e-04	9.574935e-01
2.614303e+00	-8.432115e-04	6.742998e-02
2.231491e+00	-9.792692e-04	-2.001164e-01
1.965756e+00	-1.143133e-03	-3.618800e-01
1.774476e+00	-1.260393e-03	-4.249650e-01
1.608290e+00	-1.368415e-03	-4.723696e-01
1.485380e+00	-1.498412e-03	-4.878657e-01
1.379908e+00	-1.582410e-03	-5.013095e-01
1.292930e+00	-1.646279e-03	-4.984602e-01
1.216182e+00	-1.698969e-03	-4.957728e-01
1.150417e+00	-1.775294e-03	-4.852828e-01
1.090748e+00	-1.796810e-03	-4.760842e-01
1.036910e+00	-1.802504e-03	-4.629873e-01
9.870278e-01	-1.824340e-03	-4.517349e-01
9.369314e-01	-1.845708e-03	-4.363615e-01
8.891652e-01	-1.763303e-03	-4.220273e-01
8.395188e-01	-1.773738e-03	-4.034041e-01
7.883708e-01	-1.773497e-03	-3.830210e-01
7.397134e-01	-1.790047e-03	-3.609872e-01
8.158666e-01	1.716344e-03	-1.436711e-01
8.336860e-01	1.705448e-03	-1.483179e-01
8.448111e-01	1.581828e-03	-1.540593e-01
8.529336e-01	1.674711e-03	-1.597676e-01
8.484994e-01	1.702373e-03	-1.653461e-01
8.426036e-01	1.712038e-03	-1.700175e-01
8.288045e-01	1.671110e-03	-1.752446e-01
8.135245e-01	1.608848e-03	-1.791617e-01
7.907291e-01	1.538683e-03	-1.844219e-01
7.650265e-01	1.417943e-03	-1.882185e-01
7.280632e-01	1.270828e-03	-1.939536e-01
6.835052e-01	1.185523e-03	-1.964352e-01
6.201580e-01	9.790421e-04	-1.993198e-01
5.379199e-01	7.831225e-04	-1.918834e-01