# vtk DataFile Version 2.0
OUTPUT by 3D-VPM
ASCII
DATASET UNSTRUCTURED_GRID
POINTS 820 double
9.510565e-01	0.000000e+00	-3.090170e-01
9.442611e-01	0.000000e+00	-3.078203e-01
9.267277e-01	0.000000e+00	-3.047010e-01
8.963175e-01	0.000000e+00	-2.991555e-01
8.562911e-01	0.000000e+00	-2.916579e-01
8.054250e-01	0.000000e+00	-2.817457e-01
7.470317e-01	0.000000e+00	-2.699633e-01
6.809074e-01	0.000000e+00	-2.559818e-01
6.100852e-01	0.000000e+00	-2.403847e-01
5.354138e-01	0.000000e+00	-2.229691e-01
4.593635e-01	0.000000e+00	-2.042585e-01
3.837764e-01	0.000000e+00	-1.841224e-01
3.103069e-01	0.000000e+00	-1.630077e-01
2.415927e-01	0.000000e+00	-1.409228e-01
1.782654e-01	0.000000e+00	-1.183331e-01
1.234349e-01	0.000000e+00	-9.558566e-02
7.662509e-02	0.000000e+00	-7.318920e-02
4.106998e-02	0.000000e+00	-5.193053e-02
1.528206e-02	0.000000e+00	-3.215886e-02
2.347037e-03	0.000000e+00	-1.488740e-02
0.000000e+00	0.000000e+00	0.000000e+00
1.064939e-02	0.000000e+00	1.066461e-02
3.126595e-02	0.000000e+00	1.703450e-02
6.375031e-02	0.000000e+00	1.787236e-02
1.050105e-01	0.000000e+00	1.417221e-02
1.560448e-01	0.000000e+00	4.777214e-03
2.137742e-01	0.000000e+00	-9.048270e-03
2.782849e-01	0.000000e+00	-2.799567e-02
3.468570e-01	0.000000e+00	-5.051783e-02
4.187060e-01	0.000000e+00	-7.662000e-02
4.916930e-01	0.000000e+00	-1.047585e-01
5.642168e-01	0.000000e+00	-1.343226e-01
6.348639e-01	0.000000e+00	-1.641238e-01
7.013280e-01	0.000000e+00	-1.931337e-01
7.630418e-01	0.000000e+00	-2.206893e-01
8.172084e-01	0.000000e+00	-2.454799e-01
8.641863e-01	0.000000e+00	-2.673591e-01
9.009752e-01	0.000000e+00	-2.848204e-01
9.288372e-01	0.000000e+00	-2.982085e-01
9.448555e-01	0.000000e+00	-3.059908e-01
9.510565e-01	0.000000e+00	-3.090170e-01
9.510565e-01	1.052632e+00	-3.090170e-01
9.442611e-01	1.052632e+00	-3.078203e-01
9.267277e-01	1.052632e+00	-3.047010e-01
8.963175e-01	1.052632e+00	-2.991555e-01
8.562911e-01	1.052632e+00	-2.916579e-01
8.054250e-01	1.052632e+00	-2.817457e-01
7.470317e-01	1.052632e+00	-2.699633e-01
6.809074e-01	1.052632e+00	-2.559818e-01
6.100852e-01	1.052632e+00	-2.403847e-01
5.354138e-01	1.052632e+00	-2.229691e-01
4.593635e-01	1.052632e+00	-2.042585e-01
3.837764e-01	1.052632e+00	-1.841224e-01
3.103069e-01	1.052632e+00	-1.630077e-01
2.415927e-01	1.052632e+00	-1.409228e-01
1.782654e-01	1.052632e+00	-1.183331e-01
1.234349e-01	1.052632e+00	-9.558566e-02
7.662509e-02	1.052632e+00	-7.318920e-02
4.106998e-02	1.052632e+00	-5.193053e-02
1.528206e-02	1.052632e+00	-3.215886e-02
2.347037e-03	1.052632e+00	-1.488740e-02
0.000000e+00	1.052632e+00	0.000000e+00
1.064939e-02	1.052632e+00	1.066461e-02
3.126595e-02	1.052632e+00	1.703450e-02
6.375031e-02	1.052632e+00	1.787236e-02
1.050105e-01	1.052632e+00	1.417221e-02
1.560448e-01	1.052632e+00	4.777214e-03
2.137742e-01	1.052632e+00	-9.048270e-03
2.782849e-01	1.052632e+00	-2.799567e-02
3.468570e-01	1.052632e+00	-5.051783e-02
4.187060e-01	1.052632e+00	-7.662000e-02
4.916930e-01	1.052632e+00	-1.047585e-01
5.642168e-01	1.052632e+00	-1.343226e-01
6.348639e-01	1.052632e+00	-1.641238e-01
7.013280e-01	1.052632e+00	-1.931337e-01
7.630418e-01	1.052632e+00	-2.206893e-01
8.172084e-01	1.052632e+00	-2.454799e-01
8.641863e-01	1.052632e+00	-2.673591e-01
9.009752e-01	1.052632e+00	-2.848204e-01
9.288372e-01	1.052632e+00	-2.982085e-01
9.448555e-01	1.052632e+00	-3.059908e-01
9.510565e-01	1.052632e+00	-3.090170e-01
9.510565e-01	2.105263e+00	-3.090170e-01
9.442611e-01	2.105263e+00	-3.078203e-01
9.267277e-01	2.105263e+00	-3.047010e-01
8.963175e-01	2.105263e+00	-2.991555e-01
8.562911e-01	2.105263e+00	-2.916579e-01
8.054250e-01	2.105263e+00	-2.817457e-01
7.470317e-01	2.105263e+00	-2.699633e-01
6.809074e-01	2.105263e+00	-2.559818e-01
6.100852e-01	2.105263e+00	-2.403847e-01
5.354138e-01	2.105263e+00	-2.229691e-01
4.593635e-01	2.105263e+00	-2.042585e-01
3.837764e-01	2.105263e+00	-1.841224e-01
3.103069e-01	2.105263e+00	-1.630077e-01
2.415927e-01	2.105263e+00	-1.409228e-01
1.782654e-01	2.105263e+00	-1.183331e-01
1.234349e-01	2.105263e+00	-9.558566e-02
7.662509e-02	2.105263e+00	-7.318920e-02
4.106998e-02	2.105263e+00	-5.193053e-02
1.528206e-02	2.105263e+00	-3.215886e-02
2.347037e-03	2.105263e+00	-1.488740e-02
0.000000e+00	2.105263e+00	0.000000e+00
1.064939e-02	2.105263e+00	1.066461e-02
3.126595e-02	2.105263e+00	1.703450e-02
6.375031e-02	2.105263e+00	1.787236e-02
1.050105e-01	2.105263e+00	1.417221e-02
1.560448e-01	2.105263e+00	4.777214e-03
2.137742e-01	2.105263e+00	-9.048270e-03
2.782849e-01	2.105263e+00	-2.799567e-02
3.468570e-01	2.105263e+00	-5.051783e-02
4.187060e-01	2.105263e+00	-7.662000e-02
4.916930e-01	2.105263e+00	-1.047585e-01
5.642168e-01	2.105263e+00	-1.343226e-01
6.348639e-01	2.105263e+00	-1.641238e-01
7.013280e-01	2.105263e+00	-1.931337e-01
7.630418e-01	2.105263e+00	-2.206893e-01
8.172084e-01	2.105263e+00	-2.454799e-01
8.641863e-01	2.105263e+00	-2.673591e-01
9.009752e-01	2.105263e+00	-2.848204e-01
9.288372e-01	2.105263e+00	-2.982085e-01
9.448555e-01	2.105263e+00	-3.059908e-01
9.510565e-01	2.105263e+00	-3.090170e-01
9.510565e-01	3.157895e+00	-3.090170e-01
9.442611e-01	3.157895e+00	-3.078203e-01
9.267277e-01	3.157895e+00	-3.047010e-01
8.963175e-01	3.157895e+00	-2.991555e-01
8.562911e-01	3.157895e+00	-2.916579e-01
8.054250e-01	3.157895e+00	-2.817457e-01
7.470317e-01	3.157895e+00	-2.699633e-01
6.809074e-01	3.157895e+00	-2.559818e-01
6.100852e-01	3.157895e+00	-2.403847e-01
5.354138e-01	3.157895e+00	-2.229691e-01
4.593635e-01	3.157895e+00	-2.042585e-01
3.837764e-01	3.157895e+00	-1.841224e-01
3.103069e-01	3.157895e+00	-1.630077e-01
2.415927e-01	3.157895e+00	-1.409228e-01
1.782654e-01	3.157895e+00	-1.183331e-01
1.234349e-01	3.157895e+00	-9.558566e-02
7.662509e-02	3.157895e+00	-7.318920e-02
4.106998e-02	3.157895e+00	-5.193053e-02
1.528206e-02	3.157895e+00	-3.215886e-02
2.347037e-03	3.157895e+00	-1.488740e-02
0.000000e+00	3.157895e+00	0.000000e+00
1.064939e-02	3.157895e+00	1.066461e-02
3.126595e-02	3.157895e+00	1.703450e-02
6.375031e-02	3.157895e+00	1.787236e-02
1.050105e-01	3.157895e+00	1.417221e-02
1.560448e-01	3.157895e+00	4.777214e-03
2.137742e-01	3.157895e+00	-9.048270e-03
2.782849e-01	3.157895e+00	-2.799567e-02
3.468570e-01	3.157895e+00	-5.051783e-02
4.187060e-01	3.157895e+00	-7.662000e-02
4.916930e-01	3.157895e+00	-1.047585e-01
5.642168e-01	3.157895e+00	-1.343226e-01
6.348639e-01	3.157895e+00	-1.641238e-01
7.013280e-01	3.157895e+00	-1.931337e-01
7.630418e-01	3.157895e+00	-2.206893e-01
8.172084e-01	3.157895e+00	-2.454799e-01
8.641863e-01	3.157895e+00	-2.673591e-01
9.009752e-01	3.157895e+00	-2.848204e-01
9.288372e-01	3.157895e+00	-2.982085e-01
9.448555e-01	3.157895e+00	-3.059908e-01
9.510565e-01	3.157895e+00	-3.090170e-01
9.510565e-01	4.210526e+00	-3.090170e-01
9.442611e-01	4.210526e+00	-3.078203e-01
9.267277e-01	4.210526e+00	-3.047010e-01
8.963175e-01	4.210526e+00	-2.991555e-01
8.562911e-01	4.210526e+00	-2.916579e-01
8.054250e-01	4.210526e+00	-2.817457e-01
7.470317e-01	4.210526e+00	-2.699633e-01
6.809074e-01	4.210526e+00	-2.559818e-01
6.100852e-01	4.210526e+00	-2.403847e-01
5.354138e-01	4.210526e+00	-2.229691e-01
4.593635e-01	4.210526e+00	-2.042585e-01
3.837764e-01	4.210526e+00	-1.841224e-01
3.103069e-01	4.210526e+00	-1.630077e-01
2.415927e-01	4.210526e+00	-1.409228e-01
1.782654e-01	4.210526e+00	-1.183331e-01
1.234349e-01	4.210526e+00	-9.558566e-02
7.662509e-02	4.210526e+00	-7.318920e-02
4.106998e-02	4.210526e+00	-5.193053e-02
1.528206e-02	4.210526e+00	-3.215886e-02
2.347037e-03	4.210526e+00	-1.488740e-02
0.000000e+00	4.210526e+00	0.000000e+00
1.064939e-02	4.210526e+00	1.066461e-02
3.126595e-02	4.210526e+00	1.703450e-02
6.375031e-02	4.210526e+00	1.787236e-02
1.050105e-01	4.210526e+00	1.417221e-02
1.560448e-01	4.210526e+00	4.777214e-03
2.137742e-01	4.210526e+00	-9.048270e-03
2.782849e-01	4.210526e+00	-2.799567e-02
3.468570e-01	4.210526e+00	-5.051783e-02
4.187060e-01	4.210526e+00	-7.662000e-02
4.916930e-01	4.210526e+00	-1.047585e-01
5.642168e-01	4.210526e+00	-1.343226e-01
6.348639e-01	4.210526e+00	-1.641238e-01
7.013280e-01	4.210526e+00	-1.931337e-01
7.630418e-01	4.210526e+00	-2.206893e-01
8.172084e-01	4.210526e+00	-2.454799e-01
8.641863e-01	4.210526e+00	-2.673591e-01
9.009752e-01	4.210526e+00	-2.848204e-01
9.288372e-01	4.210526e+00	-2.982085e-01
9.448555e-01	4.210526e+00	-3.059908e-01
9.510565e-01	4.210526e+00	-3.090170e-01
9.510565e-01	5.263158e+00	-3.090170e-01
9.442611e-01	5.263158e+00	-3.078203e-01
9.267277e-01	5.263158e+00	-3.047010e-01
8.963175e-01	5.263158e+00	-2.991555e-01
8.562911e-01	5.263158e+00	-2.916579e-01
8.054250e-01	5.263158e+00	-2.817457e-01
7.470317e-01	5.263158e+00	-2.699633e-01
6.809074e-01	5.263158e+00	-2.559818e-01
6.100852e-01	5.263158e+00	-2.403847e-01
5.354138e-01	5.263158e+00	-2.229691e-01
4.593635e-01	5.263158e+00	-2.042585e-01
3.837764e-01	5.263158e+00	-1.841224e-01
3.103069e-01	5.263158e+00	-1.630077e-01
2.415927e-01	5.263158e+00	-1.409228e-01
1.782654e-01	5.263158e+00	-1.183331e-01
1.234349e-01	5.263158e+00	-9.558566e-02
7.662509e-02	5.263158e+00	-7.318920e-02
4.106998e-02	5.263158e+00	-5.193053e-02
1.528206e-02	5.263158e+00	-3.215886e-02
2.347037e-03	5.263158e+00	-1.488740e-02
0.000000e+00	5.263158e+00	0.000000e+00
1.064939e-02	5.263158e+00	1.066461e-02
3.126595e-02	5.263158e+00	1.703450e-02
6.375031e-02	5.263158e+00	1.787236e-02
1.050105e-01	5.263158e+00	1.417221e-02
1.560448e-01	5.263158e+00	4.777214e-03
2.137742e-01	5.263158e+00	-9.048270e-03
2.782849e-01	5.263158e+00	-2.799567e-02
3.468570e-01	5.263158e+00	-5.051783e-02
4.187060e-01	5.263158e+00	-7.662000e-02
4.916930e-01	5.263158e+00	-1.047585e-01
5.642168e-01	5.263158e+00	-1.343226e-01
6.348639e-01	5.263158e+00	-1.641238e-01
7.013280e-01	5.263158e+00	-1.931337e-01
7.630418e-01	5.263158e+00	-2.206893e-01
8.172084e-01	5.263158e+00	-2.454799e-01
8.641863e-01	5.263158e+00	-2.673591e-01
9.009752e-01	5.263158e+00	-2.848204e-01
9.288372e-01	5.263158e+00	-2.982085e-01
9.448555e-01	5.263158e+00	-3.059908e-01
9.510565e-01	5.263158e+00	-3.090170e-01
9.510565e-01	6.315789e+00	-3.090170e-01
9.442611e-01	6.315789e+00	-3.078203e-01
[...]
CELL_DATA 760
VECTORS V double
8.414771e-01	-6.896187e-02	-1.481810e-01
8.656124e-01	-6.878850e-02	-1.539978e-01
8.836478e-01	-6.833936e-02	-1.611416e-01
8.954377e-01	-6.754602e-02	-1.677292e-01
8.979292e-01	-6.638663e-02	-1.749784e-01
8.992709e-01	-6.484354e-02	-1.814516e-01
8.922645e-01	-6.290638e-02	-1.886627e-01
8.849880e-01	-6.055124e-02	-1.949001e-01
8.706912e-01	-5.774972e-02	-2.030715e-01
8.550446e-01	-5.446951e-02	-2.103656e-01
8.298360e-01	-5.068213e-02	-2.210655e-01
7.990067e-01	-4.638247e-02	-2.296296e-01
7.516569e-01	-4.159409e-02	-2.415837e-01
6.897125e-01	-3.637155e-02	-2.460298e-01
6.031577e-01	-3.075266e-02	-2.502311e-01
4.726097e-01	-2.485992e-02	-2.261233e-01
2.710604e-01	-1.870108e-02	-1.620690e-01
-1.628554e-02	-1.244213e-02	1.248617e-02
-4.205510e-01	-5.884454e-03	5.615398e-01
-3.421682e-01	6.861231e-04	2.170394e+00
2.324704e+00	8.387954e-03	2.328027e+00
2.539828e+00	1.514317e-02	7.847293e-01
2.209266e+00	2.207969e-02	5.698297e-02
1.924612e+00	2.891780e-02	-1.725960e-01
1.719505e+00	3.589810e-02	-3.165471e-01
1.569885e+00	4.285572e-02	-3.759681e-01
1.435150e+00	4.978488e-02	-4.215167e-01
1.336418e+00	5.650712e-02	-4.389400e-01
1.250456e+00	6.290431e-02	-4.542807e-01
1.181523e+00	6.878213e-02	-4.555098e-01
1.121682e+00	7.401544e-02	-4.572500e-01
1.071509e+00	7.847680e-02	-4.519969e-01
1.027397e+00	8.210100e-02	-4.484329e-01
9.871460e-01	8.488051e-02	-4.407673e-01
9.499449e-01	8.686682e-02	-4.347630e-01
9.115098e-01	8.815802e-02	-4.245218e-01
8.743574e-01	8.888229e-02	-4.149990e-01
8.341950e-01	8.918852e-02	-4.008459e-01
7.910759e-01	8.923211e-02	-3.843352e-01
7.483325e-01	8.918639e-02	-3.651934e-01
8.269288e-01	-4.830560e-02	-1.456191e-01
8.474382e-01	-4.818147e-02	-1.507645e-01
8.619264e-01	-4.786344e-02	-1.571805e-01
8.706405e-01	-4.730044e-02	-1.630843e-01
8.704218e-01	-4.646987e-02	-1.696181e-01
8.690697e-01	-4.535290e-02	-1.753577e-01
8.591059e-01	-4.393886e-02	-1.816516e-01
8.482762e-01	-4.221277e-02	-1.868151e-01
8.296521e-01	-4.015980e-02	-1.934999e-01
8.086486e-01	-3.776466e-02	-1.989508e-01
7.769896e-01	-3.500328e-02	-2.069874e-01
7.384558e-01	-3.191118e-02	-2.122277e-01
6.821456e-01	-2.848007e-02	-2.192427e-01
6.091953e-01	-2.476015e-02	-2.173083e-01
5.095152e-01	-2.077738e-02	-2.113818e-01
3.616713e-01	-1.661469e-02	-1.730441e-01
1.384591e-01	-1.227373e-02	-8.278574e-02
-1.801488e-01	-7.867879e-03	1.381206e-01
-6.017041e-01	-3.257298e-03	8.034241e-01
-4.192186e-01	1.355342e-03	2.659129e+00
2.679703e+00	6.747646e-03	2.683532e+00
2.841829e+00	1.145697e-02	8.780386e-01
2.431687e+00	1.626429e-02	6.271981e-02
2.096211e+00	2.096705e-02	-1.879848e-01
1.859639e+00	2.572373e-02	-3.423447e-01
1.688988e+00	3.041487e-02	-4.044917e-01
1.538538e+00	3.503462e-02	-4.518827e-01
1.427379e+00	3.946500e-02	-4.688157e-01
1.330456e+00	4.363428e-02	-4.833438e-01
1.251636e+00	4.743170e-02	-4.825402e-01
1.182375e+00	5.075558e-02	-4.819913e-01
1.123154e+00	5.356835e-02	-4.737823e-01
1.070242e+00	5.582391e-02	-4.671337e-01
1.021621e+00	5.752667e-02	-4.561607e-01
9.764992e-01	5.871780e-02	-4.469162e-01
9.306971e-01	5.946813e-02	-4.334580e-01
8.867115e-01	5.986596e-02	-4.208627e-01
8.402783e-01	6.001194e-02	-4.037690e-01
7.917067e-01	6.000824e-02	-3.846417e-01
7.448312e-01	5.996497e-02	-3.634847e-01
8.206464e-01	-2.041570e-02	-1.445128e-01
8.398277e-01	-2.036403e-02	-1.494105e-01
8.528371e-01	-2.023329e-02	-1.555230e-01
8.600245e-01	-1.999803e-02	-1.610958e-01
8.582645e-01	-1.963989e-02	-1.672490e-01
8.553312e-01	-1.914290e-02	-1.725856e-01
8.437440e-01	-1.849720e-02	-1.784034e-01
8.311797e-01	-1.769722e-02	-1.830499e-01
8.106620e-01	-1.672269e-02	-1.890709e-01
7.873438e-01	-1.560268e-02	-1.937092e-01
7.533313e-01	-1.433100e-02	-2.006849e-01
7.120790e-01	-1.291786e-02	-2.046471e-01
6.523405e-01	-1.136410e-02	-2.096633e-01
5.752864e-01	-9.699420e-03	-2.052125e-01
4.706230e-01	-7.934052e-03	-1.952466e-01
3.160370e-01	-6.100492e-03	-1.512100e-01
8.424380e-02	-4.195504e-03	-5.036999e-02
-2.468618e-01	-2.266930e-03	1.892697e-01
-6.751279e-01	-2.540219e-04	9.014631e-01
-4.502184e-01	1.751442e-03	2.855763e+00
2.820616e+00	4.077258e-03	2.824646e+00
2.959397e+00	6.082383e-03	9.143634e-01
2.516197e+00	8.092996e-03	6.489956e-02
2.159425e+00	1.001409e-02	-1.936537e-01
1.909396e+00	1.190189e-02	-3.515046e-01
1.729541e+00	1.370292e-02	-4.142037e-01
1.572193e+00	1.541262e-02	-4.617675e-01
1.455645e+00	1.699056e-02	-4.780994e-01
1.354289e+00	1.841946e-02	-4.920023e-01
1.271391e+00	1.967812e-02	-4.901564e-01
1.198520e+00	2.074285e-02	-4.885726e-01
1.136263e+00	2.160835e-02	-4.793121e-01
1.080377e+00	2.224370e-02	-4.715576e-01
1.029035e+00	2.271384e-02	-4.594710e-01
9.814348e-01	2.301526e-02	-4.491751e-01
9.334213e-01	2.317954e-02	-4.347267e-01
8.874872e-01	2.324170e-02	-4.212308e-01
8.393919e-01	2.323982e-02	-4.033431e-01
7.894900e-01	2.320877e-02	-3.835647e-01
7.417062e-01	2.318208e-02	-3.619597e-01
8.182558e-01	-1.023376e-02	-1.440918e-01
8.368165e-01	-1.021275e-02	-1.488748e-01
8.491095e-01	-1.015654e-02	-1.548432e-01
8.555327e-01	-1.005023e-02	-1.602544e-01
8.529813e-01	-9.895238e-03	-1.662195e-01
8.492154e-01	-9.637986e-03	-1.713516e-01
8.367597e-01	-9.326141e-03	-1.769267e-01
8.230003e-01	-8.941493e-03	-1.812486e-01
8.013894e-01	-8.466379e-03	-1.869082e-01
7.772490e-01	-7.894460e-03	-1.912256e-01
7.418983e-01	-7.254006e-03	-1.976392e-01
6.989156e-01	-6.517174e-03	-2.008640e-01
6.374382e-01	-5.712326e-03	-2.048737e-01
5.582289e-01	-4.837720e-03	-1.991279e-01
4.509452e-01	-3.904407e-03	-1.870829e-01
2.928243e-01	-2.933530e-03	-1.401037e-01
5.656889e-02	-1.929170e-03	-3.382296e-02
-2.809651e-01	-8.963760e-04	2.154168e-01
-7.126653e-01	1.820122e-04	9.515847e-01
-4.660281e-01	1.255030e-03	2.956044e+00
2.892075e+00	2.495014e-03	2.896208e+00
3.018552e+00	3.557704e-03	9.326405e-01
2.558340e+00	4.614974e-03	6.598654e-02
2.190602e+00	5.615589e-03	-1.964496e-01
1.933672e+00	6.605382e-03	-3.559736e-01
1.749116e+00	7.522573e-03	-4.188916e-01
1.588275e+00	8.384687e-03	-4.664911e-01
1.469041e+00	9.172766e-03	-4.824992e-01
1.365472e+00	9.887411e-03	-4.960649e-01
1.280953e+00	1.050393e-02	-4.938428e-01
1.206546e+00	1.104370e-02	-4.918445e-01
1.142345e+00	1.147614e-02	-4.818776e-01
1.085043e+00	1.180127e-02	-4.735940e-01
1.032812e+00	1.204966e-02	-4.611575e-01
9.840859e-01	1.220883e-02	-4.503884e-01
9.350743e-01	1.227900e-02	-4.354966e-01
8.882718e-01	1.233265e-02	-4.216032e-01
8.394455e-01	1.234197e-02	-4.033689e-01
7.889501e-01	1.233504e-02	-3.833024e-01
7.407440e-01	1.232636e-02	-3.614901e-01
8.171205e-01	-5.672757e-03	-1.438919e-01
8.353022e-01	-5.661637e-03	-1.486054e-01
8.471225e-01	-5.630902e-03	-1.544808e-01
8.533892e-01	-5.570556e-03	-1.598529e-01
8.497912e-01	-5.488837e-03	-1.655978e-01
8.454652e-01	-5.350596e-03	-1.705949e-01
8.329792e-01	-5.184984e-03	-1.761273e-01
8.189307e-01	-4.945095e-03	-1.803523e-01
7.965277e-01	-4.672893e-03	-1.857743e-01
7.714275e-01	-4.338065e-03	-1.897934e-01
7.353317e-01	-3.953560e-03	-1.958899e-01
6.915315e-01	-3.534084e-03	-1.987419e-01
6.290164e-01	-3.046194e-03	-2.021669e-01
5.484270e-01	-2.644787e-03	-1.956314e-01
4.396353e-01	-2.061502e-03	-1.823908e-01
2.796552e-01	-1.477377e-03	-1.338029e-01
4.076686e-02	-8.682582e-04	-2.437481e-02
-3.008606e-01	-2.487479e-04	2.306707e-01
-7.345435e-01	3.851005e-04	9.807976e-01
-4.752236e-01	1.029119e-03	3.014372e+00
2.933471e+00	1.770573e-03	2.937663e+00
3.052616e+00	2.402560e-03	9.431653e-01
2.582437e+00	3.042133e-03	6.660807e-02
2.208769e+00	3.630208e-03	-1.980788e-01
1.947619e+00	4.197738e-03	-3.585411e-01
1.760005e+00	4.726152e-03	-4.214995e-01
1.597152e+00	5.208237e-03	-4.690983e-01
1.476467e+00	5.752266e-03	-4.849382e-01
1.371629e+00	6.155570e-03	-4.983019e-01
1.285983e+00	6.492019e-03	-4.957820e-01
1.210694e+00	6.776449e-03	-4.935357e-01
1.145947e+00	6.999906e-03	-4.833973e-01
1.088052e+00	7.200962e-03	-4.749075e-01
1.034946e+00	7.348549e-03	-4.621105e-01
9.851935e-01	7.428988e-03	-4.508953e-01
9.357473e-01	7.475360e-03	-4.358101e-01
8.890516e-01	7.511219e-03	-4.219734e-01
8.395587e-01	7.515699e-03	-4.034233e-01
7.887894e-01	7.512277e-03	-3.832244e-01
7.403771e-01	7.507929e-03	-3.613111e-01
8.163896e-01	-3.284932e-03	-1.437632e-01
8.343547e-01	-3.277863e-03	-1.484368e-01
8.458972e-01	-3.258830e-03	-1.542574e-01
8.519412e-01	-3.221376e-03	-1.595817e-01
8.484566e-01	-3.170718e-03	-1.653377e-01
8.439498e-01	-3.105068e-03	-1.702891e-01
8.304687e-01	-2.989127e-03	-1.755965e-01
8.157143e-01	-2.832905e-03	-1.796440e-01
7.931932e-01	-2.633282e-03	-1.849966e-01
7.678048e-01	-2.429798e-03	-1.889021e-01
7.313894e-01	-2.234720e-03	-1.948397e-01
6.868298e-01	-1.955576e-03	-1.973907e-01
6.250328e-01	-1.637038e-03	-2.008866e-01
5.437076e-01	-1.415946e-03	-1.939479e-01
4.319241e-01	-1.058503e-03	-1.791916e-01
2.708538e-01	-6.861481e-04	-1.295918e-01
3.033069e-02	-2.888751e-04	-1.813495e-02
-3.130753e-01	1.014198e-04	2.400358e-01
-7.478808e-01	4.890287e-04	9.986062e-01
-4.810110e-01	8.953125e-04	3.051082e+00
2.959355e+00	1.361603e-03	2.963585e+00
3.074563e+00	1.757322e-03	9.499462e-01
2.597764e+00	2.169042e-03	6.700339e-02
2.219209e+00	2.534171e-03	-1.990150e-01
1.955644e+00	2.867457e-03	-3.600184e-01
1.766400e+00	3.191666e-03	-4.230311e-01
1.603874e+00	3.484929e-03	-4.710727e-01
1.482125e+00	3.860583e-03	-4.867967e-01
1.375105e+00	4.082643e-03	-4.995645e-01
1.288788e+00	4.326748e-03	-4.968632e-01
1.212906e+00	4.487026e-03	-4.944373e-01
1.147762e+00	4.588542e-03	-4.841630e-01
1.089711e+00	4.696285e-03	-4.756317e-01
1.036131e+00	4.762320e-03	-4.626396e-01
9.861483e-01	4.811450e-03	-4.513323e-01
9.366183e-01	4.861024e-03	-4.362157e-01
8.892826e-01	4.881887e-03	-4.220830e-01
8.395234e-01	4.883140e-03	-4.034063e-01
7.886022e-01	4.880194e-03	-3.831334e-01
7.400782e-01	4.877081e-03	-3.611652e-01
8.159342e-01	-2.033961e-03	-1.436830e-01
8.337714e-01	-2.029876e-03	-1.483331e-01
8.451300e-01	-2.019555e-03	-1.541175e-01
8.511618e-01	-2.001590e-03	-1.594357e-01
8.474263e-01	-1.956999e-03	-1.651370e-01
8.422798e-01	-1.996537e-03	-1.699522e-01
8.287640e-01	-1.892200e-03	-1.752360e-01
8.138584e-01	-1.805804e-03	-1.792353e-01
7.910945e-01	-1.684337e-03	-1.845072e-01
7.661971e-01	-1.546861e-03	-1.885065e-01
7.291382e-01	-1.392420e-03	-1.942400e-01
6.835691e-01	-1.207025e-03	-1.964536e-01
6.214688e-01	-1.025709e-03	-1.997411e-01
5.399165e-01	-7.277730e-04	-1.925956e-01
4.277595e-01	-5.340590e-04	-1.774639e-01
2.654988e-01	-3.319013e-04	-1.270297e-01
2.391393e-02	-9.059445e-05	-1.429831e-02
-3.208377e-01	1.537266e-04	2.459872e-01
-7.563519e-01	4.227254e-04	1.009917e+00
-4.846625e-01	6.765418e-04	3.074244e+00
2.975681e+00	9.697877e-04	2.979934e+00
3.088284e+00	1.220198e-03	9.541855e-01
2.607312e+00	1.452681e-03	6.724966e-02
2.226003e+00	1.682598e-03	-1.996243e-01
1.960826e+00	1.898841e-03	-3.609724e-01
1.770564e+00	2.129594e-03	-4.240282e-01
1.607352e+00	2.326672e-03	-4.720940e-01
1.484693e+00	2.422747e-03	-4.876402e-01
1.377716e+00	2.565499e-03	-5.005133e-01
1.291082e+00	2.701253e-03	-4.977478e-01
1.213975e+00	2.813982e-03	-4.948728e-01
1.148614e+00	2.904938e-03	-4.845221e-01
1.090385e+00	2.975496e-03	-4.759259e-01
1.036611e+00	3.033105e-03	-4.628537e-01
9.867704e-01	3.194627e-03	-4.516170e-01
9.371037e-01	3.186031e-03	-4.364418e-01
8.896128e-01	3.167469e-03	-4.222397e-01
8.395315e-01	3.166045e-03	-4.034102e-01
7.885097e-01	3.163018e-03	-3.830884e-01
7.399002e-01	3.160764e-03	-3.610783e-01
8.157040e-01	-1.163675e-03	-1.436425e-01
8.335160e-01	-1.161122e-03	-1.482876e-01
8.449095e-01	-1.154620e-03	-1.540773e-01
8.503054e-01	-1.144049e-03	-1.592752e-01
8.485113e-01	-1.105318e-03	-1.653484e-01
8.426697e-01	-1.076088e-03	-1.700308e-01
8.275490e-01	-1.060548e-03	-1.749791e-01
8.127470e-01	-1.012812e-03	-1.789905e-01
7.896996e-01	-1.037307e-03	-1.841818e-01
7.639724e-01	-9.401236e-04	-1.879592e-01
7.269487e-01	-8.240015e-04	-1.936567e-01
6.819369e-01	-7.236590e-04	-1.959845e-01
6.184200e-01	-6.199541e-04	-1.987612e-01
5.363169e-01	-4.194407e-04	-1.913116e-01
4.254826e-01	-2.951525e-04	-1.765193e-01
2.627371e-01	-1.601236e-04	-1.257083e-01
1.995707e-02	-1.833774e-05	-1.193248e-02
-3.261488e-01	1.256367e-04	2.500592e-01
-7.623978e-01	2.972134e-04	1.017990e+00
-4.869252e-01	4.470668e-04	3.088596e+00
2.985992e+00	6.210932e-04	2.990259e+00
3.095646e+00	7.705357e-04	9.564603e-01
2.612700e+00	8.965746e-04	6.738865e-02
2.230238e+00	1.034791e-03	-2.000040e-01
1.964659e+00	1.166717e-03	-3.616780e-01
1.773703e+00	1.290591e-03	-4.247799e-01
1.608244e+00	1.437427e-03	-4.723561e-01
1.485460e+00	1.429821e-03	-4.878921e-01
1.378736e+00	1.525568e-03	-5.008838e-01
1.291923e+00	1.588558e-03	-4.980719e-01
1.215457e+00	1.654599e-03	-4.954771e-01
1.149826e+00	1.798643e-03	-4.850338e-01
1.091425e+00	1.814969e-03	-4.763795e-01
1.039204e+00	1.829721e-03	-4.640116e-01
9.887717e-01	1.863765e-03	-4.525330e-01
9.361315e-01	1.868902e-03	-4.359890e-01
8.887772e-01	1.851338e-03	-4.218431e-01
8.393973e-01	1.852356e-03	-4.033457e-01
7.883443e-01	1.850675e-03	-3.830081e-01
7.397330e-01	1.849307e-03	-3.609968e-01
8.155058e-01	-1.376854e-03	-1.436076e-01
8.332438e-01	-1.377089e-03	-1.482392e-01
8.445372e-01	-1.378342e-03	-1.540094e-01
8.498499e-01	-1.361798e-03	-1.591899e-01
8.460784e-01	-1.320825e-03	-1.648743e-01
8.415241e-01	-1.302401e-03	-1.697997e-01
8.277669e-01	-1.148024e-03	-1.750252e-01
8.135606e-01	-1.181268e-03	-1.791697e-01
7.900838e-01	-9.857693e-04	-1.842714e-01
7.633963e-01	-1.030591e-03	-1.878175e-01
7.263068e-01	-6.702064e-04	-1.934857e-01
6.808481e-01	-7.541988e-04	-1.956715e-01
6.172813e-01	-3.186879e-04	-1.983952e-01
5.350287e-01	-4.149784e-04	-1.908520e-01
4.235454e-01	7.386270e-05	-1.757156e-01
2.604035e-01	4.326745e-04	-1.245918e-01
1.781076e-02	6.219730e-04	-1.064918e-02
-3.288230e-01	6.407779e-04	2.521095e-01
-7.653470e-01	6.867093e-04	1.021928e+00
-4.881623e-01	7.458752e-04	3.096443e+00
2.991537e+00	8.241070e-04	2.995812e+00
3.100193e+00	8.994381e-04	9.578650e-01
2.615918e+00	9.873179e-04	6.747165e-02
2.232686e+00	1.094859e-03	-2.002236e-01
1.965956e+00	1.030188e-03	-3.619168e-01
1.775234e+00	7.860862e-04	-4.251465e-01
1.609349e+00	4.042285e-04	-4.726806e-01
1.485962e+00	5.984525e-04	-4.880570e-01
1.379779e+00	2.500438e-04	-5.012625e-01
1.292711e+00	4.082341e-04	-4.983759e-01
1.216599e+00	1.143195e-04	-4.959427e-01
1.150689e+00	2.655910e-04	-4.853977e-01
1.090800e+00	3.680789e-05	-4.761070e-01
1.037298e+00	7.249617e-05	-4.631604e-01
9.874270e-01	-1.575705e-04	-4.519175e-01
9.369120e-01	-8.108190e-05	-4.363525e-01
8.891816e-01	-1.015097e-04	-4.220350e-01
8.395270e-01	-1.088949e-04	-4.034080e-01
7.883628e-01	-1.042079e-04	-3.830171e-01
7.396906e-01	-1.031727e-04	-3.609761e-01
8.157433e-01	4.937422e-05	-1.436494e-01
8.336088e-01	4.936189e-05	-1.483042e-01
8.442891e-01	4.929948e-05	-1.539641e-01
8.488015e-01	4.919987e-05	-1.589935e-01
8.473597e-01	4.904119e-05	-1.651240e-01
8.395381e-01	4.760871e-05	-1.693990e-01
8.258261e-01	7.623120e-05	-1.746148e-01
8.103409e-01	2.926238e-05	-1.784606e-01
7.877309e-01	1.064411e-04	-1.837227e-01
7.598045e-01	8.928637e-05	-1.869338e-01
7.233001e-01	1.066094e-04	-1.926847e-01
6.773864e-01	7.250098e-05	-1.946767e-01
6.134663e-01	1.137127e-05	-1.971691e-01
5.308967e-01	4.242861e-05	-1.893781e-01
4.115341e-01	1.194670e-05	-1.707325e-01
2.523504e-01	1.132645e-05	-1.207387e-01
1.508484e-02	9.213531e-06	-9.019338e-03
-3.276985e-01	6.474382e-06	2.512474e-01
-7.652240e-01	3.238674e-06	1.021764e+00
-4.883930e-01	-2.447550e-07	3.097907e+00
2.993596e+00	-4.603476e-06	2.997874e+00
3.102940e+00	-8.677283e-06	9.587138e-01
2.619121e+00	-1.314660e-05	6.755425e-02
2.230805e+00	-1.801101e-05	-2.000549e-01
1.958131e+00	-2.369144e-05	-3.604762e-01
1.762811e+00	-3.094596e-05	-4.221716e-01
1.605822e+00	-3.520128e-05	-4.716447e-01
1.483080e+00	1.201865e-05	-4.871103e-01
1.376387e+00	-2.384938e-06	-5.000303e-01
1.290175e+00	-1.789702e-05	-4.973981e-01
1.213644e+00	-2.331470e-05	-4.947381e-01
1.148931e+00	-1.008727e-04	-4.846559e-01
1.088741e+00	-9.105106e-05	-4.752081e-01
1.036599e+00	-3.511761e-05	-4.628485e-01
9.859938e-01	-6.073895e-05	-4.512616e-01
9.373380e-01	-5.834219e-05	-4.365509e-01
8.881052e-01	-5.820874e-05	-4.215242e-01
8.392452e-01	-5.842993e-05	-4.032726e-01
7.886665e-01	-5.860755e-05	-3.831646e-01
7.398916e-01	-5.867213e-05	-3.610741e-01
8.155078e-01	1.473820e-03	-1.436079e-01
8.332485e-01	1.474120e-03	-1.482400e-01
8.445428e-01	1.475783e-03	-1.540104e-01
8.498565e-01	1.460692e-03	-1.591912e-01
8.461128e-01	1.421632e-03	-1.648810e-01
8.410215e-01	1.490977e-03	-1.696983e-01
8.281054e-01	1.320071e-03	-1.750968e-01
8.130762e-01	1.321936e-03	-1.790630e-01
7.892991e-01	1.089597e-03	-1.840884e-01
7.633918e-01	1.126123e-03	-1.878164e-01
7.265222e-01	6.798099e-04	-1.935431e-01
6.821113e-01	7.698004e-04	-1.960346e-01
6.177405e-01	3.366570e-04	-1.985428e-01
5.349759e-01	4.263816e-04	-1.908332e-01
4.240835e-01	-6.404318e-05	-1.759388e-01
2.604515e-01	-3.984078e-04	-1.246148e-01
1.791292e-02	-5.902679e-04	-1.071027e-02
-3.286717e-01	-6.365588e-04	2.519935e-01
-7.651629e-01	-6.855922e-04	1.021682e+00
-4.880781e-01	-7.493052e-04	3.095909e+00
2.991121e+00	-8.340730e-04	2.995395e+00
3.099813e+00	-9.159948e-04	9.577478e-01
2.615615e+00	-1.011551e-03	6.746382e-02
2.232422e+00	-1.100925e-03	-2.001999e-01
1.965694e+00	-1.039882e-03	-3.618684e-01
1.775039e+00	-8.277288e-04	-4.251000e-01
1.610038e+00	-4.189814e-04	-4.728830e-01
1.486390e+00	-6.474957e-04	-4.881976e-01
1.379388e+00	-3.092781e-04	-5.011206e-01
1.292448e+00	-4.009195e-04	-4.982743e-01
1.215565e+00	-1.321901e-04	-4.955212e-01
1.149804e+00	-3.079686e-04	-4.850245e-01
1.091657e+00	-7.709926e-05	-4.764810e-01
1.037790e+00	-1.252788e-04	-4.633800e-01
9.870263e-01	-2.939469e-05	-4.517341e-01
9.369629e-01	-8.001333e-05	-4.363762e-01
8.891806e-01	-4.825118e-05	-4.220346e-01
8.395146e-01	-3.826993e-05	-4.034021e-01
7.883498e-01	-4.232116e-05	-3.830108e-01
7.396807e-01	-4.324249e-05	-3.609712e-01
8.156930e-01	1.247466e-03	-1.436406e-01
8.334860e-01	1.244715e-03	-1.482823e-01
8.448410e-01	1.238462e-03	-1.540648e-01
8.502204e-01	1.215147e-03	-1.592593e-01
8.465499e-01	1.119779e-03	-1.649662e-01
8.415612e-01	1.061938e-03	-1.698072e-01
8.282968e-01	1.025404e-03	-1.751372e-01
8.137181e-01	1.027602e-03	-1.792044e-01
7.903005e-01	9.592543e-04	-1.843220e-01
7.652141e-01	8.817703e-04	-1.882647e-01
7.280010e-01	7.924743e-04	-1.939370e-01
6.818243e-01	6.883536e-04	-1.959521e-01
6.184744e-01	6.120476e-04	-1.987787e-01
5.364418e-01	4.819769e-04	-1.913561e-01
4.251374e-01	3.753430e-04	-1.763760e-01
2.622895e-01	2.322983e-04	-1.254941e-01
2.053745e-02	8.519272e-05	-1.227949e-02
-3.252632e-01	-6.247129e-05	2.493802e-01
-7.621948e-01	-2.437791e-04	1.017719e+00
-4.868077e-01	-3.975055e-04	3.087851e+00
2.985339e+00	-5.764842e-04	2.989605e+00
3.095009e+00	-7.304896e-04	9.562634e-01
2.613174e+00	-8.549181e-04	6.740086e-02
2.230535e+00	-9.965697e-04	-2.000307e-01
1.963894e+00	-1.130022e-03	-3.615371e-01
1.773681e+00	-1.251217e-03	-4.247747e-01
1.608087e+00	-1.393329e-03	-4.723100e-01
1.484854e+00	-1.524471e-03	-4.876929e-01
1.379492e+00	-1.612294e-03	-5.011582e-01
1.292438e+00	-1.680938e-03	-4.982706e-01
1.214835e+00	-1.740390e-03	-4.952235e-01
1.149534e+00	-1.786503e-03	-4.849104e-01
1.091292e+00	-1.816281e-03	-4.763217e-01
1.037184e+00	-1.889440e-03	-4.631094e-01
9.868719e-01	-1.868687e-03	-4.516635e-01
9.368468e-01	-1.894245e-03	-4.363221e-01
8.891202e-01	-1.833630e-03	-4.220059e-01
8.395070e-01	-1.828605e-03	-4.033984e-01
7.883871e-01	-1.830050e-03	-3.830289e-01
7.397505e-01	-1.829216e-03	-3.610053e-01
8.159696e-01	2.102753e-03	-1.436893e-01
8.337660e-01	2.102469e-03	-1.483321e-01
8.456327e-01	2.020155e-03	-1.542092e-01
8.530281e-01	1.999060e-03	-1.597853e-01
8.491216e-01	1.959545e-03	-1.654673e-01
8.426230e-01	1.917996e-03	-1.700214e-01
8.286045e-01	1.843665e-03	-1.752023e-01
8.140470e-01	1.758002e-03	-1.792768e-01
7.912667e-01	1.652116e-03	-1.845473e-01
7.655815e-01	1.518350e-03	-1.883551e-01
7.290498e-01	1.443723e-03	-1.942164e-01
6.845256e-01	1.238046e-03	-1.967284e-01
6.205865e-01	1.040006e-03	-1.994575e-01
5.385149e-01	8.589002e-04	-1.920956e-01