# vtk DataFile Version 2.0
OUTPUT by 3D-VPM
ASCII
DATASET UNSTRUCTURED_GRID
POINTS 820 double
9.510565e-01	0.000000e+00	-3.090170e-01
9.442611e-01	0.000000e+00	-3.078203e-01
9.267277e-01	0.000000e+00	-3.047010e-01
8.963175e-01	0.000000e+00	-2.991555e-01
8.562911e-01	0.000000e+00	-2.916579e-01
8.054250e-01	0.000000e+00	-2.817457e-01
7.470317e-01	0.000000e+00	-2.699633e-01
6.809074e-01	0.000000e+00	-2.559818e-01
6.100852e-01	0.000000e+00	-2.403847e-01
5.354138e-01	0.000000e+00	-2.229691e-01
4.593635e-01	0.000000e+00	-2.042585e-01
3.837764e-01	0.000000e+00	-1.841224e-01
3.103069e-01	0.000000e+00	-1.630077e-01
2.415927e-01	0.000000e+00	-1.409228e-01
1.782654e-01	0.000000e+00	-1.183331e-01
1.234349e-01	0.000000e+00	-9.558566e-02
7.662509e-02	0.000000e+00	-7.318920e-02
4.106998e-02	0.000000e+00	-5.193053e-02
1.528206e-02	0.000000e+00	-3.215886e-02
2.347037e-03	0.000000e+00	-1.488740e-02
0.000000e+00	0.000000e+00	0.000000e+00
1.064939e-02	0.000000e+00	1.066461e-02
3.126595e-02	0.000000e+00	1.703450e-02
6.375031e-02	0.000000e+00	1.787236e-02
1.050105e-01	0.000000e+00	1.417221e-02
1.560448e-01	0.000000e+00	4.777214e-03
2.137742e-01	0.000000e+00	-9.048270e-03
2.782849e-01	0.000000e+00	-2.799567e-02
3.468570e-01	0.000000e+00	-5.051783e-02
4.187060e-01	0.000000e+00	-7.662000e-02
4.916930e-01	0.000000e+00	-1.047585e-01
5.642168e-01	0.000000e+00	-1.343226e-01
6.348639e-01	0.000000e+00	-1.641238e-01
7.013280e-01	0.000000e+00	-1.931337e-01
7.630418e-01	0.000000e+00	-2.206893e-01
8.172084e-01	0.000000e+00	-2.454799e-01
8.641863e-01	0.000000e+00	-2.673591e-01
9.009752e-01	0.000000e+00	-2.848204e-01
9.288372e-01	0.000000e+00	-2.982085e-01
9.448555e-01	0.000000e+00	-3.059908e-01
9.510565e-01	0.000000e+00	-3.090170e-01
9.510565e-01	1.052632e+00	-3.090170e-01
9.442611e-01	1.052632e+00	-3.078203e-01
9.267277e-01	1.052632e+00	-3.047010e-01
8.963175e-01	1.052632e+00	-2.991555e-01
8.562911e-01	1.052632e+00	-2.916579e-01
8.054250e-01	1.052632e+00	-2.817457e-01
7.470317e-01	1.052632e+00	-2.699633e-01
6.809074e-01	1.052632e+00	-2.559818e-01
6.100852e-01	1.052632e+00	-2.403847e-01
5.354138e-01	1.052632e+00	-2.229691e-01
4.593635e-01	1.052632e+00	-2.042585e-01
3.837764e-01	1.052632e+00	-1.841224e-01
3.103069e-01	1.052632e+00	-1.630077e-01
2.415927e-01	1.052632e+00	-1.409228e-01
1.782654e-01	1.052632e+00	-1.183331e-01
1.234349e-01	1.052632e+00	-9.558566e-02
7.662509e-02	1.052632e+00	-7.318920e-02
4.106998e-02	1.052632e+00	-5.193053e-02
1.528206e-02	1.052632e+00	-3.215886e-02
2.347037e-03	1.052632e+00	-1.488740e-02
0.000000e+00	1.052632e+00	0.000000e+00
1.064939e-02	1.052632e+00	1.066461e-02
3.126595e-02	1.052632e+00	1.703450e-02
6.375031e-02	1.052632e+00	1.787236e-02
1.050105e-01	1.052632e+00	1.417221e-02
1.560448e-01	1.052632e+00	4.777214e-03
2.137742e-01	1.052632e+00	-9.048270e-03
2.782849e-01	1.052632e+00	-2.799567e-02
3.468570e-01	1.052632e+00	-5.051783e-02
4.187060e-01	1.052632e+00	-7.662000e-02
4.916930e-01	1.052632e+00	-1.047585e-01
5.642168e-01	1.052632e+00	-1.343226e-01
6.348639e-01	1.052632e+00	-1.641238e-01
7.013280e-01	1.052632e+00	-1.931337e-01
7.630418e-01	1.052632e+00	-2.206893e-01
8.172084e-01	1.052632e+00	-2.454799e-01
8.641863e-01	1.052632e+00	-2.673591e-01
9.009752e-01	1.052632e+00	-2.848204e-01
9.288372e-01	1.052632e+00	-2.982085e-01
9.448555e-01	1.052632e+00	-3.059908e-01
9.510565e-01	1.052632e+00	-3.090170e-01
9.510565e-01	2.105263e+00	-3.090170e-01
9.442611e-01	2.105263e+00	-3.078203e-01
9.267277e-01	2.105263e+00	-3.047010e-01
8.963175e-01	2.105263e+00	-2.991555e-01
8.562911e-01	2.105263e+00	-2.916579e-01
8.054250e-01	2.105263e+00	-2.817457e-01
7.470317e-01	2.105263e+00	-2.699633e-01
6.809074e-01	2.105263e+00	-2.559818e-01
6.100852e-01	2.105263e+00	-2.403847e-01
5.354138e-01	2.105263e+00	-2.229691e-01
4.593635e-01	2.105263e+00	-2.042585e-01
3.837764e-01	2.105263e+00	-1.841224e-01
3.103069e-01	2.105263e+00	-1.630077e-01
2.415927e-01	2.105263e+00	-1.409228e-01
1.782654e-01	2.105263e+00	-1.183331e-01
1.234349e-01	2.105263e+00	-9.558566e-02
7.662509e-02	2.105263e+00	-7.318920e-02
4.106998e-02	2.105263e+00	-5.193053e-02
1.528206e-02	2.105263e+00	-3.215886e-02
2.347037e-03	2.105263e+00	-1.488740e-02
0.000000e+00	2.105263e+00	0.000000e+00
1.064939e-02	2.105263e+00	1.066461e-02
3.126595e-02	2.105263e+00	1.703450e-02
6.375031e-02	2.105263e+00	1.787236e-02
1.050105e-01	2.105263e+00	1.417221e-02
1.560448e-01	2.105263e+00	4.777214e-03
2.137742e-01	2.105263e+00	-9.048270e-03
2.782849e-01	2.105263e+00	-2.799567e-02
3.468570e-01	2.105263e+00	-5.051783e-02
4.187060e-01	2.105263e+00	-7.662000e-02
4.916930e-01	2.105263e+00	-1.047585e-01
5.642168e-01	2.105263e+00	-1.343226e-01
6.348639e-01	2.105263e+00	-1.641238e-01
7.013280e-01	2.105263e+00	-1.931337e-01
7.630418e-01	2.105263e+00	-2.206893e-01
8.172084e-01	2.105263e+00	-2.454799e-01
8.641863e-01	2.105263e+00	-2.673591e-01
9.009752e-01	2.105263e+00	-2.848204e-01
9.288372e-01	2.105263e+00	-2.982085e-01
9.448555e-01	2.105263e+00	-3.059908e-01
9.510565e-01	2.105263e+00	-3.090170e-01
9.510565e-01	3.157895e+00	-3.090170e-01
9.442611e-01	3.157895e+00	-3.078203e-01
9.267277e-01	3.157895e+00	-3.047010e-01
8.963175e-01	3.157895e+00	-2.991555e-01
8.562911e-01	3.157895e+00	-2.916579e-01
8.054250e-01	3.157895e+00	-2.817457e-01
7.470317e-01	3.157895e+00	-2.699633e-01
6.809074e-01	3.157895e+00	-2.559818e-01
6.100852e-01	3.157895e+00	-2.403847e-01
5.354138e-01	3.157895e+00	-2.229691e-01
4.593635e-01	3.157895e+00	-2.042585e-01
3.837764e-01	3.157895e+00	-1.841224e-01
3.103069e-01	3.157895e+00	-1.630077e-01
2.415927e-01	3.157895e+00	-1.409228e-01
1.782654e-01	3.157895e+00	-1.183331e-01
1.234349e-01	3.157895e+00	-9.558566e-02
7.662509e-02	3.157895e+00	-7.318920e-02
4.106998e-02	3.157895e+00	-5.193053e-02
1.528206e-02	3.157895e+00	-3.215886e-02
2.347037e-03	3.157895e+00	-1.488740e-02
0.000000e+00	3.157895e+00	0.000000e+00
1.064939e-02	3.157895e+00	1.066461e-02
3.126595e-02	3.157895e+00	1.703450e-02
6.375031e-02	3.157895e+00	1.787236e-02
1.050105e-01	3.157895e+00	1.417221e-02
1.560448e-01	3.157895e+00	4.777214e-03
2.137742e-01	3.157895e+00	-9.048270e-03
2.782849e-01	3.157895e+00	-2.799567e-02
3.468570e-01	3.157895e+00	-5.051783e-02
4.187060e-01	3.157895e+00	-7.662000e-02
4.916930e-01	3.157895e+00	-1.047585e-01
5.642168e-01	3.157895e+00	-1.343226e-01
6.348639e-01	3.157895e+00	-1.641238e-01
7.013280e-01	3.157895e+00	-1.931337e-01
7.630418e-01	3.157895e+00	-2.206893e-01
8.172084e-01	3.157895e+00	-2.454799e-01
8.641863e-01	3.157895e+00	-2.673591e-01
9.009752e-01	3.157895e+00	-2.848204e-01
9.288372e-01	3.157895e+00	-2.982085e-01
9.448555e-01	3.157895e+00	-3.059908e-01
9.510565e-01	3.157895e+00	-3.090170e-01
9.510565e-01	4.210526e+00	-3.090170e-01
9.442611e-01	4.210526e+00	-3.078203e-01
9.267277e-01	4.210526e+00	-3.047010e-01
8.963175e-01	4.210526e+00	-2.991555e-01
8.562911e-01	4.210526e+00	-2.916579e-01
8.054250e-01	4.210526e+00	-2.817457e-01
7.470317e-01	4.210526e+00	-2.699633e-01
6.809074e-01	4.210526e+00	-2.559818e-01
6.100852e-01	4.210526e+00	-2.403847e-01
5.354138e-01	4.210526e+00	-2.229691e-01
4.593635e-01	4.210526e+00	-2.042585e-01
3.837764e-01	4.210526e+00	-1.841224e-01
3.103069e-01	4.210526e+00	-1.630077e-01
2.415927e-01	4.210526e+00	-1.409228e-01
1.782654e-01	4.210526e+00	-1.183331e-01
1.234349e-01	4.210526e+00	-9.558566e-02
7.662509e-02	4.210526e+00	-7.318920e-02
4.106998e-02	4.210526e+00	-5.193053e-02
1.528206e-02	4.210526e+00	-3.215886e-02
2.347037e-03	4.210526e+00	-1.488740e-02
0.000000e+00	4.210526e+00	0.000000e+00
1.064939e-02	4.210526e+00	1.066461e-02
3.126595e-02	4.210526e+00	1.703450e-02
6.375031e-02	4.210526e+00	1.787236e-02
1.050105e-01	4.210526e+00	1.417221e-02
1.560448e-01	4.210526e+00	4.777214e-03
2.137742e-01	4.210526e+00	-9.048270e-03
2.782849e-01	4.210526e+00	-2.799567e-02
3.468570e-01	4.210526e+00	-5.051783e-02
4.187060e-01	4.210526e+00	-7.662000e-02
4.916930e-01	4.210526e+00	-1.047585e-01
5.642168e-01	4.210526e+00	-1.343226e-01
6.348639e-01	4.210526e+00	-1.641238e-01
7.013280e-01	4.210526e+00	-1.931337e-01
7.630418e-01	4.210526e+00	-2.206893e-01
8.172084e-01	4.210526e+00	-2.454799e-01
8.641863e-01	4.210526e+00	-2.673591e-01
9.009752e-01	4.210526e+00	-2.848204e-01
9.288372e-01	4.210526e+00	-2.982085e-01
9.448555e-01	4.210526e+00	-3.059908e-01
9.510565e-01	4.210526e+00	-3.090170e-01
9.510565e-01	5.263158e+00	-3.090170e-01
9.442611e-01	5.263158e+00	-3.078203e-01
9.267277e-01	5.263158e+00	-3.047010e-01
8.963175e-01	5.263158e+00	-2.991555e-01
8.562911e-01	5.263158e+00	-2.916579e-01
8.054250e-01	5.263158e+00	-2.817457e-01
7.470317e-01	5.263158e+00	-2.699633e-01
6.809074e-01	5.263158e+00	-2.559818e-01
6.100852e-01	5.263158e+00	-2.403847e-01
5.354138e-01	5.263158e+00	-2.229691e-01
4.593635e-01	5.263158e+00	-2.042585e-01
3.837764e-01	5.263158e+00	-1.841224e-01
3.103069e-01	5.263158e+00	-1.630077e-01
2.415927e-01	5.263158e+00	-1.409228e-01
1.782654e-01	5.263158e+00	-1.183331e-01
1.234349e-01	5.263158e+00	-9.558566e-02
7.662509e-02	5.263158e+00	-7.318920e-02
4.106998e-02	5.263158e+00	-5.193053e-02
1.528206e-02	5.263158e+00	-3.215886e-02
2.347037e-03	5.263158e+00	-1.488740e-02
0.000000e+00	5.263158e+00	0.000000e+00
1.064939e-02	5.263158e+00	1.066461e-02
3.126595e-02	5.263158e+00	1.703450e-02
6.375031e-02	5.263158e+00	1.787236e-02
1.050105e-01	5.263158e+00	1.417221e-02
1.560448e-01	5.263158e+00	4.777214e-03
2.137742e-01	5.263158e+00	-9.048270e-03
2.782849e-01	5.263158e+00	-2.799567e-02
3.468570e-01	5.263158e+00	-5.051783e-02
4.187060e-01	5.263158e+00	-7.662000e-02
4.916930e-01	5.263158e+00	-1.047585e-01
5.642168e-01	5.263158e+00	-1.343226e-01
6.348639e-01	5.263158e+00	-1.641238e-01
7.013280e-01	5.263158e+00	-1.931337e-01
7.630418e-01	5.263158e+00	-2.206893e-01
8.172084e-01	5.263158e+00	-2.454799e-01
8.641863e-01	5.263158e+00	-2.673591e-01
9.009752e-01	5.263158e+00	-2.848204e-01
9.288372e-01	5.263158e+00	-2.982085e-01
9.448555e-01	5.263158e+00	-3.059908e-01
9.510565e-01	5.263158e+00	-3.090170e-01
9.510565e-01	6.315789e+00	-3.090170e-01
9.442611e-01	6.315789e+00	-3.078203e-01
[...]
CELL_DATA 760
VECTORS V double
8.415164e-01	-6.888281e-02	-1.481879e-01
8.656645e-01	-6.870968e-02	-1.540071e-01
8.837164e-01	-6.826122e-02	-1.611541e-01
8.955245e-01	-6.746907e-02	-1.677455e-01
8.980353e-01	-6.631137e-02	-1.749991e-01
8.993932e-01	-6.477047e-02	-1.814763e-01
8.924055e-01	-6.283615e-02	-1.886925e-01
8.851490e-01	-6.048432e-02	-1.949355e-01
8.708690e-01	-5.768672e-02	-2.031130e-01
8.552603e-01	-5.441102e-02	-2.104187e-01
8.301165e-01	-5.062184e-02	-2.211403e-01
7.993155e-01	-4.633807e-02	-2.297184e-01
7.519810e-01	-4.155675e-02	-2.416879e-01
6.900943e-01	-3.634153e-02	-2.461660e-01
6.035886e-01	-3.073037e-02	-2.504098e-01
4.731245e-01	-2.484524e-02	-2.263696e-01
2.717072e-01	-1.869473e-02	-1.624558e-01
-1.549016e-02	-1.244475e-02	1.187635e-02
-4.196707e-01	-5.896316e-03	5.603643e-01
-3.417976e-01	6.652071e-04	2.168043e+00
2.323048e+00	8.356527e-03	2.326368e+00
2.538478e+00	1.510262e-02	7.843123e-01
2.208324e+00	2.203000e-02	5.695868e-02
1.923892e+00	2.885926e-02	-1.725314e-01
1.718965e+00	3.582995e-02	-3.164478e-01
1.569485e+00	4.277899e-02	-3.758722e-01
1.434829e+00	4.969956e-02	-4.214225e-01
1.336155e+00	5.641315e-02	-4.388537e-01
1.250244e+00	6.280150e-02	-4.542035e-01
1.181400e+00	6.867031e-02	-4.554624e-01
1.121592e+00	7.389904e-02	-4.572134e-01
1.071399e+00	7.835344e-02	-4.519507e-01
1.027307e+00	8.197148e-02	-4.483936e-01
9.870683e-01	8.474584e-02	-4.407326e-01
9.498820e-01	8.672827e-02	-4.347343e-01
9.114673e-01	8.801645e-02	-4.245020e-01
8.743303e-01	8.873875e-02	-4.149862e-01
8.341827e-01	8.904390e-02	-4.008400e-01
7.910762e-01	8.908711e-02	-3.843354e-01
7.483426e-01	8.904135e-02	-3.651983e-01
8.269884e-01	-4.846251e-02	-1.456296e-01
8.475176e-01	-4.833892e-02	-1.507786e-01
8.620275e-01	-4.802228e-02	-1.571989e-01
8.707637e-01	-4.746218e-02	-1.631074e-01
8.705673e-01	-4.663862e-02	-1.696464e-01
8.692355e-01	-4.555867e-02	-1.753912e-01
8.592944e-01	-4.386321e-02	-1.816914e-01
8.484888e-01	-4.216965e-02	-1.868619e-01
8.298867e-01	-4.012616e-02	-1.935547e-01
8.088819e-01	-3.773695e-02	-1.990082e-01
7.773615e-01	-3.498026e-02	-2.070865e-01
7.389188e-01	-3.189036e-02	-2.123607e-01
6.825697e-01	-2.846392e-02	-2.193790e-01
6.096890e-01	-2.474876e-02	-2.174844e-01
5.100711e-01	-2.077086e-02	-2.116124e-01
3.623325e-01	-1.661685e-02	-1.733604e-01
1.392901e-01	-1.228107e-02	-8.328261e-02
-1.791202e-01	-7.880920e-03	1.373320e-01
-6.005707e-01	-3.276334e-03	8.019107e-01
-4.187424e-01	1.330352e-03	2.656108e+00
2.677565e+00	6.715720e-03	2.681391e+00
2.840078e+00	1.141904e-02	8.774975e-01
2.430455e+00	1.622033e-02	6.268803e-02
2.095261e+00	2.091725e-02	-1.878996e-01
1.858918e+00	2.566954e-02	-3.422119e-01
1.688440e+00	3.035722e-02	-4.043606e-01
1.538086e+00	3.497169e-02	-4.517501e-01
1.426995e+00	3.939736e-02	-4.686895e-01
1.330127e+00	4.356258e-02	-4.832243e-01
1.251427e+00	4.735630e-02	-4.824598e-01
1.182213e+00	5.067511e-02	-4.819253e-01
1.122960e+00	5.348650e-02	-4.737008e-01
1.070076e+00	5.574561e-02	-4.670615e-01
1.021478e+00	5.747608e-02	-4.560969e-01
9.763807e-01	5.838174e-02	-4.468620e-01
9.306074e-01	5.916634e-02	-4.334162e-01
8.866483e-01	5.956934e-02	-4.208327e-01
8.402417e-01	5.971714e-02	-4.037515e-01
7.916946e-01	5.971433e-02	-3.846358e-01
7.448384e-01	5.967146e-02	-3.634882e-01
8.207753e-01	-2.061646e-02	-1.445355e-01
8.399923e-01	-2.056478e-02	-1.494398e-01
8.530578e-01	-2.043399e-02	-1.555632e-01
8.603699e-01	-2.020196e-02	-1.611605e-01
8.593109e-01	-1.984307e-02	-1.674529e-01
8.508808e-01	-1.934545e-02	-1.716876e-01
8.402916e-01	-1.869910e-02	-1.776734e-01
8.319270e-01	-1.789824e-02	-1.832145e-01
8.110466e-01	-1.691786e-02	-1.891606e-01
7.876988e-01	-1.579855e-02	-1.937966e-01
7.537020e-01	-1.452939e-02	-2.007837e-01
7.124789e-01	-1.310893e-02	-2.047621e-01
6.527957e-01	-1.155776e-02	-2.098096e-01
5.758113e-01	-9.912701e-03	-2.053997e-01
4.712706e-01	-7.811572e-03	-1.955153e-01
3.168131e-01	-6.025261e-03	-1.515814e-01
8.512199e-02	-4.157655e-03	-5.089507e-02
-2.457675e-01	-2.252956e-03	1.884306e-01
-6.739175e-01	-2.565716e-04	8.998469e-01
-4.497086e-01	1.736604e-03	2.852529e+00
2.818324e+00	4.050830e-03	2.822352e+00
2.957518e+00	6.047473e-03	9.137828e-01
2.514872e+00	8.051296e-03	6.486540e-02
2.158455e+00	9.969526e-03	-1.935667e-01
1.908701e+00	1.186614e-02	-3.513765e-01
1.728988e+00	1.332518e-02	-4.140714e-01
1.571721e+00	1.508336e-02	-4.616289e-01
1.455261e+00	1.669512e-02	-4.779732e-01
1.353975e+00	1.814337e-02	-4.918883e-01
1.271158e+00	1.941311e-02	-4.900663e-01
1.198349e+00	2.047926e-02	-4.885031e-01
1.136180e+00	2.134307e-02	-4.792770e-01
1.080694e+00	2.198422e-02	-4.716956e-01
1.025476e+00	2.245771e-02	-4.578818e-01
9.770202e-01	2.276167e-02	-4.471547e-01
9.341608e-01	2.292763e-02	-4.350711e-01
8.876291e-01	2.299075e-02	-4.212982e-01
8.394672e-01	2.299383e-02	-4.033793e-01
7.895580e-01	2.296260e-02	-3.835978e-01
7.417779e-01	2.293594e-02	-3.619947e-01
8.183149e-01	-1.025662e-02	-1.441023e-01
8.368922e-01	-1.023519e-02	-1.488883e-01
8.493369e-01	-1.017747e-02	-1.548847e-01
8.557048e-01	-1.007894e-02	-1.602867e-01
8.530995e-01	-9.887998e-03	-1.662425e-01
8.493592e-01	-9.617561e-03	-1.713806e-01
8.369246e-01	-9.587718e-03	-1.769615e-01
8.231152e-01	-9.160807e-03	-1.812739e-01
8.015562e-01	-8.678441e-03	-1.869471e-01
7.775246e-01	-8.105344e-03	-1.912934e-01
7.422083e-01	-7.463568e-03	-1.977218e-01
6.993129e-01	-6.741901e-03	-2.009782e-01
6.381635e-01	-5.929691e-03	-2.051068e-01
5.542741e-01	-5.054752e-03	-1.977171e-01
4.463975e-01	-4.121817e-03	-1.851962e-01
2.950627e-01	-3.149737e-03	-1.411747e-01
5.874290e-02	-2.134184e-03	-3.512282e-02
-2.788694e-01	-1.103646e-03	2.138100e-01
-7.107126e-01	-2.710233e-05	9.489775e-01
-4.652890e-01	1.044303e-03	2.951356e+00
2.888967e+00	2.282509e-03	2.893095e+00
3.016144e+00	3.343759e-03	9.318965e-01
2.556816e+00	4.399849e-03	6.594723e-02
2.189833e+00	5.399899e-03	-1.963806e-01
1.925628e+00	6.371561e-03	-3.544927e-01
1.743965e+00	7.290656e-03	-4.176580e-01
1.589061e+00	8.151913e-03	-4.667217e-01
1.469388e+00	8.938823e-03	-4.826133e-01
1.365538e+00	9.654983e-03	-4.960888e-01
1.280902e+00	1.027458e-02	-4.938229e-01
1.206381e+00	1.080941e-02	-4.917773e-01
1.142202e+00	1.122895e-02	-4.818175e-01
1.085000e+00	1.155738e-02	-4.735754e-01
1.032754e+00	1.176536e-02	-4.611317e-01
9.840359e-01	1.220835e-02	-4.503655e-01
9.350350e-01	1.226705e-02	-4.354783e-01
8.883318e-01	1.228432e-02	-4.216317e-01
8.395838e-01	1.230178e-02	-4.034353e-01
7.889279e-01	1.229347e-02	-3.832916e-01
7.407564e-01	1.228440e-02	-3.614962e-01
8.171777e-01	-5.703668e-03	-1.439020e-01
8.353501e-01	-5.692628e-03	-1.486139e-01
8.476101e-01	-5.662234e-03	-1.545698e-01
8.528976e-01	-5.600270e-03	-1.597608e-01
8.498926e-01	-5.506707e-03	-1.656176e-01
8.459817e-01	-5.386511e-03	-1.706991e-01
8.329719e-01	-5.197324e-03	-1.761257e-01
8.189906e-01	-4.960875e-03	-1.803655e-01
7.968003e-01	-4.696402e-03	-1.858379e-01
7.717496e-01	-4.373400e-03	-1.898726e-01
7.358821e-01	-3.986556e-03	-1.960365e-01
6.920415e-01	-3.564463e-03	-1.988885e-01
6.293615e-01	-3.075269e-03	-2.022778e-01
5.489520e-01	-2.637670e-03	-1.958187e-01
4.402710e-01	-2.393873e-03	-1.826545e-01
2.802189e-01	-1.768237e-03	-1.340726e-01
4.142058e-02	-1.137994e-03	-2.476567e-02
-2.996592e-01	-4.991172e-04	2.297496e-01
-7.332363e-01	1.600003e-04	9.790522e-01
-4.746770e-01	8.114606e-04	3.010905e+00
2.931022e+00	1.559823e-03	2.935211e+00
3.050624e+00	2.197025e-03	9.425498e-01
2.581059e+00	2.825954e-03	6.657254e-02
2.207285e+00	3.413069e-03	-1.979457e-01
1.946633e+00	3.981928e-03	-3.583595e-01
1.759467e+00	4.825706e-03	-4.213708e-01
1.596649e+00	5.262221e-03	-4.689506e-01
1.476088e+00	5.772403e-03	-4.848140e-01
1.371376e+00	6.140439e-03	-4.982098e-01
1.285725e+00	6.482264e-03	-4.956826e-01
1.210301e+00	6.772439e-03	-4.933753e-01
1.145738e+00	6.995334e-03	-4.833090e-01
1.087892e+00	7.189304e-03	-4.748377e-01
1.034655e+00	7.314830e-03	-4.619804e-01
9.854431e-01	7.417339e-03	-4.510096e-01
9.356417e-01	7.461188e-03	-4.357608e-01
8.884202e-01	7.481828e-03	-4.216737e-01
8.398947e-01	7.482469e-03	-4.035847e-01
7.887602e-01	7.479387e-03	-3.832101e-01
7.403888e-01	7.475057e-03	-3.613168e-01
8.164621e-01	-3.305910e-03	-1.437760e-01
8.344562e-01	-3.298945e-03	-1.484549e-01
8.460698e-01	-3.280677e-03	-1.542889e-01
8.517471e-01	-3.235233e-03	-1.595453e-01
8.487548e-01	-3.195781e-03	-1.653958e-01
8.439509e-01	-3.108361e-03	-1.702894e-01
8.303441e-01	-3.006032e-03	-1.755701e-01
8.159896e-01	-2.861166e-03	-1.797046e-01
7.936245e-01	-2.679421e-03	-1.850972e-01
7.682040e-01	-2.475912e-03	-1.890003e-01
7.316347e-01	-2.233719e-03	-1.949050e-01
6.871745e-01	-1.943859e-03	-1.974897e-01
6.252523e-01	-1.636634e-03	-2.009571e-01
5.439956e-01	-1.417481e-03	-1.940506e-01
4.326320e-01	-1.060390e-03	-1.794854e-01
2.719036e-01	-7.029815e-04	-1.300941e-01
3.163478e-02	-3.339826e-04	-1.891467e-02
-3.121009e-01	5.809588e-05	2.392887e-01
-7.469318e-01	4.665620e-04	9.973390e-01
-4.804301e-01	8.718231e-04	3.047397e+00
2.956835e+00	1.337905e-03	2.961060e+00
3.071773e+00	1.734362e-03	9.490842e-01
2.595915e+00	2.124670e-03	6.695571e-02
2.218456e+00	2.487940e-03	-1.989475e-01
1.954526e+00	2.871444e-03	-3.598125e-01
1.765478e+00	3.186612e-03	-4.228103e-01
1.603465e+00	3.476801e-03	-4.709523e-01
1.481513e+00	3.850399e-03	-4.865955e-01
1.374791e+00	4.069822e-03	-4.994506e-01
1.288876e+00	4.265791e-03	-4.968974e-01
1.212807e+00	4.456765e-03	-4.943967e-01
1.147524e+00	4.572119e-03	-4.840624e-01
1.089286e+00	4.667258e-03	-4.754463e-01
1.036043e+00	4.740308e-03	-4.626001e-01
9.864366e-01	4.800585e-03	-4.514643e-01
9.362716e-01	4.825904e-03	-4.360542e-01
8.888751e-01	4.857660e-03	-4.218896e-01
8.395310e-01	4.850301e-03	-4.034100e-01
7.886016e-01	4.847894e-03	-3.831331e-01
7.400934e-01	4.844827e-03	-3.611726e-01
8.160088e-01	-2.057747e-03	-1.436962e-01
8.338747e-01	-2.053885e-03	-1.483515e-01
8.453222e-01	-2.044301e-03	-1.541525e-01
8.508106e-01	-2.026902e-03	-1.593699e-01
8.472542e-01	-2.019131e-03	-1.651034e-01
8.426959e-01	-2.033564e-03	-1.700361e-01
8.291389e-01	-1.928851e-03	-1.753153e-01
8.143363e-01	-1.818760e-03	-1.793405e-01
7.916031e-01	-1.697463e-03	-1.846258e-01
7.658975e-01	-1.548202e-03	-1.884328e-01
7.289296e-01	-1.395295e-03	-1.941844e-01
6.840812e-01	-1.251617e-03	-1.966007e-01
6.220023e-01	-1.067952e-03	-1.999126e-01
5.404768e-01	-7.633749e-04	-1.927954e-01
4.286292e-01	-5.706479e-04	-1.778247e-01
2.668381e-01	-3.425854e-04	-1.276705e-01
2.520861e-02	-8.963492e-05	-1.507242e-02
-3.201388e-01	1.554469e-04	2.454514e-01
-7.557158e-01	4.121484e-04	1.009068e+00
-4.841008e-01	6.674224e-04	3.070681e+00
2.973267e+00	9.615521e-04	2.977516e+00
3.085183e+00	1.212144e-03	9.532273e-01
2.605283e+00	1.459364e-03	6.719734e-02
2.225869e+00	1.688966e-03	-1.996122e-01
1.960563e+00	1.899219e-03	-3.609239e-01
1.769825e+00	2.130654e-03	-4.238513e-01
1.606772e+00	2.326906e-03	-4.719237e-01
1.484250e+00	2.398083e-03	-4.874945e-01
1.376789e+00	2.579104e-03	-5.001762e-01
1.290610e+00	2.713322e-03	-4.975657e-01
1.214140e+00	2.810362e-03	-4.949401e-01
1.148426e+00	2.903503e-03	-4.844431e-01
1.090143e+00	2.979177e-03	-4.758200e-01
1.036578e+00	3.038769e-03	-4.628388e-01
9.868478e-01	3.159504e-03	-4.516525e-01
9.366898e-01	3.182958e-03	-4.362490e-01
8.890900e-01	3.171721e-03	-4.219916e-01
8.395688e-01	3.166181e-03	-4.034281e-01
7.885151e-01	3.162381e-03	-3.830911e-01
7.399191e-01	3.160012e-03	-3.610876e-01
8.158140e-01	-1.145551e-03	-1.436619e-01
8.336750e-01	-1.142889e-03	-1.483159e-01
8.451242e-01	-1.136016e-03	-1.541164e-01
8.511532e-01	-1.123168e-03	-1.594341e-01
8.489299e-01	-1.101456e-03	-1.654300e-01
8.422600e-01	-1.091541e-03	-1.699482e-01
8.270369e-01	-1.037316e-03	-1.748708e-01
8.126989e-01	-1.009230e-03	-1.789799e-01
7.899714e-01	-1.013709e-03	-1.842452e-01
7.642380e-01	-9.147659e-04	-1.880245e-01
7.277563e-01	-8.173030e-04	-1.938718e-01
6.828184e-01	-7.156523e-04	-1.962378e-01
6.185163e-01	-6.332147e-04	-1.987922e-01
5.365153e-01	-4.065807e-04	-1.913823e-01
4.258128e-01	-2.861214e-04	-1.766562e-01
2.630711e-01	-1.604751e-04	-1.258681e-01
2.096895e-02	-3.105985e-06	-1.253749e-02
-3.249321e-01	1.399905e-04	2.491264e-01
-7.610719e-01	2.905409e-04	1.016220e+00
-4.863711e-01	4.405818e-04	3.085081e+00
2.983518e+00	6.134068e-04	2.987781e+00
3.093644e+00	7.605543e-04	9.558417e-01
2.611240e+00	9.058645e-04	6.735098e-02
2.229312e+00	1.042657e-03	-1.999210e-01
1.963446e+00	1.161073e-03	-3.614547e-01
1.772777e+00	1.284930e-03	-4.245582e-01
1.607427e+00	1.403567e-03	-4.721160e-01
1.485061e+00	1.396907e-03	-4.877610e-01
1.378891e+00	1.514949e-03	-5.009401e-01
1.291793e+00	1.591665e-03	-4.980219e-01
1.215187e+00	1.632836e-03	-4.953671e-01
1.149680e+00	1.776199e-03	-4.849721e-01
1.091096e+00	1.800727e-03	-4.762360e-01
1.038589e+00	1.832882e-03	-4.637367e-01
9.888435e-01	1.828941e-03	-4.525658e-01
9.365578e-01	1.854671e-03	-4.361875e-01
8.884761e-01	1.855094e-03	-4.217002e-01
8.392368e-01	1.854232e-03	-4.032686e-01
7.882923e-01	1.852342e-03	-3.829828e-01
7.397306e-01	1.850905e-03	-3.609956e-01
8.155620e-01	-1.342571e-03	-1.436175e-01
8.333182e-01	-1.342281e-03	-1.482524e-01
8.446294e-01	-1.340865e-03	-1.540262e-01
8.499254e-01	-1.336374e-03	-1.592041e-01
8.466406e-01	-1.270927e-03	-1.649839e-01
8.415406e-01	-1.207900e-03	-1.698030e-01
8.278926e-01	-1.092682e-03	-1.750518e-01
8.140156e-01	-1.155146e-03	-1.792699e-01
7.903036e-01	-9.626111e-04	-1.843227e-01
7.633198e-01	-1.009249e-03	-1.877986e-01
7.263266e-01	-6.740663e-04	-1.934910e-01
6.816204e-01	-7.451596e-04	-1.958935e-01
6.177684e-01	-3.148719e-04	-1.985518e-01
5.352357e-01	-3.822030e-04	-1.909259e-01
4.246245e-01	1.045500e-04	-1.761633e-01
2.616691e-01	4.369873e-04	-1.251973e-01
1.875019e-02	6.269289e-04	-1.121088e-02
-3.276450e-01	6.456880e-04	2.512064e-01
-7.640159e-01	6.912139e-04	1.020150e+00
-4.875922e-01	7.497710e-04	3.092827e+00
2.988940e+00	8.271268e-04	2.993211e+00
3.098033e+00	9.015326e-04	9.571977e-01
2.614360e+00	9.881821e-04	6.743144e-02
2.232147e+00	1.096336e-03	-2.001752e-01
1.965445e+00	1.026376e-03	-3.618227e-01
1.773980e+00	8.065973e-04	-4.248462e-01
1.608378e+00	4.238881e-04	-4.723953e-01
1.485851e+00	5.851063e-04	-4.880204e-01
1.379319e+00	2.378046e-04	-5.010953e-01
1.292096e+00	3.770878e-04	-4.981385e-01
1.216443e+00	1.024672e-04	-4.958791e-01
1.150596e+00	2.473804e-04	-4.853583e-01
1.090895e+00	9.749153e-06	-4.761483e-01
1.037008e+00	5.773988e-05	-4.630308e-01
9.871647e-01	-1.890641e-04	-4.517975e-01
9.372185e-01	-1.571151e-04	-4.364953e-01
8.890838e-01	-1.647131e-04	-4.219886e-01
8.394911e-01	-1.521138e-04	-4.033908e-01
7.883532e-01	-1.474604e-04	-3.830124e-01
7.396989e-01	-1.463511e-04	-3.609801e-01
8.157653e-01	4.851125e-05	-1.436533e-01
8.335692e-01	4.856645e-05	-1.482971e-01
8.449086e-01	4.970899e-05	-1.540771e-01
8.492258e-01	3.182361e-05	-1.590730e-01
8.463529e-01	3.023419e-05	-1.649278e-01
8.391300e-01	4.712706e-05	-1.693166e-01
8.263580e-01	1.667165e-05	-1.747273e-01
8.107382e-01	4.792019e-05	-1.785481e-01
7.880668e-01	1.234255e-04	-1.838010e-01
7.604262e-01	1.100106e-04	-1.870867e-01
7.242715e-01	8.446102e-05	-1.929435e-01
6.781607e-01	6.106622e-05	-1.948992e-01
6.132477e-01	2.700249e-05	-1.970988e-01
5.306729e-01	2.762339e-05	-1.892982e-01
4.123025e-01	2.555702e-05	-1.710513e-01
2.532030e-01	4.401396e-05	-1.211467e-01
1.608224e-02	3.886021e-05	-9.615691e-03
-3.264717e-01	3.400616e-05	2.503068e-01
-7.638713e-01	2.962204e-05	1.019957e+00
-4.878231e-01	2.560766e-05	3.094292e+00
2.991032e+00	2.105752e-05	2.995306e+00
3.100840e+00	1.711107e-05	9.580650e-01
2.617650e+00	1.317459e-05	6.751631e-02
2.229746e+00	9.749982e-06	-1.999599e-01
1.957353e+00	-1.625070e-05	-3.603331e-01
1.762260e+00	-1.876565e-05	-4.220396e-01
1.604468e+00	-2.299023e-05	-4.712470e-01
1.482253e+00	-3.080844e-05	-4.868388e-01
1.376305e+00	-7.889401e-06	-5.000004e-01
1.290053e+00	5.856620e-06	-4.973511e-01
1.213538e+00	1.785057e-05	-4.946948e-01
1.148591e+00	-6.049653e-05	-4.845127e-01
1.088449e+00	-4.891662e-05	-4.750807e-01
1.035940e+00	-2.800064e-05	-4.625542e-01
9.851158e-01	-2.797798e-05	-4.508598e-01
9.370775e-01	-4.898659e-05	-4.364296e-01
8.885314e-01	-4.955659e-05	-4.217265e-01
8.398078e-01	-3.276304e-05	-4.035430e-01
7.886148e-01	-3.447914e-05	-3.831395e-01
7.399005e-01	-3.469144e-05	-3.610785e-01
8.155528e-01	1.484582e-03	-1.436159e-01
8.332389e-01	1.484768e-03	-1.482383e-01
8.453058e-01	1.485133e-03	-1.541496e-01
8.503570e-01	1.486406e-03	-1.592849e-01
8.462988e-01	1.428030e-03	-1.649172e-01
8.418281e-01	1.446597e-03	-1.698610e-01
8.278345e-01	1.288478e-03	-1.750395e-01
8.124799e-01	1.308596e-03	-1.789317e-01
7.894897e-01	1.100369e-03	-1.841329e-01
7.638320e-01	1.136745e-03	-1.879247e-01
7.269667e-01	7.156365e-04	-1.936615e-01
6.823840e-01	8.079641e-04	-1.961130e-01
6.182489e-01	3.791673e-04	-1.987062e-01
5.352553e-01	4.451096e-04	-1.909328e-01
4.243790e-01	-4.301195e-05	-1.760614e-01
2.613853e-01	-3.961586e-04	-1.250615e-01
1.896487e-02	-5.888480e-04	-1.133923e-02
-3.274059e-01	-6.116170e-04	2.510231e-01
-7.637819e-01	-6.622019e-04	1.019838e+00
-4.874995e-01	-7.264463e-04	3.092239e+00
2.988523e+00	-8.110069e-04	2.992794e+00
3.097686e+00	-8.920936e-04	9.570905e-01
2.614124e+00	-9.859587e-04	6.742537e-02
2.231352e+00	-1.099368e-03	-2.001039e-01
1.964913e+00	-1.038162e-03	-3.617248e-01
1.773862e+00	-8.079371e-04	-4.248181e-01
1.608192e+00	-4.344200e-04	-4.723409e-01
1.486074e+00	-6.042567e-04	-4.880937e-01
1.379795e+00	-2.897336e-04	-5.012682e-01
1.292420e+00	-3.529163e-04	-4.982637e-01
1.215618e+00	-1.016975e-04	-4.955428e-01
1.149723e+00	-2.693903e-04	-4.849900e-01
1.091324e+00	-5.333403e-05	-4.763356e-01
1.037323e+00	-1.073056e-04	-4.631715e-01
9.868516e-01	2.387152e-05	-4.516542e-01
9.367830e-01	-1.418543e-05	-4.362924e-01
8.894032e-01	3.165859e-05	-4.221402e-01
8.400571e-01	2.300058e-05	-4.036628e-01
7.882405e-01	1.947348e-05	-3.829576e-01
7.396664e-01	1.849027e-05	-3.609643e-01
8.157342e-01	1.260184e-03	-1.436478e-01
8.335380e-01	1.257424e-03	-1.482916e-01
8.448484e-01	1.249304e-03	-1.540661e-01
8.508307e-01	1.259605e-03	-1.593736e-01
8.470099e-01	1.165198e-03	-1.650558e-01
8.417352e-01	1.140007e-03	-1.698423e-01
8.283474e-01	1.125389e-03	-1.751479e-01
8.135112e-01	1.062988e-03	-1.791588e-01
7.903197e-01	9.929859e-04	-1.843265e-01
7.655053e-01	8.882280e-04	-1.883363e-01
7.286105e-01	8.136608e-04	-1.940994e-01
6.825100e-01	7.139705e-04	-1.961492e-01
6.185136e-01	6.526876e-04	-1.987913e-01
5.365563e-01	5.252493e-04	-1.913969e-01
4.261522e-01	3.931303e-04	-1.767971e-01
2.635330e-01	2.334118e-04	-1.260891e-01
2.111027e-02	8.972762e-05	-1.262199e-02
-3.247036e-01	-5.783372e-05	2.489512e-01
-7.607788e-01	-2.127599e-04	1.015828e+00
-4.862328e-01	-3.670411e-04	3.084204e+00
2.982833e+00	-5.447266e-04	2.987095e+00
3.093028e+00	-6.959346e-04	9.556513e-01
2.610847e+00	-8.449821e-04	6.734084e-02
2.228954e+00	-9.847375e-04	-1.998890e-01
1.963514e+00	-1.118868e-03	-3.614673e-01
1.772776e+00	-1.220009e-03	-4.245581e-01
1.607157e+00	-1.332856e-03	-4.720368e-01
1.484476e+00	-1.429955e-03	-4.875688e-01
1.379485e+00	-1.573881e-03	-5.011558e-01
1.292451e+00	-1.652849e-03	-4.982755e-01
1.214609e+00	-1.734859e-03	-4.951315e-01
1.149115e+00	-1.762331e-03	-4.847334e-01
1.090722e+00	-1.804152e-03	-4.760728e-01
1.036919e+00	-1.860361e-03	-4.629915e-01
9.867825e-01	-1.872729e-03	-4.516226e-01
9.370781e-01	-1.885786e-03	-4.364299e-01
8.895375e-01	-1.817211e-03	-4.222040e-01
8.394073e-01	-1.842187e-03	-4.033505e-01
7.883659e-01	-1.840343e-03	-3.830186e-01
7.397499e-01	-1.839161e-03	-3.610050e-01
8.160159e-01	2.119424e-03	-1.436974e-01
8.338832e-01	2.119134e-03	-1.483530e-01
8.451169e-01	2.037012e-03	-1.541151e-01
8.527740e-01	2.014301e-03	-1.597377e-01
8.485734e-01	1.995968e-03	-1.653605e-01
8.425018e-01	1.934771e-03	-1.699970e-01
8.290545e-01	1.850554e-03	-1.752974e-01
8.143634e-01	1.778298e-03	-1.793465e-01
7.918537e-01	1.669165e-03	-1.846842e-01
7.661836e-01	1.538894e-03	-1.885032e-01
7.292431e-01	1.446315e-03	-1.942679e-01
6.845416e-01	1.286177e-03	-1.967330e-01
6.208439e-01	1.085711e-03	-1.995402e-01
5.391141e-01	8.749353e-04	-1.923093e-01