# vtk DataFile Version 2.0
OUTPUT by 3D-VPM
ASCII
DATASET UNSTRUCTURED_GRID
POINTS 820 double
9.510565e-01	0.000000e+00	-3.090170e-01
9.442611e-01	0.000000e+00	-3.078203e-01
9.267277e-01	0.000000e+00	-3.047010e-01
8.963175e-01	0.000000e+00	-2.991555e-01
8.562911e-01	0.000000e+00	-2.916579e-01
8.054250e-01	0.000000e+00	-2.817457e-01
7.470317e-01	0.000000e+00	-2.699633e-01
6.809074e-01	0.000000e+00	-2.559818e-01
6.100852e-01	0.000000e+00	-2.403847e-01
5.354138e-01	0.000000e+00	-2.229691e-01
4.593635e-01	0.000000e+00	-2.042585e-01
3.837764e-01	0.000000e+00	-1.841224e-01
3.103069e-01	0.000000e+00	-1.630077e-01
2.415927e-01	0.000000e+00	-1.409228e-01
1.782654e-01	0.000000e+00	-1.183331e-01
1.234349e-01	0.000000e+00	-9.558566e-02
7.662509e-02	0.000000e+00	-7.318920e-02
4.106998e-02	0.000000e+00	-5.193053e-02
1.528206e-02	0.000000e+00	-3.215886e-02
2.347037e-03	0.000000e+00	-1.488740e-02
0.000000e+00	0.000000e+00	0.000000e+00
1.064939e-02	0.000000e+00	1.066461e-02
3.126595e-02	0.000000e+00	1.703450e-02
6.375031e-02	0.000000e+00	1.787236e-02
1.050105e-01	0.000000e+00	1.417221e-02
1.560448e-01	0.000000e+00	4.777214e-03
2.137742e-01	0.000000e+00	-9.048270e-03
2.782849e-01	0.000000e+00	-2.799567e-02
3.468570e-01	0.000000e+00	-5.051783e-02
4.187060e-01	0.000000e+00	-7.662000e-02
4.916930e-01	0.000000e+00	-1.047585e-01
5.642168e-01	0.000000e+00	-1.343226e-01
6.348639e-01	0.000000e+00	-1.641238e-01
7.013280e-01	0.000000e+00	-1.931337e-01
7.630418e-01	0.000000e+00	-2.206893e-01
8.172084e-01	0.000000e+00	-2.454799e-01
8.641863e-01	0.000000e+00	-2.673591e-01
9.009752e-01	0.000000e+00	-2.848204e-01
9.288372e-01	0.000000e+00	-2.982085e-01
9.448555e-01	0.000000e+00	-3.059908e-01
9.510565e-01	0.000000e+00	-3.090170e-01
9.510565e-01	1.052632e+00	-3.090170e-01
9.442611e-01	1.052632e+00	-3.078203e-01
9.267277e-01	1.052632e+00	-3.047010e-01
8.963175e-01	1.052632e+00	-2.991555e-01
8.562911e-01	1.052632e+00	-2.916579e-01
8.054250e-01	1.052632e+00	-2.817457e-01
7.470317e-01	1.052632e+00	-2.699633e-01
6.809074e-01	1.052632e+00	-2.559818e-01
6.100852e-01	1.052632e+00	-2.403847e-01
5.354138e-01	1.052632e+00	-2.229691e-01
4.593635e-01	1.052632e+00	-2.042585e-01
3.837764e-01	1.052632e+00	-1.841224e-01
3.103069e-01	1.052632e+00	-1.630077e-01
2.415927e-01	1.052632e+00	-1.409228e-01
1.782654e-01	1.052632e+00	-1.183331e-01
1.234349e-01	1.052632e+00	-9.558566e-02
7.662509e-02	1.052632e+00	-7.318920e-02
4.106998e-02	1.052632e+00	-5.193053e-02
1.528206e-02	1.052632e+00	-3.215886e-02
2.347037e-03	1.052632e+00	-1.488740e-02
0.000000e+00	1.052632e+00	0.000000e+00
1.064939e-02	1.052632e+00	1.066461e-02
3.126595e-02	1.052632e+00	1.703450e-02
6.375031e-02	1.052632e+00	1.787236e-02
1.050105e-01	1.052632e+00	1.417221e-02
1.560448e-01	1.052632e+00	4.777214e-03
2.137742e-01	1.052632e+00	-9.048270e-03
2.782849e-01	1.052632e+00	-2.799567e-02
3.468570e-01	1.052632e+00	-5.051783e-02
4.187060e-01	1.052632e+00	-7.662000e-02
4.916930e-01	1.052632e+00	-1.047585e-01
5.642168e-01	1.052632e+00	-1.343226e-01
6.348639e-01	1.052632e+00	-1.641238e-01
7.013280e-01	1.052632e+00	-1.931337e-01
7.630418e-01	1.052632e+00	-2.206893e-01
8.172084e-01	1.052632e+00	-2.454799e-01
8.641863e-01	1.052632e+00	-2.673591e-01
9.009752e-01	1.052632e+00	-2.848204e-01
9.288372e-01	1.052632e+00	-2.982085e-01
9.448555e-01	1.052632e+00	-3.059908e-01
9.510565e-01	1.052632e+00	-3.090170e-01
9.510565e-01	2.105263e+00	-3.090170e-01
9.442611e-01	2.105263e+00	-3.078203e-01
9.267277e-01	2.105263e+00	-3.047010e-01
8.963175e-01	2.105263e+00	-2.991555e-01
8.562911e-01	2.105263e+00	-2.916579e-01
8.054250e-01	2.105263e+00	-2.817457e-01
7.470317e-01	2.105263e+00	-2.699633e-01
6.809074e-01	2.105263e+00	-2.559818e-01
6.100852e-01	2.105263e+00	-2.403847e-01
5.354138e-01	2.105263e+00	-2.229691e-01
4.593635e-01	2.105263e+00	-2.042585e-01
3.837764e-01	2.105263e+00	-1.841224e-01
3.103069e-01	2.105263e+00	-1.630077e-01
2.415927e-01	2.105263e+00	-1.409228e-01
1.782654e-01	2.105263e+00	-1.183331e-01
1.234349e-01	2.105263e+00	-9.558566e-02
7.662509e-02	2.105263e+00	-7.318920e-02
4.106998e-02	2.105263e+00	-5.193053e-02
1.528206e-02	2.105263e+00	-3.215886e-02
2.347037e-03	2.105263e+00	-1.488740e-02
0.000000e+00	2.105263e+00	0.000000e+00
1.064939e-02	2.105263e+00	1.066461e-02
3.126595e-02	2.105263e+00	1.703450e-02
6.375031e-02	2.105263e+00	1.787236e-02
1.050105e-01	2.105263e+00	1.417221e-02
1.560448e-01	2.105263e+00	4.777214e-03
2.137742e-01	2.105263e+00	-9.048270e-03
2.782849e-01	2.105263e+00	-2.799567e-02
3.468570e-01	2.105263e+00	-5.051783e-02
4.187060e-01	2.105263e+00	-7.662000e-02
4.916930e-01	2.105263e+00	-1.047585e-01
5.642168e-01	2.105263e+00	-1.343226e-01
6.348639e-01	2.105263e+00	-1.641238e-01
7.013280e-01	2.105263e+00	-1.931337e-01
7.630418e-01	2.105263e+00	-2.206893e-01
8.172084e-01	2.105263e+00	-2.454799e-01
8.641863e-01	2.105263e+00	-2.673591e-01
9.009752e-01	2.105263e+00	-2.848204e-01
9.288372e-01	2.105263e+00	-2.982085e-01
9.448555e-01	2.105263e+00	-3.059908e-01
9.510565e-01	2.105263e+00	-3.090170e-01
9.510565e-01	3.157895e+00	-3.090170e-01
9.442611e-01	3.157895e+00	-3.078203e-01
9.267277e-01	3.157895e+00	-3.047010e-01
8.963175e-01	3.157895e+00	-2.991555e-01
8.562911e-01	3.157895e+00	-2.916579e-01
8.054250e-01	3.157895e+00	-2.817457e-01
7.470317e-01	3.157895e+00	-2.699633e-01
6.809074e-01	3.157895e+00	-2.559818e-01
6.100852e-01	3.157895e+00	-2.403847e-01
5.354138e-01	3.157895e+00	-2.229691e-01
4.593635e-01	3.157895e+00	-2.042585e-01
3.837764e-01	3.157895e+00	-1.841224e-01
3.103069e-01	3.157895e+00	-1.630077e-01
2.415927e-01	3.157895e+00	-1.409228e-01
1.782654e-01	3.157895e+00	-1.183331e-01
1.234349e-01	3.157895e+00	-9.558566e-02
7.662509e-02	3.157895e+00	-7.318920e-02
4.106998e-02	3.157895e+00	-5.193053e-02
1.528206e-02	3.157895e+00	-3.215886e-02
2.347037e-03	3.157895e+00	-1.488740e-02
0.000000e+00	3.157895e+00	0.000000e+00
1.064939e-02	3.157895e+00	1.066461e-02
3.126595e-02	3.157895e+00	1.703450e-02
6.375031e-02	3.157895e+00	1.787236e-02
1.050105e-01	3.157895e+00	1.417221e-02
1.560448e-01	3.157895e+00	4.777214e-03
2.137742e-01	3.157895e+00	-9.048270e-03
2.782849e-01	3.157895e+00	-2.799567e-02
3.468570e-01	3.157895e+00	-5.051783e-02
4.187060e-01	3.157895e+00	-7.662000e-02
4.916930e-01	3.157895e+00	-1.047585e-01
5.642168e-01	3.157895e+00	-1.343226e-01
6.348639e-01	3.157895e+00	-1.641238e-01
7.013280e-01	3.157895e+00	-1.931337e-01
7.630418e-01	3.157895e+00	-2.206893e-01
8.172084e-01	3.157895e+00	-2.454799e-01
8.641863e-01	3.157895e+00	-2.673591e-01
9.009752e-01	3.157895e+00	-2.848204e-01
9.288372e-01	3.157895e+00	-2.982085e-01
9.448555e-01	3.157895e+00	-3.059908e-01
9.510565e-01	3.157895e+00	-3.090170e-01
9.510565e-01	4.210526e+00	-3.090170e-01
9.442611e-01	4.210526e+00	-3.078203e-01
9.267277e-01	4.210526e+00	-3.047010e-01
8.963175e-01	4.210526e+00	-2.991555e-01
8.562911e-01	4.210526e+00	-2.916579e-01
8.054250e-01	4.210526e+00	-2.817457e-01
7.470317e-01	4.210526e+00	-2.699633e-01
6.809074e-01	4.210526e+00	-2.559818e-01
6.100852e-01	4.210526e+00	-2.403847e-01
5.354138e-01	4.210526e+00	-2.229691e-01
4.593635e-01	4.210526e+00	-2.042585e-01
3.837764e-01	4.210526e+00	-1.841224e-01
3.103069e-01	4.210526e+00	-1.630077e-01
2.415927e-01	4.210526e+00	-1.409228e-01
1.782654e-01	4.210526e+00	-1.183331e-01
1.234349e-01	4.210526e+00	-9.558566e-02
7.662509e-02	4.210526e+00	-7.318920e-02
4.106998e-02	4.210526e+00	-5.193053e-02
1.528206e-02	4.210526e+00	-3.215886e-02
2.347037e-03	4.210526e+00	-1.488740e-02
0.000000e+00	4.210526e+00	0.000000e+00
1.064939e-02	4.210526e+00	1.066461e-02
3.126595e-02	4.210526e+00	1.703450e-02
6.375031e-02	4.210526e+00	1.787236e-02
1.050105e-01	4.210526e+00	1.417221e-02
1.560448e-01	4.210526e+00	4.777214e-03
2.137742e-01	4.210526e+00	-9.048270e-03
2.782849e-01	4.210526e+00	-2.799567e-02
3.468570e-01	4.210526e+00	-5.051783e-02
4.187060e-01	4.210526e+00	-7.662000e-02
4.916930e-01	4.210526e+00	-1.047585e-01
5.642168e-01	4.210526e+00	-1.343226e-01
6.348639e-01	4.210526e+00	-1.641238e-01
7.013280e-01	4.210526e+00	-1.931337e-01
7.630418e-01	4.210526e+00	-2.206893e-01
8.172084e-01	4.210526e+00	-2.454799e-01
8.641863e-01	4.210526e+00	-2.673591e-01
9.009752e-01	4.210526e+00	-2.848204e-01
9.288372e-01	4.210526e+00	-2.982085e-01
9.448555e-01	4.210526e+00	-3.059908e-01
9.510565e-01	4.210526e+00	-3.090170e-01
9.510565e-01	5.263158e+00	-3.090170e-01
9.442611e-01	5.263158e+00	-3.078203e-01
9.267277e-01	5.263158e+00	-3.047010e-01
8.963175e-01	5.263158e+00	-2.991555e-01
8.562911e-01	5.263158e+00	-2.916579e-01
8.054250e-01	5.263158e+00	-2.817457e-01
7.470317e-01	5.263158e+00	-2.699633e-01
6.809074e-01	5.263158e+00	-2.559818e-01
6.100852e-01	5.263158e+00	-2.403847e-01
5.354138e-01	5.263158e+00	-2.229691e-01
4.593635e-01	5.263158e+00	-2.042585e-01
3.837764e-01	5.263158e+00	-1.841224e-01
3.103069e-01	5.263158e+00	-1.630077e-01
2.415927e-01	5.263158e+00	-1.409228e-01
1.782654e-01	5.263158e+00	-1.183331e-01
1.234349e-01	5.263158e+00	-9.558566e-02
7.662509e-02	5.263158e+00	-7.318920e-02
4.106998e-02	5.263158e+00	-5.193053e-02
1.528206e-02	5.263158e+00	-3.215886e-02
2.347037e-03	5.263158e+00	-1.488740e-02
0.000000e+00	5.263158e+00	0.000000e+00
1.064939e-02	5.263158e+00	1.066461e-02
3.126595e-02	5.263158e+00	1.703450e-02
6.375031e-02	5.263158e+00	1.787236e-02
1.050105e-01	5.263158e+00	1.417221e-02
1.560448e-01	5.263158e+00	4.777214e-03
2.137742e-01	5.263158e+00	-9.048270e-03
2.782849e-01	5.263158e+00	-2.799567e-02
3.468570e-01	5.263158e+00	-5.051783e-02
4.187060e-01	5.263158e+00	-7.662000e-02
4.916930e-01	5.263158e+00	-1.047585e-01
5.642168e-01	5.263158e+00	-1.343226e-01
6.348639e-01	5.263158e+00	-1.641238e-01
7.013280e-01	5.263158e+00	-1.931337e-01
7.630418e-01	5.263158e+00	-2.206893e-01
8.172084e-01	5.263158e+00	-2.454799e-01
8.641863e-01	5.263158e+00	-2.673591e-01
9.009752e-01	5.263158e+00	-2.848204e-01
9.288372e-01	5.263158e+00	-2.982085e-01
9.448555e-01	5.263158e+00	-3.059908e-01
9.510565e-01	5.263158e+00	-3.090170e-01
9.510565e-01	6.315789e+00	-3.090170e-01
9.442611e-01	6.315789e+00	-3.078203e-01
[...]
CELL_DATA 760
VECTORS V double
8.414324e-01	-6.902364e-02	-1.481732e-01
8.655557e-01	-6.885007e-02	-1.539877e-01
8.835736e-01	-6.840034e-02	-1.611280e-01
8.953429e-01	-6.760600e-02	-1.677115e-01
8.978117e-01	-6.644516e-02	-1.749555e-01
8.991282e-01	-6.490019e-02	-1.814228e-01
8.920947e-01	-6.296077e-02	-1.886268e-01
8.847886e-01	-6.060286e-02	-1.948562e-01
8.704590e-01	-5.779802e-02	-2.030174e-01
8.548239e-01	-5.451369e-02	-2.103113e-01
8.295250e-01	-5.072443e-02	-2.209827e-01
7.986099e-01	-4.641605e-02	-2.295156e-01
7.512685e-01	-4.162150e-02	-2.414589e-01
6.892546e-01	-3.639193e-02	-2.458665e-01
6.026171e-01	-3.076526e-02	-2.500068e-01
4.719580e-01	-2.486426e-02	-2.258114e-01
2.702700e-01	-1.869688e-02	-1.615964e-01
-1.727121e-02	-1.242913e-02	1.324188e-02
-4.216435e-01	-5.862476e-03	5.629986e-01
-3.426273e-01	7.170334e-04	2.173306e+00
2.326756e+00	8.429013e-03	2.330081e+00
2.541484e+00	1.519283e-02	7.852411e-01
2.210409e+00	2.213812e-02	5.701245e-02
1.925425e+00	2.898462e-02	-1.726689e-01
1.720110e+00	3.597332e-02	-3.166585e-01
1.570348e+00	4.293911e-02	-3.760791e-01
1.435511e+00	4.987632e-02	-4.216228e-01
1.336705e+00	5.660644e-02	-4.390343e-01
1.250617e+00	6.301130e-02	-4.543390e-01
1.181682e+00	6.889305e-02	-4.555712e-01
1.121858e+00	7.413622e-02	-4.573219e-01
1.071606e+00	7.860371e-02	-4.520377e-01
1.027469e+00	8.223339e-02	-4.484647e-01
9.871977e-01	8.501756e-02	-4.407904e-01
9.499788e-01	8.700762e-02	-4.347786e-01
9.115287e-01	8.830148e-02	-4.245306e-01
8.743633e-01	8.902746e-02	-4.150018e-01
8.341903e-01	8.933458e-02	-4.008436e-01
7.910629e-01	8.937845e-02	-3.843289e-01
7.483124e-01	8.933276e-02	-3.651836e-01
8.268674e-01	-4.833878e-02	-1.456083e-01
8.473582e-01	-4.821449e-02	-1.507503e-01
8.618244e-01	-4.789601e-02	-1.571619e-01
8.705146e-01	-4.733227e-02	-1.630607e-01
8.702704e-01	-4.650062e-02	-1.695886e-01
8.688911e-01	-4.538225e-02	-1.753217e-01
8.588972e-01	-4.396648e-02	-1.816075e-01
8.480335e-01	-4.223833e-02	-1.867616e-01
8.293696e-01	-4.018298e-02	-1.934341e-01
8.083887e-01	-3.778529e-02	-1.988869e-01
7.766095e-01	-3.501557e-02	-2.068862e-01
7.379593e-01	-3.192413e-02	-2.120850e-01
6.816656e-01	-2.848847e-02	-2.190884e-01
6.086275e-01	-2.476362e-02	-2.171057e-01
5.088441e-01	-2.077552e-02	-2.111033e-01
3.608649e-01	-1.660720e-02	-1.726582e-01
1.374838e-01	-1.226043e-02	-8.220257e-02
-1.813623e-01	-7.848588e-03	1.390510e-01
-6.030440e-01	-3.231829e-03	8.052132e-01
-4.197810e-01	1.386975e-03	2.662696e+00
2.682214e+00	6.786342e-03	2.686047e+00
2.843869e+00	1.150170e-02	8.786687e-01
2.433106e+00	1.631515e-02	6.275642e-02
2.097233e+00	2.102379e-02	-1.880764e-01
1.860411e+00	2.578633e-02	-3.424868e-01
1.689590e+00	3.048311e-02	-4.046361e-01
1.539020e+00	3.510832e-02	-4.520242e-01
1.427774e+00	3.954382e-02	-4.689454e-01
1.330691e+00	4.371777e-02	-4.834294e-01
1.251882e+00	4.752253e-02	-4.826352e-01
1.182652e+00	5.084778e-02	-4.821041e-01
1.123325e+00	5.366473e-02	-4.738544e-01
1.070382e+00	5.592371e-02	-4.671951e-01
1.021734e+00	5.762915e-02	-4.562109e-01
9.765849e-01	5.882230e-02	-4.469554e-01
9.307573e-01	5.957399e-02	-4.334860e-01
8.867482e-01	5.997262e-02	-4.208801e-01
8.402932e-01	6.011896e-02	-4.037762e-01
7.917029e-01	6.011531e-02	-3.846398e-01
7.448135e-01	6.007201e-02	-3.634761e-01
8.205736e-01	-2.042007e-02	-1.445000e-01
8.397350e-01	-2.036924e-02	-1.493940e-01
8.527213e-01	-2.023634e-02	-1.555018e-01
8.598835e-01	-1.999933e-02	-1.610694e-01
8.580966e-01	-1.963996e-02	-1.672163e-01
8.551343e-01	-1.914149e-02	-1.725459e-01
8.435155e-01	-1.849418e-02	-1.783551e-01
8.309170e-01	-1.769267e-02	-1.829921e-01
8.103634e-01	-1.670984e-02	-1.890013e-01
7.869798e-01	-1.559530e-02	-1.936197e-01
7.529192e-01	-1.431686e-02	-2.005752e-01
7.116318e-01	-1.290730e-02	-2.045186e-01
6.518204e-01	-1.135083e-02	-2.094961e-01
5.746761e-01	-9.683616e-03	-2.049948e-01
4.699041e-01	-7.915730e-03	-1.949483e-01
3.151745e-01	-6.079614e-03	-1.507973e-01
8.320148e-02	-4.171983e-03	-4.974678e-02
-2.481590e-01	-2.240741e-03	1.902642e-01
-6.765612e-01	-2.250218e-04	9.033768e-01
-4.508206e-01	1.783263e-03	2.859582e+00
2.823309e+00	4.112378e-03	2.827344e+00
2.961589e+00	6.120372e-03	9.150407e-01
2.517727e+00	8.133884e-03	6.493902e-02
2.160530e+00	1.005779e-02	-1.937527e-01
1.910232e+00	1.194834e-02	-3.516585e-01
1.730194e+00	1.375200e-02	-4.143602e-01
1.572714e+00	1.546420e-02	-4.619206e-01
1.456068e+00	1.704436e-02	-4.782383e-01
1.354607e+00	1.847504e-02	-4.921178e-01
1.271660e+00	1.974191e-02	-4.902600e-01
1.198765e+00	2.080814e-02	-4.886728e-01
1.136456e+00	2.166844e-02	-4.793938e-01
1.080532e+00	2.230552e-02	-4.716249e-01
1.029155e+00	2.277754e-02	-4.595244e-01
9.815235e-01	2.308028e-02	-4.492157e-01
9.334813e-01	2.324576e-02	-4.347547e-01
8.875207e-01	2.330919e-02	-4.212467e-01
8.394014e-01	2.330814e-02	-4.033477e-01
7.894791e-01	2.327967e-02	-3.835594e-01
7.416805e-01	2.325256e-02	-3.619471e-01
8.183369e-01	-1.022191e-02	-1.441061e-01
8.366192e-01	-1.020086e-02	-1.488397e-01
8.488802e-01	-1.014454e-02	-1.548014e-01
8.553345e-01	-1.003868e-02	-1.602173e-01
8.527752e-01	-9.873433e-03	-1.661793e-01
8.489833e-01	-9.625485e-03	-1.713048e-01
8.365028e-01	-9.312703e-03	-1.768723e-01
8.226151e-01	-8.915124e-03	-1.811638e-01
8.010724e-01	-8.441647e-03	-1.868343e-01
7.769713e-01	-7.877533e-03	-1.911573e-01
7.414758e-01	-7.237763e-03	-1.975267e-01
6.984323e-01	-6.499681e-03	-2.007251e-01
6.368852e-01	-5.693800e-03	-2.046959e-01
5.575860e-01	-4.817977e-03	-1.988985e-01
4.501915e-01	-3.883645e-03	-1.867702e-01
2.919221e-01	-2.907931e-03	-1.396721e-01
5.548007e-02	-1.894161e-03	-3.317195e-02
-2.823187e-01	-8.604321e-04	2.164546e-01
-7.141606e-01	2.200303e-04	9.535813e-01
-4.666565e-01	1.281034e-03	2.960031e+00
2.894889e+00	2.522984e-03	2.899025e+00
3.020845e+00	3.600943e-03	9.333491e-01
2.559943e+00	4.659390e-03	6.602789e-02
2.191761e+00	5.662125e-03	-1.965535e-01
1.934552e+00	6.641445e-03	-3.561356e-01
1.749806e+00	7.561309e-03	-4.190570e-01
1.588828e+00	8.425525e-03	-4.666535e-01
1.469491e+00	9.215181e-03	-4.826471e-01
1.365840e+00	9.931206e-03	-4.961985e-01
1.281322e+00	1.055041e-02	-4.939848e-01
1.206777e+00	1.108908e-02	-4.919386e-01
1.142470e+00	1.152059e-02	-4.819304e-01
1.085232e+00	1.185884e-02	-4.736764e-01
1.032971e+00	1.209713e-02	-4.612283e-01
9.842119e-01	1.225731e-02	-4.504461e-01
9.351803e-01	1.233839e-02	-4.355460e-01
8.883577e-01	1.238239e-02	-4.216440e-01
8.395535e-01	1.239262e-02	-4.034208e-01
7.890924e-01	1.238579e-02	-3.833715e-01
7.406619e-01	1.237712e-02	-3.614501e-01
8.170404e-01	-5.648010e-03	-1.438778e-01
8.352010e-01	-5.635897e-03	-1.485874e-01
8.470216e-01	-5.606953e-03	-1.544624e-01
8.529709e-01	-5.548592e-03	-1.597745e-01
8.496405e-01	-5.453196e-03	-1.655684e-01
8.454009e-01	-5.313523e-03	-1.705819e-01
8.325286e-01	-5.142599e-03	-1.760320e-01
8.185142e-01	-4.923137e-03	-1.802606e-01
7.963579e-01	-4.658340e-03	-1.857347e-01
7.711744e-01	-4.316793e-03	-1.897311e-01
7.349124e-01	-3.932145e-03	-1.957782e-01
6.910538e-01	-3.496219e-03	-1.986046e-01
6.284651e-01	-3.024941e-03	-2.019897e-01
5.477833e-01	-2.604749e-03	-1.954018e-01
4.388249e-01	-2.061566e-03	-1.820546e-01
2.785373e-01	-1.454187e-03	-1.332680e-01
3.948232e-02	-8.448595e-04	-2.360677e-02
-3.022303e-01	-2.253627e-04	2.317208e-01
-7.357820e-01	4.223500e-04	9.824513e-01
-4.756889e-01	1.066928e-03	3.017323e+00
2.937136e+00	1.810067e-03	2.941333e+00
3.055405e+00	2.444748e-03	9.440270e-01
2.584078e+00	3.073070e-03	6.665041e-02
2.209631e+00	3.663755e-03	-1.981560e-01
1.948322e+00	4.233252e-03	-3.586704e-01
1.760740e+00	4.756460e-03	-4.216755e-01
1.597729e+00	5.242017e-03	-4.692676e-01
1.476930e+00	5.785553e-03	-4.850905e-01
1.372000e+00	6.189414e-03	-4.984367e-01
1.286272e+00	6.527113e-03	-4.958932e-01
1.210915e+00	6.807234e-03	-4.936255e-01
1.146293e+00	7.036858e-03	-4.835432e-01
1.088256e+00	7.234439e-03	-4.749967e-01
1.034928e+00	7.376519e-03	-4.621021e-01
9.854623e-01	7.474060e-03	-4.510184e-01
9.358662e-01	7.521765e-03	-4.358654e-01
8.888551e-01	7.544163e-03	-4.218801e-01
8.396035e-01	7.549424e-03	-4.034448e-01
7.887853e-01	7.543605e-03	-3.832223e-01
7.403529e-01	7.539667e-03	-3.612993e-01
8.163040e-01	-3.304559e-03	-1.437481e-01
8.342446e-01	-3.297772e-03	-1.484173e-01
8.457946e-01	-3.279823e-03	-1.542387e-01
8.514035e-01	-3.245543e-03	-1.594810e-01
8.479696e-01	-3.213013e-03	-1.652428e-01
8.435971e-01	-3.126382e-03	-1.702180e-01
8.304634e-01	-3.003974e-03	-1.755953e-01
8.157185e-01	-2.856194e-03	-1.796449e-01
7.928818e-01	-2.669130e-03	-1.849240e-01
7.674375e-01	-2.434778e-03	-1.888117e-01
7.307513e-01	-2.193904e-03	-1.946697e-01
6.863398e-01	-1.967182e-03	-1.972498e-01
6.244654e-01	-1.652360e-03	-2.007042e-01
5.433396e-01	-1.432950e-03	-1.938166e-01
4.315114e-01	-1.067337e-03	-1.790204e-01
2.694813e-01	-6.888596e-04	-1.289351e-01
2.923716e-02	-2.926502e-04	-1.748111e-02
-3.147272e-01	1.024714e-04	2.413023e-01
-7.498494e-01	5.141455e-04	1.001235e+00
-4.816619e-01	9.374008e-04	3.055210e+00
2.962395e+00	1.409014e-03	2.966629e+00
3.076354e+00	1.797256e-03	9.504996e-01
2.599160e+00	2.194552e-03	6.703940e-02
2.220481e+00	2.565526e-03	-1.991290e-01
1.956446e+00	2.916423e-03	-3.601660e-01
1.767071e+00	3.243934e-03	-4.231916e-01
1.604470e+00	3.658594e-03	-4.712475e-01
1.482577e+00	3.916825e-03	-4.869450e-01
1.375496e+00	4.161270e-03	-4.997067e-01
1.289117e+00	4.381680e-03	-4.969902e-01
1.213160e+00	4.548811e-03	-4.945406e-01
1.147924e+00	4.657299e-03	-4.842312e-01
1.089781e+00	4.755362e-03	-4.756622e-01
1.036441e+00	4.835065e-03	-4.627777e-01
9.865855e-01	4.888809e-03	-4.515324e-01
9.365247e-01	4.962065e-03	-4.361721e-01
8.890380e-01	4.964755e-03	-4.219669e-01
8.396007e-01	4.963200e-03	-4.034435e-01
7.886091e-01	4.959459e-03	-3.831367e-01
7.400588e-01	4.956213e-03	-3.611558e-01
8.159014e-01	-2.029407e-03	-1.436773e-01
8.337532e-01	-2.025361e-03	-1.483298e-01
8.451837e-01	-2.015138e-03	-1.541273e-01
8.513192e-01	-1.996475e-03	-1.594652e-01
8.471456e-01	-1.966273e-03	-1.650823e-01
8.417591e-01	-2.010118e-03	-1.698471e-01
8.283548e-01	-1.887817e-03	-1.751495e-01
8.137419e-01	-1.782861e-03	-1.792096e-01
7.906669e-01	-1.683620e-03	-1.844074e-01
7.649369e-01	-1.542233e-03	-1.881965e-01
7.287977e-01	-1.385901e-03	-1.941493e-01
6.838533e-01	-1.215254e-03	-1.965352e-01
6.209935e-01	-1.015453e-03	-1.995883e-01
5.391833e-01	-7.361188e-04	-1.923340e-01
4.267140e-01	-5.013071e-04	-1.770302e-01
2.642759e-01	-2.945186e-04	-1.264446e-01
2.256358e-02	-5.088452e-05	-1.349093e-02
-3.228696e-01	1.713645e-04	2.475451e-01
-7.587631e-01	4.309219e-04	1.013137e+00
-4.853943e-01	6.875968e-04	3.078885e+00
2.979128e+00	9.824080e-04	2.983385e+00
3.090046e+00	1.232372e-03	9.547301e-01
2.608781e+00	1.472806e-03	6.728756e-02
2.227480e+00	1.730738e-03	-1.997567e-01
1.961924e+00	1.950316e-03	-3.611745e-01
1.773569e+00	2.163430e-03	-4.247478e-01
1.607814e+00	2.361049e-03	-4.722297e-01
1.483900e+00	2.461935e-03	-4.873797e-01
1.378058e+00	2.606182e-03	-5.006375e-01
1.291160e+00	2.742297e-03	-4.977778e-01
1.214368e+00	2.854944e-03	-4.950332e-01
1.148929e+00	2.945198e-03	-4.846551e-01
1.090633e+00	3.043518e-03	-4.760340e-01
1.036861e+00	3.108821e-03	-4.629654e-01
9.874712e-01	3.229460e-03	-4.519378e-01
9.373965e-01	3.221005e-03	-4.365782e-01
8.888933e-01	3.215101e-03	-4.218982e-01
8.394551e-01	3.212179e-03	-4.033735e-01
7.884522e-01	3.208942e-03	-3.830605e-01
7.398558e-01	3.206654e-03	-3.610567e-01
8.156249e-01	-1.104128e-03	-1.436286e-01
8.334138e-01	-1.101087e-03	-1.482695e-01
8.447818e-01	-1.091550e-03	-1.540540e-01
8.501550e-01	-1.098714e-03	-1.592471e-01
8.483813e-01	-1.049949e-03	-1.653230e-01
8.420565e-01	-1.033227e-03	-1.699071e-01
8.269816e-01	-9.981015e-04	-1.748591e-01
8.128214e-01	-9.743337e-04	-1.790069e-01
7.896283e-01	-9.854351e-04	-1.841652e-01
7.635291e-01	-9.086380e-04	-1.878501e-01
7.264774e-01	-8.084020e-04	-1.935312e-01
6.814059e-01	-6.876470e-04	-1.958319e-01
6.178377e-01	-5.761903e-04	-1.985740e-01
5.356571e-01	-3.420870e-04	-1.910762e-01
4.242865e-01	-2.520495e-04	-1.760230e-01
2.612325e-01	-1.240075e-04	-1.249884e-01
1.922498e-02	1.319651e-05	-1.149476e-02
-3.269397e-01	1.551836e-04	2.506656e-01
-7.641152e-01	3.045715e-04	1.020283e+00
-4.876270e-01	4.534327e-04	3.093048e+00
2.989070e+00	6.247592e-04	2.993341e+00
3.097843e+00	7.703044e-04	9.571391e-01
2.615363e+00	9.133727e-04	6.745734e-02
2.232215e+00	1.046971e-03	-2.001814e-01
1.965136e+00	1.174558e-03	-3.617659e-01
1.774100e+00	1.294398e-03	-4.248750e-01
1.608924e+00	1.321461e-03	-4.725557e-01
1.485998e+00	1.433069e-03	-4.880686e-01
1.379152e+00	1.540121e-03	-5.010347e-01
1.292256e+00	1.596577e-03	-4.982002e-01
1.215701e+00	1.659631e-03	-4.955764e-01
1.150326e+00	1.800578e-03	-4.852446e-01
1.091975e+00	1.816700e-03	-4.766199e-01
1.039071e+00	1.852938e-03	-4.639521e-01
9.885145e-01	1.856617e-03	-4.524153e-01
9.362538e-01	1.829764e-03	-4.360460e-01
8.888282e-01	1.839025e-03	-4.218673e-01
8.394151e-01	1.864044e-03	-4.033543e-01
7.883372e-01	1.861284e-03	-3.830046e-01
7.397085e-01	1.859857e-03	-3.609848e-01
8.153910e-01	-1.372666e-03	-1.435874e-01
8.330034e-01	-1.372849e-03	-1.481964e-01
8.452105e-01	-1.373997e-03	-1.541322e-01
8.501106e-01	-1.357385e-03	-1.592388e-01
8.458893e-01	-1.317986e-03	-1.648374e-01
8.408449e-01	-1.273201e-03	-1.696626e-01
8.274577e-01	-1.141195e-03	-1.749598e-01
8.135776e-01	-1.200741e-03	-1.791734e-01
7.897590e-01	-9.787945e-04	-1.841957e-01
7.626119e-01	-1.026249e-03	-1.876245e-01
7.259100e-01	-6.681531e-04	-1.933800e-01
6.807531e-01	-7.548444e-04	-1.956443e-01
6.162425e-01	-3.179533e-04	-1.980613e-01
5.342565e-01	-3.799354e-04	-1.905766e-01
4.232005e-01	7.984832e-05	-1.755725e-01
2.593980e-01	4.169839e-04	-1.241107e-01
1.660728e-02	6.089707e-04	-9.929619e-03
-3.303177e-01	6.545332e-04	2.532555e-01
-7.669987e-01	7.006421e-04	1.024133e+00
-4.888570e-01	7.608467e-04	3.100849e+00
2.994646e+00	8.409111e-04	2.998925e+00
3.102722e+00	9.183136e-04	9.586464e-01
2.617677e+00	1.013736e-03	6.751701e-02
2.233942e+00	1.094518e-03	-2.003362e-01
1.966886e+00	1.027853e-03	-3.620880e-01
1.775986e+00	8.089714e-04	-4.253268e-01
1.609978e+00	4.604735e-04	-4.728653e-01
1.486933e+00	6.241075e-04	-4.883757e-01
1.380178e+00	3.075460e-04	-5.014076e-01
1.292669e+00	4.381417e-04	-4.983597e-01
1.216917e+00	1.447013e-04	-4.960721e-01
1.150962e+00	2.974581e-04	-4.855126e-01
1.091322e+00	4.168174e-05	-4.763349e-01
1.037457e+00	1.036193e-04	-4.632313e-01
9.871331e-01	-1.051343e-04	-4.517830e-01
9.370081e-01	-5.318477e-05	-4.363973e-01
8.896291e-01	-7.144046e-05	-4.222475e-01
8.402933e-01	-7.854409e-05	-4.037763e-01
7.882368e-01	-7.380001e-05	-3.829559e-01
7.396372e-01	-7.277389e-05	-3.609500e-01
8.156555e-01	3.654990e-05	-1.436339e-01
8.334978e-01	1.894258e-05	-1.482844e-01
8.441559e-01	1.735478e-05	-1.539399e-01
8.486936e-01	3.872730e-05	-1.589733e-01
8.466797e-01	3.637681e-05	-1.649915e-01
8.389116e-01	3.526800e-05	-1.692726e-01
8.260101e-01	3.379760e-05	-1.746537e-01
8.103898e-01	3.459160e-05	-1.784714e-01
7.873461e-01	7.751048e-05	-1.836329e-01
7.594257e-01	6.613800e-05	-1.868406e-01
7.228939e-01	5.820206e-05	-1.925765e-01
6.768741e-01	5.741755e-05	-1.945295e-01
6.124023e-01	-2.372440e-06	-1.968271e-01
5.301132e-01	9.587765e-07	-1.890986e-01
4.111724e-01	3.246266e-05	-1.705824e-01
2.512358e-01	1.353430e-07	-1.202054e-01
1.378311e-02	3.625428e-06	-8.241022e-03
-3.292904e-01	6.309449e-06	2.524679e-01
-7.669702e-01	7.663337e-06	1.024095e+00
-4.891247e-01	8.039132e-06	3.102548e+00
2.996870e+00	7.763344e-06	3.001152e+00
3.105609e+00	7.073566e-06	9.595385e-01
2.620984e+00	5.873824e-06	6.760232e-02
2.232141e+00	3.750981e-06	-2.001747e-01
1.959123e+00	3.603760e-05	-3.606589e-01
1.764223e+00	3.205237e-05	-4.225096e-01
1.606497e+00	-2.235617e-06	-4.718429e-01
1.483662e+00	4.868598e-05	-4.873016e-01
1.376842e+00	3.493194e-05	-5.001957e-01
1.290168e+00	2.564465e-05	-4.973952e-01
1.213912e+00	2.003364e-05	-4.948474e-01
1.149112e+00	-2.280113e-05	-4.847324e-01
1.089259e+00	-1.916271e-05	-4.754344e-01
1.037152e+00	-1.999328e-05	-4.630953e-01
9.857335e-01	-1.889963e-05	-4.511425e-01
9.369995e-01	-1.891690e-05	-4.363932e-01
8.882176e-01	-1.777937e-05	-4.215775e-01
8.392747e-01	-4.015073e-05	-4.032868e-01
7.886627e-01	-3.903065e-05	-3.831628e-01
7.398656e-01	-2.152174e-05	-3.610615e-01
8.183459e-01	1.454761e-03	-1.441077e-01
8.337152e-01	1.455111e-03	-1.483231e-01
8.444082e-01	1.456908e-03	-1.539859e-01
8.497137e-01	1.442148e-03	-1.591644e-01
8.459565e-01	1.405293e-03	-1.648505e-01
8.408898e-01	1.450732e-03	-1.696717e-01
8.274664e-01	1.276028e-03	-1.749616e-01
8.129381e-01	1.333591e-03	-1.790326e-01
7.893479e-01	1.062107e-03	-1.840998e-01
7.628650e-01	1.113237e-03	-1.876868e-01
7.260246e-01	7.638475e-04	-1.934105e-01
6.815454e-01	7.761553e-04	-1.958720e-01
6.170557e-01	3.432034e-04	-1.983227e-01
5.337584e-01	4.318180e-04	-1.903989e-01
4.231469e-01	-6.158124e-05	-1.755503e-01
2.599882e-01	-3.976517e-04	-1.243931e-01
1.647330e-02	-5.901409e-04	-9.849508e-03
-3.304268e-01	-6.111062e-04	2.533392e-01
-7.670519e-01	-6.869708e-04	1.024204e+00
-4.888593e-01	-7.476246e-04	3.100864e+00
2.994594e+00	-8.303965e-04	2.998874e+00
3.102634e+00	-8.822427e-04	9.586193e-01
2.617565e+00	-9.772253e-04	6.751411e-02
2.234789e+00	-1.090801e-03	-2.004122e-01
1.967391e+00	-1.028433e-03	-3.621809e-01
1.775296e+00	-7.815776e-04	-4.251615e-01
1.610292e+00	-4.407601e-04	-4.729577e-01
1.487420e+00	-6.405761e-04	-4.885357e-01
1.379879e+00	-3.361297e-04	-5.012989e-01
1.292482e+00	-4.007785e-04	-4.982873e-01
1.216313e+00	-1.215638e-04	-4.958259e-01
1.150451e+00	-2.231374e-04	-4.852971e-01
1.091362e+00	-1.477986e-05	-4.763520e-01
1.037459e+00	-1.223389e-04	-4.632324e-01
9.871515e-01	-2.228796e-05	-4.517914e-01
9.370269e-01	-5.026407e-05	-4.364060e-01
8.892133e-01	-2.091412e-05	-4.220501e-01
8.395106e-01	-1.132322e-05	-4.034001e-01
7.888551e-01	-1.552410e-05	-3.832563e-01
7.423186e-01	-1.649916e-05	-3.622585e-01
8.155967e-01	1.195788e-03	-1.436236e-01
8.333642e-01	1.210515e-03	-1.482606e-01
8.446911e-01	1.203331e-03	-1.540375e-01
8.500437e-01	1.197712e-03	-1.592262e-01
8.463544e-01	1.086428e-03	-1.649281e-01
8.413891e-01	1.062265e-03	-1.697724e-01
8.276384e-01	9.890469e-04	-1.749980e-01
8.135742e-01	9.710472e-04	-1.791727e-01
7.902326e-01	9.459868e-04	-1.843061e-01
7.633662e-01	8.671825e-04	-1.878101e-01
7.273296e-01	7.785314e-04	-1.937582e-01
6.823666e-01	7.081178e-04	-1.961079e-01
6.174226e-01	6.277388e-04	-1.984406e-01
5.357177e-01	4.787780e-04	-1.910978e-01
4.248533e-01	3.442994e-04	-1.762582e-01
2.612196e-01	2.373147e-04	-1.249823e-01
1.877228e-02	8.895660e-05	-1.122409e-02
-3.270313e-01	-6.139856e-05	2.507359e-01
-7.631159e-01	-2.172534e-04	1.018949e+00
-4.875968e-01	-3.713519e-04	3.092856e+00
2.990451e+00	-5.480685e-04	2.994725e+00
3.098761e+00	-6.979402e-04	9.574226e-01
2.614145e+00	-8.449733e-04	6.742591e-02
2.231378e+00	-9.813747e-04	-2.001063e-01
1.965670e+00	-1.145532e-03	-3.618641e-01
1.774409e+00	-1.263163e-03	-4.249490e-01
1.608238e+00	-1.371563e-03	-4.723543e-01
1.485338e+00	-1.501989e-03	-4.878520e-01
1.379874e+00	-1.586329e-03	-5.012972e-01
1.292903e+00	-1.650581e-03	-4.984496e-01
1.216159e+00	-1.703627e-03	-4.957633e-01
1.150398e+00	-1.780207e-03	-4.852749e-01
1.090735e+00	-1.802008e-03	-4.760784e-01
1.036900e+00	-1.808025e-03	-4.629828e-01
9.870205e-01	-1.830008e-03	-4.517315e-01
9.369267e-01	-1.851478e-03	-4.363593e-01
8.891628e-01	-1.769180e-03	-4.220261e-01
8.395186e-01	-1.779645e-03	-4.034040e-01
7.883724e-01	-1.779413e-03	-3.830217e-01
7.397163e-01	-1.795928e-03	-3.609886e-01
8.158744e-01	1.718637e-03	-1.436725e-01
8.336959e-01	1.707745e-03	-1.483196e-01
8.448235e-01	1.584169e-03	-1.540616e-01
8.529473e-01	1.677034e-03	-1.597701e-01
8.485163e-01	1.704713e-03	-1.653494e-01
8.426232e-01	1.714391e-03	-1.700215e-01
8.288280e-01	1.673584e-03	-1.752495e-01
8.135527e-01	1.611509e-03	-1.791679e-01
7.907613e-01	1.541603e-03	-1.844295e-01
7.650635e-01	1.421379e-03	-1.882276e-01
7.281057e-01	1.275181e-03	-1.939649e-01
6.835543e-01	1.191436e-03	-1.964493e-01
6.202145e-01	9.860082e-04	-1.993379e-01
5.379864e-01	7.887624e-04	-1.919071e-01