# vtk DataFile Version 2.0
OUTPUT by 3D-VPM
ASCII
DATASET UNSTRUCTURED_GRID
POINTS 820 double
9.510565e-01	0.000000e+00	-3.090170e-01
9.442611e-01	0.000000e+00	-3.078203e-01
9.267277e-01	0.000000e+00	-3.047010e-01
8.963175e-01	0.000000e+00	-2.991555e-01
8.562911e-01	0.000000e+00	-2.916579e-01
8.054250e-01	0.000000e+00	-2.817457e-01
7.470317e-01	0.000000e+00	-2.699633e-01
6.809074e-01	0.000000e+00	-2.559818e-01
6.100852e-01	0.000000e+00	-2.403847e-01
5.354138e-01	0.000000e+00	-2.229691e-01
4.593635e-01	0.000000e+00	-2.042585e-01
3.837764e-01	0.000000e+00	-1.841224e-01
3.103069e-01	0.000000e+00	-1.630077e-01
2.415927e-01	0.000000e+00	-1.409228e-01
1.782654e-01	0.000000e+00	-1.183331e-01
1.234349e-01	0.000000e+00	-9.558566e-02
7.662509e-02	0.000000e+00	-7.318920e-02
4.106998e-02	0.000000e+00	-5.193053e-02
1.528206e-02	0.000000e+00	-3.215886e-02
2.347037e-03	0.000000e+00	-1.488740e-02
0.000000e+00	0.000000e+00	0.000000e+00
1.064939e-02	0.000000e+00	1.066461e-02
3.126595e-02	0.000000e+00	1.703450e-02
6.375031e-02	0.000000e+00	1.787236e-02
1.050105e-01	0.000000e+00	1.417221e-02
1.560448e-01	0.000000e+00	4.777214e-03
2.137742e-01	0.000000e+00	-9.048270e-03
2.782849e-01	0.000000e+00	-2.799567e-02
3.468570e-01	0.000000e+00	-5.051783e-02
4.187060e-01	0.000000e+00	-7.662000e-02
4.916930e-01	0.000000e+00	-1.047585e-01
5.642168e-01	0.000000e+00	-1.343226e-01
6.348639e-01	0.000000e+00	-1.641238e-01
7.013280e-01	0.000000e+00	-1.931337e-01
7.630418e-01	0.000000e+00	-2.206893e-01
8.172084e-01	0.000000e+00	-2.454799e-01
8.641863e-01	0.000000e+00	-2.673591e-01
9.009752e-01	0.000000e+00	-2.848204e-01
9.288372e-01	0.000000e+00	-2.982085e-01
9.448555e-01	0.000000e+00	-3.059908e-01
9.510565e-01	0.000000e+00	-3.090170e-01
9.510565e-01	1.052632e+00	-3.090170e-01
9.442611e-01	1.052632e+00	-3.078203e-01
9.267277e-01	1.052632e+00	-3.047010e-01
8.963175e-01	1.052632e+00	-2.991555e-01
8.562911e-01	1.052632e+00	-2.916579e-01
8.054250e-01	1.052632e+00	-2.817457e-01
7.470317e-01	1.052632e+00	-2.699633e-01
6.809074e-01	1.052632e+00	-2.559818e-01
6.100852e-01	1.052632e+00	-2.403847e-01
5.354138e-01	1.052632e+00	-2.229691e-01
4.593635e-01	1.052632e+00	-2.042585e-01
3.837764e-01	1.052632e+00	-1.841224e-01
3.103069e-01	1.052632e+00	-1.630077e-01
2.415927e-01	1.052632e+00	-1.409228e-01
1.782654e-01	1.052632e+00	-1.183331e-01
1.234349e-01	1.052632e+00	-9.558566e-02
7.662509e-02	1.052632e+00	-7.318920e-02
4.106998e-02	1.052632e+00	-5.193053e-02
1.528206e-02	1.052632e+00	-3.215886e-02
2.347037e-03	1.052632e+00	-1.488740e-02
0.000000e+00	1.052632e+00	0.000000e+00
1.064939e-02	1.052632e+00	1.066461e-02
3.126595e-02	1.052632e+00	1.703450e-02
6.375031e-02	1.052632e+00	1.787236e-02
1.050105e-01	1.052632e+00	1.417221e-02
1.560448e-01	1.052632e+00	4.777214e-03
2.137742e-01	1.052632e+00	-9.048270e-03
2.782849e-01	1.052632e+00	-2.799567e-02
3.468570e-01	1.052632e+00	-5.051783e-02
4.187060e-01	1.052632e+00	-7.662000e-02
4.916930e-01	1.052632e+00	-1.047585e-01
5.642168e-01	1.052632e+00	-1.343226e-01
6.348639e-01	1.052632e+00	-1.641238e-01
7.013280e-01	1.052632e+00	-1.931337e-01
7.630418e-01	1.052632e+00	-2.206893e-01
8.172084e-01	1.052632e+00	-2.454799e-01
8.641863e-01	1.052632e+00	-2.673591e-01
9.009752e-01	1.052632e+00	-2.848204e-01
9.288372e-01	1.052632e+00	-2.982085e-01
9.448555e-01	1.052632e+00	-3.059908e-01
9.510565e-01	1.052632e+00	-3.090170e-01
9.510565e-01	2.105263e+00	-3.090170e-01
9.442611e-01	2.105263e+00	-3.078203e-01
9.267277e-01	2.105263e+00	-3.047010e-01
8.963175e-01	2.105263e+00	-2.991555e-01
8.562911e-01	2.105263e+00	-2.916579e-01
8.054250e-01	2.105263e+00	-2.817457e-01
7.470317e-01	2.105263e+00	-2.699633e-01
6.809074e-01	2.105263e+00	-2.559818e-01
6.100852e-01	2.105263e+00	-2.403847e-01
5.354138e-01	2.105263e+00	-2.229691e-01
4.593635e-01	2.105263e+00	-2.042585e-01
3.837764e-01	2.105263e+00	-1.841224e-01
3.103069e-01	2.105263e+00	-1.630077e-01
2.415927e-01	2.105263e+00	-1.409228e-01
1.782654e-01	2.105263e+00	-1.183331e-01
1.234349e-01	2.105263e+00	-9.558566e-02
7.662509e-02	2.105263e+00	-7.318920e-02
4.106998e-02	2.105263e+00	-5.193053e-02
1.528206e-02	2.105263e+00	-3.215886e-02
2.347037e-03	2.105263e+00	-1.488740e-02
0.000000e+00	2.105263e+00	0.000000e+00
1.064939e-02	2.105263e+00	1.066461e-02
3.126595e-02	2.105263e+00	1.703450e-02
6.375031e-02	2.105263e+00	1.787236e-02
1.050105e-01	2.105263e+00	1.417221e-02
1.560448e-01	2.105263e+00	4.777214e-03
2.137742e-01	2.105263e+00	-9.048270e-03
2.782849e-01	2.105263e+00	-2.799567e-02
3.468570e-01	2.105263e+00	-5.051783e-02
4.187060e-01	2.105263e+00	-7.662000e-02
4.916930e-01	2.105263e+00	-1.047585e-01
5.642168e-01	2.105263e+00	-1.343226e-01
6.348639e-01	2.105263e+00	-1.641238e-01
7.013280e-01	2.105263e+00	-1.931337e-01
7.630418e-01	2.105263e+00	-2.206893e-01
8.172084e-01	2.105263e+00	-2.454799e-01
8.641863e-01	2.105263e+00	-2.673591e-01
9.009752e-01	2.105263e+00	-2.848204e-01
9.288372e-01	2.105263e+00	-2.982085e-01
9.448555e-01	2.105263e+00	-3.059908e-01
9.510565e-01	2.105263e+00	-3.090170e-01
9.510565e-01	3.157895e+00	-3.090170e-01
9.442611e-01	3.157895e+00	-3.078203e-01
9.267277e-01	3.157895e+00	-3.047010e-01
8.963175e-01	3.157895e+00	-2.991555e-01
8.562911e-01	3.157895e+00	-2.916579e-01
8.054250e-01	3.157895e+00	-2.817457e-01
7.470317e-01	3.157895e+00	-2.699633e-01
6.809074e-01	3.157895e+00	-2.559818e-01
6.100852e-01	3.157895e+00	-2.403847e-01
5.354138e-01	3.157895e+00	-2.229691e-01
4.593635e-01	3.157895e+00	-2.042585e-01
3.837764e-01	3.157895e+00	-1.841224e-01
3.103069e-01	3.157895e+00	-1.630077e-01
2.415927e-01	3.157895e+00	-1.409228e-01
1.782654e-01	3.157895e+00	-1.183331e-01
1.234349e-01	3.157895e+00	-9.558566e-02
7.662509e-02	3.157895e+00	-7.318920e-02
4.106998e-02	3.157895e+00	-5.193053e-02
1.528206e-02	3.157895e+00	-3.215886e-02
2.347037e-03	3.157895e+00	-1.488740e-02
0.000000e+00	3.157895e+00	0.000000e+00
1.064939e-02	3.157895e+00	1.066461e-02
3.126595e-02	3.157895e+00	1.703450e-02
6.375031e-02	3.157895e+00	1.787236e-02
1.050105e-01	3.157895e+00	1.417221e-02
1.560448e-01	3.157895e+00	4.777214e-03
2.137742e-01	3.157895e+00	-9.048270e-03
2.782849e-01	3.157895e+00	-2.799567e-02
3.468570e-01	3.157895e+00	-5.051783e-02
4.187060e-01	3.157895e+00	-7.662000e-02
4.916930e-01	3.157895e+00	-1.047585e-01
5.642168e-01	3.157895e+00	-1.343226e-01
6.348639e-01	3.157895e+00	-1.641238e-01
7.013280e-01	3.157895e+00	-1.931337e-01
7.630418e-01	3.157895e+00	-2.206893e-01
8.172084e-01	3.157895e+00	-2.454799e-01
8.641863e-01	3.157895e+00	-2.673591e-01
9.009752e-01	3.157895e+00	-2.848204e-01
9.288372e-01	3.157895e+00	-2.982085e-01
9.448555e-01	3.157895e+00	-3.059908e-01
9.510565e-01	3.157895e+00	-3.090170e-01
9.510565e-01	4.210526e+00	-3.090170e-01
9.442611e-01	4.210526e+00	-3.078203e-01
9.267277e-01	4.210526e+00	-3.047010e-01
8.963175e-01	4.210526e+00	-2.991555e-01
8.562911e-01	4.210526e+00	-2.916579e-01
8.054250e-01	4.210526e+00	-2.817457e-01
7.470317e-01	4.210526e+00	-2.699633e-01
6.809074e-01	4.210526e+00	-2.559818e-01
6.100852e-01	4.210526e+00	-2.403847e-01
5.354138e-01	4.210526e+00	-2.229691e-01
4.593635e-01	4.210526e+00	-2.042585e-01
3.837764e-01	4.210526e+00	-1.841224e-01
3.103069e-01	4.210526e+00	-1.630077e-01
2.415927e-01	4.210526e+00	-1.409228e-01
1.782654e-01	4.210526e+00	-1.183331e-01
1.234349e-01	4.210526e+00	-9.558566e-02
7.662509e-02	4.210526e+00	-7.318920e-02
4.106998e-02	4.210526e+00	-5.193053e-02
1.528206e-02	4.210526e+00	-3.215886e-02
2.347037e-03	4.210526e+00	-1.488740e-02
0.000000e+00	4.210526e+00	0.000000e+00
1.064939e-02	4.210526e+00	1.066461e-02
3.126595e-02	4.210526e+00	1.703450e-02
6.375031e-02	4.210526e+00	1.787236e-02
1.050105e-01	4.210526e+00	1.417221e-02
1.560448e-01	4.210526e+00	4.777214e-03
2.137742e-01	4.210526e+00	-9.048270e-03
2.782849e-01	4.210526e+00	-2.799567e-02
3.468570e-01	4.210526e+00	-5.051783e-02
4.187060e-01	4.210526e+00	-7.662000e-02
4.916930e-01	4.210526e+00	-1.047585e-01
5.642168e-01	4.210526e+00	-1.343226e-01
6.348639e-01	4.210526e+00	-1.641238e-01
7.013280e-01	4.210526e+00	-1.931337e-01
7.630418e-01	4.210526e+00	-2.206893e-01
8.172084e-01	4.210526e+00	-2.454799e-01
8.641863e-01	4.210526e+00	-2.673591e-01
9.009752e-01	4.210526e+00	-2.848204e-01
9.288372e-01	4.210526e+00	-2.982085e-01
9.448555e-01	4.210526e+00	-3.059908e-01
9.510565e-01	4.210526e+00	-3.090170e-01
9.510565e-01	5.263158e+00	-3.090170e-01
9.442611e-01	5.263158e+00	-3.078203e-01
9.267277e-01	5.263158e+00	-3.047010e-01
8.963175e-01	5.263158e+00	-2.991555e-01
8.562911e-01	5.263158e+00	-2.916579e-01
8.054250e-01	5.263158e+00	-2.817457e-01
7.470317e-01	5.263158e+00	-2.699633e-01
6.809074e-01	5.263158e+00	-2.559818e-01
6.100852e-01	5.263158e+00	-2.403847e-01
5.354138e-01	5.263158e+00	-2.229691e-01
4.593635e-01	5.263158e+00	-2.042585e-01
3.837764e-01	5.263158e+00	-1.841224e-01
3.103069e-01	5.263158e+00	-1.630077e-01
2.415927e-01	5.263158e+00	-1.409228e-01
1.782654e-01	5.263158e+00	-1.183331e-01
1.234349e-01	5.263158e+00	-9.558566e-02
7.662509e-02	5.263158e+00	-7.318920e-02
4.106998e-02	5.263158e+00	-5.193053e-02
1.528206e-02	5.263158e+00	-3.215886e-02
2.347037e-03	5.263158e+00	-1.488740e-02
0.000000e+00	5.263158e+00	0.000000e+00
1.064939e-02	5.263158e+00	1.066461e-02
3.126595e-02	5.263158e+00	1.703450e-02
6.375031e-02	5.263158e+00	1.787236e-02
1.050105e-01	5.263158e+00	1.417221e-02
1.560448e-01	5.263158e+00	4.777214e-03
2.137742e-01	5.263158e+00	-9.048270e-03
2.782849e-01	5.263158e+00	-2.799567e-02
3.468570e-01	5.263158e+00	-5.051783e-02
4.187060e-01	5.263158e+00	-7.662000e-02
4.916930e-01	5.263158e+00	-1.047585e-01
5.642168e-01	5.263158e+00	-1.343226e-01
6.348639e-01	5.263158e+00	-1.641238e-01
7.013280e-01	5.263158e+00	-1.931337e-01
7.630418e-01	5.263158e+00	-2.206893e-01
8.172084e-01	5.263158e+00	-2.454799e-01
8.641863e-01	5.263158e+00	-2.673591e-01
9.009752e-01	5.263158e+00	-2.848204e-01
9.288372e-01	5.263158e+00	-2.982085e-01
9.448555e-01	5.263158e+00	-3.059908e-01
9.510565e-01	5.263158e+00	-3.090170e-01
9.510565e-01	6.315789e+00	-3.090170e-01
9.442611e-01	6.315789e+00	-3.078203e-01
[...]
CELL_DATA 760
VECTORS V double
8.414229e-01	-6.903455e-02	-1.481715e-01
8.655436e-01	-6.886096e-02	-1.539856e-01
8.835583e-01	-6.841120e-02	-1.611253e-01
8.953238e-01	-6.761680e-02	-1.677079e-01
8.977883e-01	-6.645587e-02	-1.749509e-01
8.991003e-01	-6.491076e-02	-1.814172e-01
8.920620e-01	-6.297116e-02	-1.886199e-01
8.847509e-01	-6.061300e-02	-1.948479e-01
8.704162e-01	-5.780780e-02	-2.030074e-01
8.547754e-01	-5.452306e-02	-2.102994e-01
8.294696e-01	-5.073311e-02	-2.209679e-01
7.985470e-01	-4.642382e-02	-2.294975e-01
7.511967e-01	-4.162818e-02	-2.414358e-01
6.891709e-01	-3.639739e-02	-2.458366e-01
6.025183e-01	-3.076934e-02	-2.499658e-01
4.718389e-01	-2.486689e-02	-2.257544e-01
2.701251e-01	-1.869800e-02	-1.615098e-01
-1.745675e-02	-1.242873e-02	1.338414e-02
-4.218518e-01	-5.860917e-03	5.632767e-01
-3.427128e-01	7.200349e-04	2.173848e+00
2.327140e+00	8.433590e-03	2.330466e+00
2.541784e+00	1.519868e-02	7.853339e-01
2.210618e+00	2.214565e-02	5.701784e-02
1.925577e+00	2.899334e-02	-1.726826e-01
1.720223e+00	3.598322e-02	-3.166792e-01
1.570434e+00	4.295019e-02	-3.760995e-01
1.435576e+00	4.988857e-02	-4.216420e-01
1.336755e+00	5.661989e-02	-4.390507e-01
1.250654e+00	6.302594e-02	-4.543527e-01
1.181710e+00	6.890891e-02	-4.555819e-01
1.121879e+00	7.415346e-02	-4.573303e-01
1.071620e+00	7.862207e-02	-4.520438e-01
1.027479e+00	8.225277e-02	-4.484689e-01
9.872038e-01	8.503781e-02	-4.407931e-01
9.499819e-01	8.702855e-02	-4.347800e-01
9.115293e-01	8.832294e-02	-4.245309e-01
8.743617e-01	8.904925e-02	-4.150010e-01
8.341870e-01	8.935657e-02	-4.008421e-01
7.910583e-01	8.940054e-02	-3.843267e-01
7.483071e-01	8.935487e-02	-3.651810e-01
8.268571e-01	-4.834410e-02	-1.456065e-01
8.473449e-01	-4.821980e-02	-1.507479e-01
8.618074e-01	-4.790127e-02	-1.571588e-01
8.704935e-01	-4.733745e-02	-1.630568e-01
8.702447e-01	-4.650571e-02	-1.695836e-01
8.688604e-01	-4.538722e-02	-1.753155e-01
8.588612e-01	-4.397130e-02	-1.815999e-01
8.479915e-01	-4.224296e-02	-1.867524e-01
8.293216e-01	-4.018737e-02	-1.934229e-01
8.083328e-01	-3.778935e-02	-1.988731e-01
7.765437e-01	-3.501915e-02	-2.068686e-01
7.378831e-01	-3.192723e-02	-2.120631e-01
6.815779e-01	-2.849093e-02	-2.190602e-01
6.085245e-01	-2.476534e-02	-2.170690e-01
5.087224e-01	-2.077642e-02	-2.110528e-01
3.607185e-01	-1.660723e-02	-1.725882e-01
1.373065e-01	-1.225965e-02	-8.209656e-02
-1.815830e-01	-7.846889e-03	1.392202e-01
-6.032873e-01	-3.229381e-03	8.055380e-01
-4.198829e-01	1.390311e-03	2.663343e+00
2.682667e+00	6.790654e-03	2.686501e+00
2.844235e+00	1.150681e-02	8.787821e-01
2.433360e+00	1.632124e-02	6.276297e-02
2.097415e+00	2.103076e-02	-1.880927e-01
1.860547e+00	2.579402e-02	-3.425119e-01
1.689696e+00	3.049149e-02	-4.046613e-01
1.539103e+00	3.511738e-02	-4.520487e-01
1.427841e+00	3.955354e-02	-4.689673e-01
1.330744e+00	4.372815e-02	-4.834487e-01
1.251927e+00	4.753353e-02	-4.826522e-01
1.182688e+00	5.085938e-02	-4.821188e-01
1.123353e+00	5.367689e-02	-4.738662e-01
1.070405e+00	5.593636e-02	-4.672048e-01
1.021751e+00	5.764221e-02	-4.562187e-01
9.765977e-01	5.883567e-02	-4.469613e-01
9.307659e-01	5.958759e-02	-4.334900e-01
8.867530e-01	5.998637e-02	-4.208823e-01
8.402947e-01	6.013279e-02	-4.037769e-01
7.917015e-01	6.012916e-02	-3.846391e-01
7.448100e-01	6.008586e-02	-3.634744e-01
8.205610e-01	-2.041081e-02	-1.444978e-01
8.397193e-01	-2.035897e-02	-1.493912e-01
8.527018e-01	-2.022860e-02	-1.554983e-01
8.598601e-01	-1.999255e-02	-1.610650e-01
8.580688e-01	-1.963393e-02	-1.672108e-01
8.551017e-01	-1.913604e-02	-1.725393e-01
8.434777e-01	-1.848914e-02	-1.783471e-01
8.308733e-01	-1.768790e-02	-1.829824e-01
8.103129e-01	-1.670520e-02	-1.889895e-01
7.869207e-01	-1.558487e-02	-1.936051e-01
7.528513e-01	-1.431273e-02	-2.005571e-01
7.115539e-01	-1.290356e-02	-2.044962e-01
6.517295e-01	-1.134735e-02	-2.094669e-01
5.745692e-01	-9.680275e-03	-2.049567e-01
4.697777e-01	-7.912471e-03	-1.948959e-01
3.150243e-01	-6.076353e-03	-1.507255e-01
8.302008e-02	-4.168666e-03	-4.963832e-02
-2.483881e-01	-2.237356e-03	1.904399e-01
-6.768139e-01	-2.215362e-04	9.037142e-01
-4.509263e-01	1.786857e-03	2.860253e+00
2.823779e+00	4.116098e-03	2.827815e+00
2.961969e+00	6.124189e-03	9.151583e-01
2.517995e+00	8.137777e-03	6.494595e-02
2.160721e+00	1.006172e-02	-1.937699e-01
1.910373e+00	1.195227e-02	-3.516844e-01
1.730303e+00	1.375588e-02	-4.143862e-01
1.572800e+00	1.546791e-02	-4.619457e-01
1.456136e+00	1.704775e-02	-4.782608e-01
1.354661e+00	1.847792e-02	-4.921375e-01
1.271703e+00	1.974399e-02	-4.902766e-01
1.198800e+00	2.080917e-02	-4.886871e-01
1.136484e+00	2.166949e-02	-4.794056e-01
1.080553e+00	2.230652e-02	-4.716345e-01
1.029171e+00	2.277811e-02	-4.595318e-01
9.815353e-01	2.308018e-02	-4.492211e-01
9.334889e-01	2.324482e-02	-4.347582e-01
8.875243e-01	2.330728e-02	-4.212485e-01
8.394015e-01	2.330504e-02	-4.033477e-01
7.894762e-01	2.327456e-02	-3.835580e-01
7.416753e-01	2.324776e-02	-3.619446e-01
8.181573e-01	-1.021945e-02	-1.440745e-01
8.367419e-01	-1.019840e-02	-1.488615e-01
8.489693e-01	-1.014212e-02	-1.548176e-01
8.553552e-01	-1.003630e-02	-1.602212e-01
8.527758e-01	-9.871110e-03	-1.661794e-01
8.489697e-01	-9.623211e-03	-1.713020e-01
8.364772e-01	-9.310521e-03	-1.768669e-01
8.225787e-01	-8.913041e-03	-1.811557e-01
8.009464e-01	-8.439701e-03	-1.868049e-01
7.769229e-01	-7.875803e-03	-1.911454e-01
7.414980e-01	-7.236399e-03	-1.975326e-01
6.983648e-01	-6.498799e-03	-2.007057e-01
6.368030e-01	-5.693265e-03	-2.046695e-01
5.574864e-01	-4.817056e-03	-1.988630e-01
4.500711e-01	-3.882235e-03	-1.867203e-01
2.917748e-01	-2.906228e-03	-1.396016e-01
5.530013e-02	-1.892308e-03	-3.306436e-02
-2.825436e-01	-8.587826e-04	2.166270e-01
-7.144096e-01	2.209382e-04	9.539138e-01
-4.667610e-01	1.295621e-03	2.960693e+00
2.895353e+00	2.537785e-03	2.899491e+00
3.021220e+00	3.602553e-03	9.334647e-01
2.560201e+00	4.662208e-03	6.603454e-02
2.191944e+00	5.665523e-03	-1.965699e-01
1.934687e+00	6.645314e-03	-3.561604e-01
1.749908e+00	7.565531e-03	-4.190813e-01
1.588904e+00	8.430034e-03	-4.666758e-01
1.469546e+00	9.227147e-03	-4.826652e-01
1.365875e+00	9.935905e-03	-4.962115e-01
1.281342e+00	1.055504e-02	-4.939928e-01
1.206800e+00	1.109359e-02	-4.919481e-01
1.142497e+00	1.152499e-02	-4.819420e-01
1.085248e+00	1.186313e-02	-4.736834e-01
1.032973e+00	1.210132e-02	-4.612291e-01
9.842008e-01	1.226143e-02	-4.504410e-01
9.351557e-01	1.234242e-02	-4.355345e-01
8.883138e-01	1.238640e-02	-4.216232e-01
8.394626e-01	1.239660e-02	-4.033771e-01
7.889770e-01	1.238977e-02	-3.833155e-01
7.407060e-01	1.238111e-02	-3.614716e-01
8.170297e-01	-5.651926e-03	-1.438759e-01
8.351875e-01	-5.640806e-03	-1.485850e-01
8.470046e-01	-5.609313e-03	-1.544593e-01
8.529501e-01	-5.549942e-03	-1.597706e-01
8.496149e-01	-5.453759e-03	-1.655634e-01
8.453707e-01	-5.313474e-03	-1.705759e-01
8.324938e-01	-5.142125e-03	-1.760246e-01
8.184738e-01	-4.922438e-03	-1.802517e-01
7.963122e-01	-4.657518e-03	-1.857241e-01
7.711229e-01	-4.321723e-03	-1.897184e-01
7.348555e-01	-3.930775e-03	-1.957630e-01
6.909870e-01	-3.494469e-03	-1.985854e-01
6.283740e-01	-3.022935e-03	-2.019604e-01
5.476634e-01	-2.602554e-03	-1.953590e-01
4.386856e-01	-2.059199e-03	-1.819968e-01
2.783788e-01	-1.451583e-03	-1.331922e-01
3.930119e-02	-8.421544e-04	-2.349847e-02
-3.024373e-01	-2.225379e-04	2.318796e-01
-7.363103e-01	4.252918e-04	9.831567e-01
-4.759727e-01	1.069981e-03	3.019124e+00
2.936845e+00	1.813245e-03	2.941042e+00
3.055388e+00	2.448033e-03	9.440217e-01
2.584402e+00	3.076461e-03	6.665875e-02
2.209848e+00	3.667262e-03	-1.981755e-01
1.948479e+00	4.236903e-03	-3.586994e-01
1.760859e+00	4.760160e-03	-4.217041e-01
1.597937e+00	5.245883e-03	-4.693288e-01
1.476995e+00	5.789733e-03	-4.851117e-01
1.371961e+00	6.194058e-03	-4.984223e-01
1.286312e+00	6.532456e-03	-4.959089e-01
1.210947e+00	6.813374e-03	-4.936386e-01
1.146318e+00	7.042824e-03	-4.835538e-01
1.088275e+00	7.240315e-03	-4.750049e-01
1.034942e+00	7.382744e-03	-4.621084e-01
9.854718e-01	7.480868e-03	-4.510227e-01
9.358716e-01	7.529333e-03	-4.358679e-01
8.888575e-01	7.552664e-03	-4.218812e-01
8.396029e-01	7.559085e-03	-4.034445e-01
7.887823e-01	7.555250e-03	-3.832209e-01
7.403482e-01	7.550991e-03	-3.612970e-01
8.162911e-01	-3.263445e-03	-1.437459e-01
8.342288e-01	-3.270421e-03	-1.484144e-01
8.457751e-01	-3.251166e-03	-1.542351e-01
8.513803e-01	-3.214700e-03	-1.594766e-01
8.479424e-01	-3.153030e-03	-1.652375e-01
8.435658e-01	-3.100463e-03	-1.702117e-01
8.304280e-01	-2.983365e-03	-1.755878e-01
8.156771e-01	-2.839515e-03	-1.796358e-01
7.928332e-01	-2.655344e-03	-1.849127e-01
7.673812e-01	-2.423028e-03	-1.887979e-01
7.306857e-01	-2.183664e-03	-1.946522e-01
6.862638e-01	-1.957956e-03	-1.972280e-01
6.243769e-01	-1.643845e-03	-2.006758e-01
5.432345e-01	-1.425658e-03	-1.937792e-01
4.313845e-01	-1.061136e-03	-1.789678e-01
2.693275e-01	-6.833856e-04	-1.288615e-01
2.905253e-02	-2.875220e-04	-1.737072e-02
-3.149582e-01	1.075354e-04	2.414793e-01
-7.501047e-01	5.197332e-04	1.001576e+00
-4.817689e-01	9.291243e-04	3.055889e+00
2.962871e+00	1.400311e-03	2.967105e+00
3.076738e+00	1.801535e-03	9.506182e-01
2.599425e+00	2.197359e-03	6.704623e-02
2.220670e+00	2.567247e-03	-1.991460e-01
1.956585e+00	2.917182e-03	-3.601915e-01
1.767176e+00	3.243747e-03	-4.232169e-01
1.604553e+00	3.657348e-03	-4.712720e-01
1.482643e+00	3.907064e-03	-4.869667e-01
1.375547e+00	4.157427e-03	-4.997253e-01
1.289157e+00	4.376237e-03	-4.970055e-01
1.213191e+00	4.541273e-03	-4.945533e-01
1.147948e+00	4.646934e-03	-4.842414e-01
1.089800e+00	4.741475e-03	-4.756706e-01
1.036456e+00	4.816398e-03	-4.627844e-01
9.865957e-01	4.862402e-03	-4.515371e-01
9.365311e-01	4.923904e-03	-4.361751e-01
8.890412e-01	4.932982e-03	-4.219684e-01
8.396008e-01	4.934816e-03	-4.034435e-01
7.886063e-01	4.931476e-03	-3.831354e-01
7.400536e-01	4.942367e-03	-3.611532e-01
8.182005e-01	-2.031624e-03	-1.440821e-01
8.341237e-01	-2.027591e-03	-1.483958e-01
8.450451e-01	-2.017407e-03	-1.541020e-01
8.504362e-01	-1.998809e-03	-1.592998e-01
8.473363e-01	-1.968690e-03	-1.651194e-01
8.423745e-01	-2.012651e-03	-1.699713e-01
8.284611e-01	-1.890438e-03	-1.751720e-01
8.137980e-01	-1.785640e-03	-1.792220e-01
7.906873e-01	-1.686663e-03	-1.844122e-01
7.649319e-01	-1.545606e-03	-1.881953e-01
7.287739e-01	-1.389854e-03	-1.941429e-01
6.838095e-01	-1.220271e-03	-1.965226e-01
6.209290e-01	-1.022178e-03	-1.995676e-01
5.390981e-01	-7.440598e-04	-1.923036e-01
4.266048e-01	-5.082054e-04	-1.769848e-01
2.641378e-01	-3.002495e-04	-1.263785e-01
2.239191e-02	-5.616963e-05	-1.338829e-02
-3.230861e-01	1.667209e-04	2.477110e-01
-7.590045e-01	4.283275e-04	1.013459e+00
-4.854957e-01	6.875575e-04	3.079529e+00
2.979578e+00	9.848868e-04	2.983836e+00
3.090405e+00	1.236150e-03	9.548411e-01
2.609023e+00	1.508461e-03	6.729381e-02
2.227647e+00	1.737910e-03	-1.997717e-01
1.962043e+00	1.958359e-03	-3.611964e-01
1.773654e+00	2.172106e-03	-4.247682e-01
1.607871e+00	2.398640e-03	-4.722466e-01
1.483935e+00	2.471081e-03	-4.873911e-01
1.378073e+00	2.614968e-03	-5.006429e-01
1.291154e+00	2.750680e-03	-4.977755e-01
1.214339e+00	2.862972e-03	-4.950212e-01
1.148873e+00	2.952957e-03	-4.846316e-01
1.090542e+00	3.051138e-03	-4.759942e-01
1.036698e+00	3.116311e-03	-4.628923e-01
9.871734e-01	3.236835e-03	-4.518015e-01
9.372713e-01	3.228281e-03	-4.365198e-01
8.891274e-01	3.222304e-03	-4.220093e-01
8.395871e-01	3.219339e-03	-4.034369e-01
7.889173e-01	3.216084e-03	-3.832865e-01
7.420162e-01	3.213795e-03	-3.621110e-01
8.156144e-01	-1.152720e-03	-1.436267e-01
8.334011e-01	-1.135830e-03	-1.482672e-01
8.447660e-01	-1.127378e-03	-1.540511e-01
8.501355e-01	-1.136396e-03	-1.592434e-01
8.483581e-01	-1.116193e-03	-1.653185e-01
8.420286e-01	-1.064657e-03	-1.699015e-01
8.269500e-01	-1.023228e-03	-1.748525e-01
8.127861e-01	-9.943890e-04	-1.789991e-01
7.895878e-01	-1.001026e-03	-1.841557e-01
7.634847e-01	-9.204164e-04	-1.878392e-01
7.264333e-01	-8.168360e-04	-1.935194e-01
6.813667e-01	-6.612084e-04	-1.958206e-01
6.177901e-01	-5.806311e-04	-1.985588e-01
5.355563e-01	-3.454498e-04	-1.910402e-01
4.241236e-01	-2.546514e-04	-1.759555e-01
2.610478e-01	-1.258242e-04	-1.249001e-01
1.901759e-02	1.219370e-05	-1.137076e-02
-3.272340e-01	1.550403e-04	2.508912e-01
-7.644948e-01	3.053199e-04	1.020790e+00
-4.877897e-01	4.550656e-04	3.094080e+00
2.989724e+00	6.274151e-04	2.993997e+00
3.099962e+00	7.738407e-04	9.577937e-01
2.615425e+00	9.177860e-04	6.745892e-02
2.231804e+00	1.052236e-03	-2.001445e-01
1.965305e+00	1.180616e-03	-3.617969e-01
1.774743e+00	1.301004e-03	-4.250292e-01
1.608972e+00	1.328230e-03	-4.725699e-01
1.485677e+00	1.439217e-03	-4.879631e-01
1.379193e+00	1.546390e-03	-5.010496e-01
1.292286e+00	1.606927e-03	-4.982119e-01
1.215724e+00	1.675203e-03	-4.955859e-01
1.150345e+00	1.820849e-03	-4.852526e-01
1.091991e+00	1.841588e-03	-4.766268e-01
1.039082e+00	1.883457e-03	-4.639572e-01
9.885213e-01	1.895360e-03	-4.524184e-01
9.362570e-01	1.880575e-03	-4.360475e-01
8.888286e-01	1.883583e-03	-4.218675e-01
8.394132e-01	1.905302e-03	-4.033533e-01
7.883333e-01	1.902110e-03	-3.830027e-01
7.397030e-01	1.886509e-03	-3.609821e-01
8.153659e-01	-1.385814e-03	-1.435830e-01
8.329719e-01	-1.385869e-03	-1.481908e-01
8.451744e-01	-1.386516e-03	-1.541256e-01
8.500664e-01	-1.368582e-03	-1.592305e-01
8.458367e-01	-1.326802e-03	-1.648272e-01
8.407845e-01	-1.248902e-03	-1.696505e-01
8.273899e-01	-1.151696e-03	-1.749455e-01
8.134985e-01	-1.214014e-03	-1.791560e-01
7.896681e-01	-9.935164e-04	-1.841745e-01
7.625130e-01	-1.041526e-03	-1.876001e-01
7.253890e-01	-6.833661e-04	-1.932412e-01
6.806386e-01	-7.696596e-04	-1.956113e-01
6.166067e-01	-3.325592e-04	-1.981784e-01
5.341437e-01	-3.945755e-04	-1.905363e-01
4.230661e-01	6.641305e-05	-1.755168e-01
2.592304e-01	4.077817e-04	-1.240305e-01
1.639996e-02	6.050726e-04	-9.805659e-03
-3.305790e-01	6.547698e-04	2.534559e-01
-7.672891e-01	7.031181e-04	1.024521e+00
-4.889791e-01	7.647029e-04	3.101624e+00
2.995189e+00	8.466651e-04	2.999469e+00
3.103158e+00	9.265939e-04	9.587813e-01
2.617975e+00	9.940789e-04	6.752470e-02
2.234149e+00	1.107226e-03	-2.003548e-01
1.967032e+00	1.043455e-03	-3.621148e-01
1.776083e+00	8.622942e-04	-4.253500e-01
1.610028e+00	4.835895e-04	-4.728800e-01
1.486961e+00	6.465697e-04	-4.883850e-01
1.380249e+00	3.311407e-04	-5.014333e-01
1.292781e+00	4.624531e-04	-4.984027e-01
1.217011e+00	1.691029e-04	-4.961107e-01
1.151025e+00	3.209966e-04	-4.855393e-01
1.091367e+00	6.283277e-05	-4.763545e-01
1.037490e+00	1.192841e-04	-4.632462e-01
9.871555e-01	-9.804906e-05	-4.517933e-01
9.370222e-01	-4.011721e-05	-4.364038e-01
8.896368e-01	-5.457262e-05	-4.222511e-01
8.402951e-01	-6.062432e-05	-4.037771e-01
7.882307e-01	-5.559426e-05	-3.829529e-01
7.396270e-01	-5.452641e-05	-3.609450e-01
8.156236e-01	-2.062962e-04	-1.436283e-01
8.334468e-01	-2.344075e-04	-1.482753e-01
8.440744e-01	-1.799341e-04	-1.539250e-01
8.485789e-01	-1.270827e-04	-1.589519e-01
8.458862e-01	-1.044154e-04	-1.648368e-01
8.389901e-01	-8.414803e-05	-1.692884e-01
8.265324e-01	-6.716229e-05	-1.747642e-01
8.104138e-01	-5.044490e-05	-1.784767e-01
7.873323e-01	5.650557e-06	-1.836297e-01
7.593878e-01	5.470555e-06	-1.868313e-01
7.228438e-01	7.024702e-06	-1.925632e-01
6.768268e-01	-1.767000e-05	-1.945158e-01
6.123522e-01	-3.716408e-05	-1.968110e-01
5.299958e-01	-2.674554e-05	-1.890567e-01
4.109241e-01	1.119669e-05	-1.704794e-01
2.508769e-01	-1.558293e-05	-1.200337e-01
1.337104e-02	-6.948758e-06	-7.994647e-03
-3.297560e-01	4.622202e-07	2.528249e-01
-7.674545e-01	6.420894e-06	1.024742e+00
-4.893223e-01	1.128277e-05	3.103801e+00
2.997750e+00	1.624331e-05	3.002034e+00
3.106335e+00	2.026161e-05	9.597630e-01
2.621502e+00	2.418668e-05	6.761566e-02
2.232519e+00	2.747174e-05	-2.002086e-01
1.960171e+00	6.599059e-05	-3.608517e-01
1.764920e+00	6.907559e-05	-4.226766e-01
1.606099e+00	4.330992e-05	-4.717260e-01
1.483349e+00	1.047892e-04	-4.871986e-01
1.376908e+00	1.025593e-04	-5.002194e-01
1.290208e+00	1.027102e-04	-4.974107e-01
1.213926e+00	1.078286e-04	-4.948530e-01
1.149090e+00	7.920620e-05	-4.847231e-01
1.089171e+00	1.001239e-04	-4.753960e-01
1.036964e+00	1.192914e-04	-4.630112e-01
9.856834e-01	1.433453e-04	-4.511196e-01
9.371880e-01	1.690452e-04	-4.364810e-01
8.883366e-01	1.990069e-04	-4.216340e-01
8.393179e-01	2.102583e-04	-4.033075e-01
7.886778e-01	2.887897e-04	-3.831701e-01
7.398665e-01	2.782417e-04	-3.610619e-01
8.200837e-01	1.464597e-03	-1.444137e-01
8.302501e-01	1.464956e-03	-1.477066e-01
8.416201e-01	1.466646e-03	-1.534774e-01
8.482885e-01	1.451292e-03	-1.588975e-01
8.449784e-01	1.413149e-03	-1.646599e-01
8.401465e-01	1.427009e-03	-1.695217e-01
8.268718e-01	1.289088e-03	-1.748359e-01
8.124470e-01	1.351729e-03	-1.789244e-01
7.889291e-01	1.110524e-03	-1.840021e-01
7.624948e-01	1.135445e-03	-1.875957e-01
7.256895e-01	7.863800e-04	-1.933212e-01
6.812294e-01	7.993053e-04	-1.957811e-01
6.167462e-01	3.680868e-04	-1.982232e-01
5.334438e-01	4.583777e-04	-1.902867e-01
4.228162e-01	-3.687999e-05	-1.754131e-01
2.596227e-01	-3.779411e-04	-1.242182e-01
1.605393e-02	-5.757451e-04	-9.598764e-03
-3.309281e-01	-6.014662e-04	2.537235e-01
-7.675940e-01	-6.531449e-04	1.024928e+00
-4.890864e-01	-7.473654e-04	3.102305e+00
2.995627e+00	-8.346982e-04	2.999908e+00
3.103507e+00	-8.905156e-04	9.588890e-01
2.618205e+00	-9.883725e-04	6.753062e-02
2.235288e+00	-1.104246e-03	-2.004569e-01
1.967806e+00	-1.044213e-03	-3.622573e-01
1.775662e+00	-8.343358e-04	-4.252492e-01
1.610633e+00	-4.911261e-04	-4.730577e-01
1.487755e+00	-6.609433e-04	-4.886458e-01
1.380222e+00	-3.566017e-04	-5.014237e-01
1.292848e+00	-4.213802e-04	-4.984285e-01
1.216719e+00	-1.431010e-04	-4.959916e-01
1.150915e+00	-2.447828e-04	-4.854928e-01
1.091902e+00	-2.943120e-05	-4.765880e-01
1.038107e+00	-1.269846e-04	-4.635217e-01
9.879488e-01	-1.565103e-05	-4.521564e-01
9.380478e-01	-4.782270e-05	-4.368815e-01
8.906308e-01	-2.114313e-05	-4.227229e-01
8.426375e-01	-1.199305e-05	-4.049027e-01
7.927556e-01	-1.625472e-05	-3.851513e-01
7.380116e-01	-1.724371e-05	-3.601567e-01
8.155633e-01	1.522410e-03	-1.436177e-01
8.333202e-01	1.547676e-03	-1.482528e-01
8.446360e-01	1.484541e-03	-1.540274e-01
8.499779e-01	1.447708e-03	-1.592139e-01
8.462776e-01	1.311687e-03	-1.649131e-01
8.413001e-01	1.266384e-03	-1.697545e-01
8.275406e-01	1.207497e-03	-1.749773e-01
8.130849e-01	1.132625e-03	-1.790649e-01
7.901786e-01	1.086782e-03	-1.842935e-01
7.636663e-01	9.891457e-04	-1.878839e-01
7.272671e-01	8.835691e-04	-1.937415e-01
6.822881e-01	7.979069e-04	-1.960854e-01
6.173251e-01	7.034106e-04	-1.984093e-01
5.356005e-01	5.414382e-04	-1.910560e-01
4.247133e-01	3.947847e-04	-1.762001e-01
2.610503e-01	2.764136e-04	-1.249012e-01
1.857688e-02	1.169942e-04	-1.110726e-02
-3.278764e-01	-4.404393e-05	2.513838e-01
-7.636676e-01	-2.106636e-04	1.019685e+00
-4.873211e-01	-3.753636e-04	3.091107e+00
2.990913e+00	-5.644314e-04	2.995187e+00
3.099196e+00	-7.252063e-04	9.575571e-01
2.614498e+00	-8.836703e-04	6.743502e-02
2.231641e+00	-1.031687e-03	-2.001299e-01
1.965865e+00	-1.208249e-03	-3.619000e-01
1.774556e+00	-1.338875e-03	-4.249843e-01
1.608351e+00	-1.461342e-03	-4.723876e-01
1.485426e+00	-1.606880e-03	-4.878808e-01
1.379936e+00	-1.707887e-03	-5.013198e-01
1.292929e+00	-1.790423e-03	-4.984599e-01
1.216160e+00	-1.863774e-03	-4.957636e-01
1.150462e+00	-1.963345e-03	-4.853019e-01
1.090872e+00	-2.012181e-03	-4.761384e-01
1.037016e+00	-2.048388e-03	-4.630347e-01
9.871000e-01	-2.089914e-03	-4.517679e-01
9.369851e-01	-2.133822e-03	-4.363866e-01
8.892044e-01	-2.079100e-03	-4.220459e-01
8.395443e-01	-2.122639e-03	-4.034164e-01
7.883833e-01	-2.199543e-03	-3.830270e-01
7.397151e-01	-2.187930e-03	-3.609880e-01
8.158434e-01	2.166711e-03	-1.436670e-01
8.336558e-01	2.162237e-03	-1.483125e-01
8.447740e-01	2.155267e-03	-1.540526e-01
8.528896e-01	2.055411e-03	-1.597593e-01
8.484534e-01	2.022110e-03	-1.653371e-01
8.419568e-01	1.983891e-03	-1.698870e-01
8.289406e-01	1.902416e-03	-1.752734e-01
8.141482e-01	1.805049e-03	-1.792991e-01
7.908758e-01	1.677685e-03	-1.844562e-01
7.651624e-01	1.559382e-03	-1.882520e-01
7.281914e-01	1.390931e-03	-1.939877e-01
6.836303e-01	1.286773e-03	-1.964711e-01
6.202828e-01	1.063303e-03	-1.993599e-01
5.380472e-01	8.519602e-04	-1.919288e-01