# vtk DataFile Version 2.0
OUTPUT by 3D-VPM
ASCII
DATASET UNSTRUCTURED_GRID
POINTS 820 double
9.510565e-01	0.000000e+00	-3.090170e-01
9.442611e-01	0.000000e+00	-3.078203e-01
9.267277e-01	0.000000e+00	-3.047010e-01
8.963175e-01	0.000000e+00	-2.991555e-01
8.562911e-01	0.000000e+00	-2.916579e-01
8.054250e-01	0.000000e+00	-2.817457e-01
7.470317e-01	0.000000e+00	-2.699633e-01
6.809074e-01	0.000000e+00	-2.559818e-01
6.100852e-01	0.000000e+00	-2.403847e-01
5.354138e-01	0.000000e+00	-2.229691e-01
4.593635e-01	0.000000e+00	-2.042585e-01
3.837764e-01	0.000000e+00	-1.841224e-01
3.103069e-01	0.000000e+00	-1.630077e-01
2.415927e-01	0.000000e+00	-1.409228e-01
1.782654e-01	0.000000e+00	-1.183331e-01
1.234349e-01	0.000000e+00	-9.558566e-02
7.662509e-02	0.000000e+00	-7.318920e-02
4.106998e-02	0.000000e+00	-5.193053e-02
1.528206e-02	0.000000e+00	-3.215886e-02
2.347037e-03	0.000000e+00	-1.488740e-02
0.000000e+00	0.000000e+00	0.000000e+00
1.064939e-02	0.000000e+00	1.066461e-02
3.126595e-02	0.000000e+00	1.703450e-02
6.375031e-02	0.000000e+00	1.787236e-02
1.050105e-01	0.000000e+00	1.417221e-02
1.560448e-01	0.000000e+00	4.777214e-03
2.137742e-01	0.000000e+00	-9.048270e-03
2.782849e-01	0.000000e+00	-2.799567e-02
3.468570e-01	0.000000e+00	-5.051783e-02
4.187060e-01	0.000000e+00	-7.662000e-02
4.916930e-01	0.000000e+00	-1.047585e-01
5.642168e-01	0.000000e+00	-1.343226e-01
6.348639e-01	0.000000e+00	-1.641238e-01
7.013280e-01	0.000000e+00	-1.931337e-01
7.630418e-01	0.000000e+00	-2.206893e-01
8.172084e-01	0.000000e+00	-2.454799e-01
8.641863e-01	0.000000e+00	-2.673591e-01
9.009752e-01	0.000000e+00	-2.848204e-01
9.288372e-01	0.000000e+00	-2.982085e-01
9.448555e-01	0.000000e+00	-3.059908e-01
9.510565e-01	0.000000e+00	-3.090170e-01
9.510565e-01	1.052632e+00	-3.090170e-01
9.442611e-01	1.052632e+00	-3.078203e-01
9.267277e-01	1.052632e+00	-3.047010e-01
8.963175e-01	1.052632e+00	-2.991555e-01
8.562911e-01	1.052632e+00	-2.916579e-01
8.054250e-01	1.052632e+00	-2.817457e-01
7.470317e-01	1.052632e+00	-2.699633e-01
6.809074e-01	1.052632e+00	-2.559818e-01
6.100852e-01	1.052632e+00	-2.403847e-01
5.354138e-01	1.052632e+00	-2.229691e-01
4.593635e-01	1.052632e+00	-2.042585e-01
3.837764e-01	1.052632e+00	-1.841224e-01
3.103069e-01	1.052632e+00	-1.630077e-01
2.415927e-01	1.052632e+00	-1.409228e-01
1.782654e-01	1.052632e+00	-1.183331e-01
1.234349e-01	1.052632e+00	-9.558566e-02
7.662509e-02	1.052632e+00	-7.318920e-02
4.106998e-02	1.052632e+00	-5.193053e-02
1.528206e-02	1.052632e+00	-3.215886e-02
2.347037e-03	1.052632e+00	-1.488740e-02
0.000000e+00	1.052632e+00	0.000000e+00
1.064939e-02	1.052632e+00	1.066461e-02
3.126595e-02	1.052632e+00	1.703450e-02
6.375031e-02	1.052632e+00	1.787236e-02
1.050105e-01	1.052632e+00	1.417221e-02
1.560448e-01	1.052632e+00	4.777214e-03
2.137742e-01	1.052632e+00	-9.048270e-03
2.782849e-01	1.052632e+00	-2.799567e-02
3.468570e-01	1.052632e+00	-5.051783e-02
4.187060e-01	1.052632e+00	-7.662000e-02
4.916930e-01	1.052632e+00	-1.047585e-01
5.642168e-01	1.052632e+00	-1.343226e-01
6.348639e-01	1.052632e+00	-1.641238e-01
7.013280e-01	1.052632e+00	-1.931337e-01
7.630418e-01	1.052632e+00	-2.206893e-01
8.172084e-01	1.052632e+00	-2.454799e-01
8.641863e-01	1.052632e+00	-2.673591e-01
9.009752e-01	1.052632e+00	-2.848204e-01
9.288372e-01	1.052632e+00	-2.982085e-01
9.448555e-01	1.052632e+00	-3.059908e-01
9.510565e-01	1.052632e+00	-3.090170e-01
9.510565e-01	2.105263e+00	-3.090170e-01
9.442611e-01	2.105263e+00	-3.078203e-01
9.267277e-01	2.105263e+00	-3.047010e-01
8.963175e-01	2.105263e+00	-2.991555e-01
8.562911e-01	2.105263e+00	-2.916579e-01
8.054250e-01	2.105263e+00	-2.817457e-01
7.470317e-01	2.105263e+00	-2.699633e-01
6.809074e-01	2.105263e+00	-2.559818e-01
6.100852e-01	2.105263e+00	-2.403847e-01
5.354138e-01	2.105263e+00	-2.229691e-01
4.593635e-01	2.105263e+00	-2.042585e-01
3.837764e-01	2.105263e+00	-1.841224e-01
3.103069e-01	2.105263e+00	-1.630077e-01
2.415927e-01	2.105263e+00	-1.409228e-01
1.782654e-01	2.105263e+00	-1.183331e-01
1.234349e-01	2.105263e+00	-9.558566e-02
7.662509e-02	2.105263e+00	-7.318920e-02
4.106998e-02	2.105263e+00	-5.193053e-02
1.528206e-02	2.105263e+00	-3.215886e-02
2.347037e-03	2.105263e+00	-1.488740e-02
0.000000e+00	2.105263e+00	0.000000e+00
1.064939e-02	2.105263e+00	1.066461e-02
3.126595e-02	2.105263e+00	1.703450e-02
6.375031e-02	2.105263e+00	1.787236e-02
1.050105e-01	2.105263e+00	1.417221e-02
1.560448e-01	2.105263e+00	4.777214e-03
2.137742e-01	2.105263e+00	-9.048270e-03
2.782849e-01	2.105263e+00	-2.799567e-02
3.468570e-01	2.105263e+00	-5.051783e-02
4.187060e-01	2.105263e+00	-7.662000e-02
4.916930e-01	2.105263e+00	-1.047585e-01
5.642168e-01	2.105263e+00	-1.343226e-01
6.348639e-01	2.105263e+00	-1.641238e-01
7.013280e-01	2.105263e+00	-1.931337e-01
7.630418e-01	2.105263e+00	-2.206893e-01
8.172084e-01	2.105263e+00	-2.454799e-01
8.641863e-01	2.105263e+00	-2.673591e-01
9.009752e-01	2.105263e+00	-2.848204e-01
9.288372e-01	2.105263e+00	-2.982085e-01
9.448555e-01	2.105263e+00	-3.059908e-01
9.510565e-01	2.105263e+00	-3.090170e-01
9.510565e-01	3.157895e+00	-3.090170e-01
9.442611e-01	3.157895e+00	-3.078203e-01
9.267277e-01	3.157895e+00	-3.047010e-01
8.963175e-01	3.157895e+00	-2.991555e-01
8.562911e-01	3.157895e+00	-2.916579e-01
8.054250e-01	3.157895e+00	-2.817457e-01
7.470317e-01	3.157895e+00	-2.699633e-01
6.809074e-01	3.157895e+00	-2.559818e-01
6.100852e-01	3.157895e+00	-2.403847e-01
5.354138e-01	3.157895e+00	-2.229691e-01
4.593635e-01	3.157895e+00	-2.042585e-01
3.837764e-01	3.157895e+00	-1.841224e-01
3.103069e-01	3.157895e+00	-1.630077e-01
2.415927e-01	3.157895e+00	-1.409228e-01
1.782654e-01	3.157895e+00	-1.183331e-01
1.234349e-01	3.157895e+00	-9.558566e-02
7.662509e-02	3.157895e+00	-7.318920e-02
4.106998e-02	3.157895e+00	-5.193053e-02
1.528206e-02	3.157895e+00	-3.215886e-02
2.347037e-03	3.157895e+00	-1.488740e-02
0.000000e+00	3.157895e+00	0.000000e+00
1.064939e-02	3.157895e+00	1.066461e-02
3.126595e-02	3.157895e+00	1.703450e-02
6.375031e-02	3.157895e+00	1.787236e-02
1.050105e-01	3.157895e+00	1.417221e-02
1.560448e-01	3.157895e+00	4.777214e-03
2.137742e-01	3.157895e+00	-9.048270e-03
2.782849e-01	3.157895e+00	-2.799567e-02
3.468570e-01	3.157895e+00	-5.051783e-02
4.187060e-01	3.157895e+00	-7.662000e-02
4.916930e-01	3.157895e+00	-1.047585e-01
5.642168e-01	3.157895e+00	-1.343226e-01
6.348639e-01	3.157895e+00	-1.641238e-01
7.013280e-01	3.157895e+00	-1.931337e-01
7.630418e-01	3.157895e+00	-2.206893e-01
8.172084e-01	3.157895e+00	-2.454799e-01
8.641863e-01	3.157895e+00	-2.673591e-01
9.009752e-01	3.157895e+00	-2.848204e-01
9.288372e-01	3.157895e+00	-2.982085e-01
9.448555e-01	3.157895e+00	-3.059908e-01
9.510565e-01	3.157895e+00	-3.090170e-01
9.510565e-01	4.210526e+00	-3.090170e-01
9.442611e-01	4.210526e+00	-3.078203e-01
9.267277e-01	4.210526e+00	-3.047010e-01
8.963175e-01	4.210526e+00	-2.991555e-01
8.562911e-01	4.210526e+00	-2.916579e-01
8.054250e-01	4.210526e+00	-2.817457e-01
7.470317e-01	4.210526e+00	-2.699633e-01
6.809074e-01	4.210526e+00	-2.559818e-01
6.100852e-01	4.210526e+00	-2.403847e-01
5.354138e-01	4.210526e+00	-2.229691e-01
4.593635e-01	4.210526e+00	-2.042585e-01
3.837764e-01	4.210526e+00	-1.841224e-01
3.103069e-01	4.210526e+00	-1.630077e-01
2.415927e-01	4.210526e+00	-1.409228e-01
1.782654e-01	4.210526e+00	-1.183331e-01
1.234349e-01	4.210526e+00	-9.558566e-02
7.662509e-02	4.210526e+00	-7.318920e-02
4.106998e-02	4.210526e+00	-5.193053e-02
1.528206e-02	4.210526e+00	-3.215886e-02
2.347037e-03	4.210526e+00	-1.488740e-02
0.000000e+00	4.210526e+00	0.000000e+00
1.064939e-02	4.210526e+00	1.066461e-02
3.126595e-02	4.210526e+00	1.703450e-02
6.375031e-02	4.210526e+00	1.787236e-02
1.050105e-01	4.210526e+00	1.417221e-02
1.560448e-01	4.210526e+00	4.777214e-03
2.137742e-01	4.210526e+00	-9.048270e-03
2.782849e-01	4.210526e+00	-2.799567e-02
3.468570e-01	4.210526e+00	-5.051783e-02
4.187060e-01	4.210526e+00	-7.662000e-02
4.916930e-01	4.210526e+00	-1.047585e-01
5.642168e-01	4.210526e+00	-1.343226e-01
6.348639e-01	4.210526e+00	-1.641238e-01
7.013280e-01	4.210526e+00	-1.931337e-01
7.630418e-01	4.210526e+00	-2.206893e-01
8.172084e-01	4.210526e+00	-2.454799e-01
8.641863e-01	4.210526e+00	-2.673591e-01
9.009752e-01	4.210526e+00	-2.848204e-01
9.288372e-01	4.210526e+00	-2.982085e-01
9.448555e-01	4.210526e+00	-3.059908e-01
9.510565e-01	4.210526e+00	-3.090170e-01
9.510565e-01	5.263158e+00	-3.090170e-01
9.442611e-01	5.263158e+00	-3.078203e-01
9.267277e-01	5.263158e+00	-3.047010e-01
8.963175e-01	5.263158e+00	-2.991555e-01
8.562911e-01	5.263158e+00	-2.916579e-01
8.054250e-01	5.263158e+00	-2.817457e-01
7.470317e-01	5.263158e+00	-2.699633e-01
6.809074e-01	5.263158e+00	-2.559818e-01
6.100852e-01	5.263158e+00	-2.403847e-01
5.354138e-01	5.263158e+00	-2.229691e-01
4.593635e-01	5.263158e+00	-2.042585e-01
3.837764e-01	5.263158e+00	-1.841224e-01
3.103069e-01	5.263158e+00	-1.630077e-01
2.415927e-01	5.263158e+00	-1.409228e-01
1.782654e-01	5.263158e+00	-1.183331e-01
1.234349e-01	5.263158e+00	-9.558566e-02
7.662509e-02	5.263158e+00	-7.318920e-02
4.106998e-02	5.263158e+00	-5.193053e-02
1.528206e-02	5.263158e+00	-3.215886e-02
2.347037e-03	5.263158e+00	-1.488740e-02
0.000000e+00	5.263158e+00	0.000000e+00
1.064939e-02	5.263158e+00	1.066461e-02
3.126595e-02	5.263158e+00	1.703450e-02
6.375031e-02	5.263158e+00	1.787236e-02
1.050105e-01	5.263158e+00	1.417221e-02
1.560448e-01	5.263158e+00	4.777214e-03
2.137742e-01	5.263158e+00	-9.048270e-03
2.782849e-01	5.263158e+00	-2.799567e-02
3.468570e-01	5.263158e+00	-5.051783e-02
4.187060e-01	5.263158e+00	-7.662000e-02
4.916930e-01	5.263158e+00	-1.047585e-01
5.642168e-01	5.263158e+00	-1.343226e-01
6.348639e-01	5.263158e+00	-1.641238e-01
7.013280e-01	5.263158e+00	-1.931337e-01
7.630418e-01	5.263158e+00	-2.206893e-01
8.172084e-01	5.263158e+00	-2.454799e-01
8.641863e-01	5.263158e+00	-2.673591e-01
9.009752e-01	5.263158e+00	-2.848204e-01
9.288372e-01	5.263158e+00	-2.982085e-01
9.448555e-01	5.263158e+00	-3.059908e-01
9.510565e-01	5.263158e+00	-3.090170e-01
9.510565e-01	6.315789e+00	-3.090170e-01
9.442611e-01	6.315789e+00	-3.078203e-01
[...]
CELL_DATA 760
VECTORS V double
8.414217e-01	-6.903714e-02	-1.481713e-01
8.655422e-01	-6.886355e-02	-1.539853e-01
8.835565e-01	-6.841378e-02	-1.611249e-01
8.953216e-01	-6.761937e-02	-1.677075e-01
8.977856e-01	-6.645841e-02	-1.749504e-01
8.990970e-01	-6.491327e-02	-1.814165e-01
8.920581e-01	-6.297366e-02	-1.886191e-01
8.847465e-01	-6.061546e-02	-1.948469e-01
8.704111e-01	-5.781022e-02	-2.030062e-01
8.547697e-01	-5.452534e-02	-2.102979e-01
8.294632e-01	-5.073532e-02	-2.209662e-01
7.985395e-01	-4.642596e-02	-2.294953e-01
7.511881e-01	-4.163022e-02	-2.414331e-01
6.891608e-01	-3.639928e-02	-2.458330e-01
6.025063e-01	-3.077110e-02	-2.499608e-01
4.718242e-01	-2.486850e-02	-2.257474e-01
2.701070e-01	-1.869948e-02	-1.614990e-01
-1.747545e-02	-1.243010e-02	1.339848e-02
-4.218707e-01	-5.861793e-03	5.633019e-01
-3.427230e-01	7.192947e-04	2.173913e+00
2.327183e+00	8.433044e-03	2.330509e+00
2.541829e+00	1.519834e-02	7.853478e-01
2.210647e+00	2.214508e-02	5.701860e-02
1.925594e+00	2.899297e-02	-1.726841e-01
1.720235e+00	3.598301e-02	-3.166815e-01
1.570443e+00	4.295012e-02	-3.761018e-01
1.435584e+00	4.988864e-02	-4.216441e-01
1.336761e+00	5.662007e-02	-4.390525e-01
1.250659e+00	6.302625e-02	-4.543542e-01
1.181714e+00	6.890934e-02	-4.555832e-01
1.121881e+00	7.415382e-02	-4.573312e-01
1.071622e+00	7.862259e-02	-4.520444e-01
1.027480e+00	8.225341e-02	-4.484694e-01
9.872046e-01	8.503854e-02	-4.407934e-01
9.499823e-01	8.702938e-02	-4.347802e-01
9.115294e-01	8.832381e-02	-4.245309e-01
8.743616e-01	8.905015e-02	-4.150010e-01
8.341867e-01	8.935749e-02	-4.008419e-01
7.910578e-01	8.940146e-02	-3.843264e-01
7.483064e-01	8.935579e-02	-3.651807e-01
8.268556e-01	-4.834614e-02	-1.456063e-01
8.473431e-01	-4.822183e-02	-1.507476e-01
8.618051e-01	-4.790330e-02	-1.571584e-01
8.704907e-01	-4.733947e-02	-1.630563e-01
8.702415e-01	-4.650771e-02	-1.695829e-01
8.688567e-01	-4.538920e-02	-1.753148e-01
8.588569e-01	-4.397326e-02	-1.815989e-01
8.479865e-01	-4.224488e-02	-1.867513e-01
8.293152e-01	-4.018926e-02	-1.934214e-01
8.083258e-01	-3.779120e-02	-1.988714e-01
7.765363e-01	-3.502094e-02	-2.068667e-01
7.378744e-01	-3.192894e-02	-2.120606e-01
6.815675e-01	-2.849256e-02	-2.190569e-01
6.085123e-01	-2.476689e-02	-2.170646e-01
5.087081e-01	-2.077788e-02	-2.110469e-01
3.607013e-01	-1.660860e-02	-1.725799e-01
1.372858e-01	-1.226085e-02	-8.208419e-02
-1.816086e-01	-7.848012e-03	1.392398e-01
-6.033159e-01	-3.230244e-03	8.055762e-01
-4.198949e-01	1.389533e-03	2.663419e+00
2.682720e+00	6.789996e-03	2.686554e+00
2.844278e+00	1.150628e-02	8.787952e-01
2.433390e+00	1.632062e-02	6.276374e-02
2.097436e+00	2.103011e-02	-1.880946e-01
1.860563e+00	2.579350e-02	-3.425147e-01
1.689708e+00	3.049107e-02	-4.046642e-01
1.539112e+00	3.511704e-02	-4.520514e-01
1.427848e+00	3.955329e-02	-4.689697e-01
1.330750e+00	4.372797e-02	-4.834509e-01
1.251930e+00	4.753343e-02	-4.826536e-01
1.182691e+00	5.085934e-02	-4.821200e-01
1.123356e+00	5.367693e-02	-4.738676e-01
1.070407e+00	5.593645e-02	-4.672060e-01
1.021753e+00	5.764234e-02	-4.562196e-01
9.765993e-01	5.883584e-02	-4.469620e-01
9.307668e-01	5.958778e-02	-4.334905e-01
8.867534e-01	5.998656e-02	-4.208826e-01
8.402947e-01	6.013299e-02	-4.037769e-01
7.917012e-01	6.012936e-02	-3.846390e-01
7.448094e-01	6.008605e-02	-3.634741e-01
8.205593e-01	-2.041203e-02	-1.444975e-01
8.397172e-01	-2.036019e-02	-1.493909e-01
8.526993e-01	-2.022982e-02	-1.554978e-01
8.598571e-01	-1.999376e-02	-1.610644e-01
8.580653e-01	-1.963512e-02	-1.672102e-01
8.550977e-01	-1.913723e-02	-1.725385e-01
8.434730e-01	-1.849030e-02	-1.783461e-01
8.308679e-01	-1.768905e-02	-1.829813e-01
8.103068e-01	-1.670631e-02	-1.889880e-01
7.869135e-01	-1.558601e-02	-1.936034e-01
7.528430e-01	-1.431383e-02	-2.005549e-01
7.115444e-01	-1.290462e-02	-2.044935e-01
6.517187e-01	-1.134836e-02	-2.094634e-01
5.745565e-01	-9.681266e-03	-2.049521e-01
4.697629e-01	-7.913412e-03	-1.948898e-01
3.150049e-01	-6.077263e-03	-1.507162e-01
8.299638e-02	-4.169549e-03	-4.962415e-02
-2.484147e-01	-2.238195e-03	1.904602e-01
-6.768433e-01	-2.223426e-04	9.037535e-01
-4.509387e-01	1.786082e-03	2.860332e+00
2.823835e+00	4.115359e-03	2.827870e+00
2.962014e+00	6.123479e-03	9.151721e-01
2.518021e+00	8.137097e-03	6.494662e-02
2.160741e+00	1.006106e-02	-1.937717e-01
1.910390e+00	1.195163e-02	-3.516875e-01
1.730316e+00	1.375525e-02	-4.143893e-01
1.572810e+00	1.546730e-02	-4.619486e-01
1.456144e+00	1.704718e-02	-4.782633e-01
1.354667e+00	1.847736e-02	-4.921398e-01
1.271708e+00	1.974344e-02	-4.902786e-01
1.198804e+00	2.080871e-02	-4.886887e-01
1.136487e+00	2.166905e-02	-4.794069e-01
1.080556e+00	2.230606e-02	-4.716355e-01
1.029173e+00	2.277765e-02	-4.595326e-01
9.815366e-01	2.307969e-02	-4.492217e-01
9.334897e-01	2.324433e-02	-4.347586e-01
8.875246e-01	2.330678e-02	-4.212486e-01
8.394013e-01	2.330453e-02	-4.033476e-01
7.894756e-01	2.327406e-02	-3.835577e-01
7.416745e-01	2.324726e-02	-3.619442e-01
8.181554e-01	-1.021993e-02	-1.440742e-01
8.367400e-01	-1.019888e-02	-1.488612e-01
8.489667e-01	-1.014259e-02	-1.548172e-01
8.553520e-01	-1.003677e-02	-1.602205e-01
8.527721e-01	-9.871565e-03	-1.661787e-01
8.489653e-01	-9.623652e-03	-1.713012e-01
8.364723e-01	-9.310945e-03	-1.768659e-01
8.225729e-01	-8.913453e-03	-1.811545e-01
8.009400e-01	-8.440092e-03	-1.868034e-01
7.769157e-01	-7.876178e-03	-1.911436e-01
7.414895e-01	-7.236757e-03	-1.975303e-01
6.983550e-01	-6.499149e-03	-2.007029e-01
6.367917e-01	-5.693599e-03	-2.046659e-01
5.574731e-01	-4.817374e-03	-1.988582e-01
4.500555e-01	-3.882529e-03	-1.867138e-01
2.917564e-01	-2.906507e-03	-1.395928e-01
5.527798e-02	-1.892659e-03	-3.305112e-02
-2.825712e-01	-8.591167e-04	2.166481e-01
-7.144399e-01	2.206166e-04	9.539544e-01
-4.667737e-01	1.295305e-03	2.960774e+00
2.895409e+00	2.537470e-03	2.899547e+00
3.021265e+00	3.602236e-03	9.334787e-01
2.560232e+00	4.661884e-03	6.603534e-02
2.191966e+00	5.665336e-03	-1.965719e-01
1.934703e+00	6.645082e-03	-3.561634e-01
1.749920e+00	7.565286e-03	-4.190843e-01
1.588914e+00	8.429765e-03	-4.666787e-01
1.469554e+00	9.226872e-03	-4.826678e-01
1.365882e+00	9.935630e-03	-4.962138e-01
1.281347e+00	1.055476e-02	-4.939948e-01
1.206804e+00	1.109330e-02	-4.919498e-01
1.142501e+00	1.152469e-02	-4.819434e-01
1.085250e+00	1.186282e-02	-4.736844e-01
1.032974e+00	1.210100e-02	-4.612299e-01
9.842019e-01	1.226111e-02	-4.504415e-01
9.351563e-01	1.234210e-02	-4.355348e-01
8.883139e-01	1.238606e-02	-4.216232e-01
8.394625e-01	1.239626e-02	-4.033770e-01
7.889768e-01	1.238943e-02	-3.833154e-01
7.407050e-01	1.238076e-02	-3.614711e-01
8.170277e-01	-5.650875e-03	-1.438756e-01
8.351850e-01	-5.639754e-03	-1.485846e-01
8.470017e-01	-5.608249e-03	-1.544588e-01
8.529467e-01	-5.548874e-03	-1.597700e-01
8.496108e-01	-5.452687e-03	-1.655627e-01
8.453661e-01	-5.312399e-03	-1.705749e-01
8.324886e-01	-5.141055e-03	-1.760236e-01
8.184680e-01	-4.921377e-03	-1.802504e-01
7.963055e-01	-4.656479e-03	-1.857225e-01
7.711154e-01	-4.320692e-03	-1.897166e-01
7.348469e-01	-3.929778e-03	-1.957608e-01
6.909772e-01	-3.493525e-03	-1.985826e-01
6.283627e-01	-3.022045e-03	-2.019568e-01
5.476502e-01	-2.601743e-03	-1.953543e-01
4.386701e-01	-2.058472e-03	-1.819904e-01
2.783603e-01	-1.450928e-03	-1.331833e-01
3.927888e-02	-8.415682e-04	-2.348514e-02
-3.024646e-01	-2.220436e-04	2.319005e-01
-7.363403e-01	4.256876e-04	9.831967e-01
-4.759851e-01	1.070276e-03	3.019203e+00
2.936900e+00	1.813422e-03	2.941097e+00
3.055432e+00	2.448107e-03	9.440354e-01
2.584432e+00	3.076434e-03	6.665954e-02
2.209869e+00	3.667135e-03	-1.981774e-01
1.948495e+00	4.236669e-03	-3.587023e-01
1.760872e+00	4.759857e-03	-4.217070e-01
1.597946e+00	5.245509e-03	-4.693316e-01
1.477003e+00	5.789295e-03	-4.851142e-01
1.371967e+00	6.193557e-03	-4.984246e-01
1.286317e+00	6.531913e-03	-4.959108e-01
1.210951e+00	6.812771e-03	-4.936401e-01
1.146321e+00	7.042169e-03	-4.835551e-01
1.088278e+00	7.239641e-03	-4.750059e-01
1.034943e+00	7.382054e-03	-4.621092e-01
9.854728e-01	7.480173e-03	-4.510232e-01
9.358720e-01	7.528631e-03	-4.358681e-01
8.888576e-01	7.551957e-03	-4.218813e-01
8.396025e-01	7.558374e-03	-4.034443e-01
7.887815e-01	7.554527e-03	-3.832205e-01
7.403472e-01	7.550266e-03	-3.612965e-01
8.162890e-01	-3.259882e-03	-1.437455e-01
8.342260e-01	-3.266860e-03	-1.484140e-01
8.457721e-01	-3.247605e-03	-1.542346e-01
8.513769e-01	-3.211144e-03	-1.594760e-01
8.479386e-01	-3.149488e-03	-1.652368e-01
8.435615e-01	-3.096953e-03	-1.702108e-01
8.304232e-01	-2.979898e-03	-1.755868e-01
8.156718e-01	-2.836111e-03	-1.796346e-01
7.928272e-01	-2.652025e-03	-1.849113e-01
7.673745e-01	-2.419813e-03	-1.887962e-01
7.306784e-01	-2.180582e-03	-1.946503e-01
6.862555e-01	-1.955034e-03	-1.972256e-01
6.243675e-01	-1.641098e-03	-2.006727e-01
5.432237e-01	-1.423118e-03	-1.937753e-01
4.313714e-01	-1.058815e-03	-1.789624e-01
2.693117e-01	-6.813008e-04	-1.288540e-01
2.903376e-02	-2.856961e-04	-1.735950e-02
-3.149809e-01	1.091203e-04	2.414968e-01
-7.501296e-01	5.210612e-04	1.001609e+00
-4.817792e-01	9.301944e-04	3.055955e+00
2.962916e+00	1.401082e-03	2.967151e+00
3.076774e+00	1.802046e-03	9.506293e-01
2.599449e+00	2.197614e-03	6.704687e-02
2.220687e+00	2.567254e-03	-1.991475e-01
1.956597e+00	2.916998e-03	-3.601939e-01
1.767186e+00	3.243337e-03	-4.232192e-01
1.604561e+00	3.656758e-03	-4.712743e-01
1.482649e+00	3.906282e-03	-4.869687e-01
1.375552e+00	4.156479e-03	-4.997270e-01
1.289160e+00	4.375144e-03	-4.970069e-01
1.213194e+00	4.540067e-03	-4.945545e-01
1.147951e+00	4.645630e-03	-4.842425e-01
1.089802e+00	4.740106e-03	-4.756714e-01
1.036457e+00	4.814981e-03	-4.627850e-01
9.865966e-01	4.860955e-03	-4.515375e-01
9.365315e-01	4.922445e-03	-4.361753e-01
8.890411e-01	4.931514e-03	-4.219684e-01
8.396002e-01	4.933342e-03	-4.034432e-01
7.886053e-01	4.929999e-03	-3.831349e-01
7.400525e-01	4.940891e-03	-3.611527e-01
8.181987e-01	-2.024379e-03	-1.440818e-01
8.341214e-01	-2.020349e-03	-1.483953e-01
8.450424e-01	-2.010177e-03	-1.541015e-01
8.504332e-01	-1.991604e-03	-1.592992e-01
8.473333e-01	-1.961531e-03	-1.651188e-01
8.423712e-01	-2.005569e-03	-1.699706e-01
8.284575e-01	-1.883460e-03	-1.751712e-01
8.137942e-01	-1.778805e-03	-1.792211e-01
7.906833e-01	-1.680012e-03	-1.844112e-01
7.649274e-01	-1.539182e-03	-1.881942e-01
7.287691e-01	-1.383687e-03	-1.941417e-01
6.838042e-01	-1.214396e-03	-1.965211e-01
6.209230e-01	-1.016627e-03	-1.995657e-01
5.390911e-01	-7.388443e-04	-1.923011e-01
4.265967e-01	-5.033763e-04	-1.769815e-01
2.641284e-01	-2.958224e-04	-1.263740e-01
2.238034e-02	-5.216541e-05	-1.338137e-02
-3.231007e-01	1.703230e-04	2.477222e-01
-7.590202e-01	4.315070e-04	1.013480e+00
-4.855022e-01	6.903162e-04	3.079570e+00
2.979605e+00	9.871570e-04	2.983863e+00
3.090427e+00	1.237999e-03	9.548478e-01
2.609038e+00	1.509883e-03	6.729419e-02
2.227657e+00	1.738925e-03	-1.997726e-01
1.962050e+00	1.959015e-03	-3.611978e-01
1.773659e+00	2.172399e-03	-4.247695e-01
1.607875e+00	2.398549e-03	-4.722477e-01
1.483938e+00	2.470636e-03	-4.873920e-01
1.378075e+00	2.614204e-03	-5.006437e-01
1.291156e+00	2.749628e-03	-4.977762e-01
1.214340e+00	2.861688e-03	-4.950217e-01
1.148874e+00	2.951463e-03	-4.846320e-01
1.090543e+00	3.049476e-03	-4.759945e-01
1.036698e+00	3.114520e-03	-4.628926e-01
9.871737e-01	3.234949e-03	-4.518016e-01
9.372713e-01	3.226328e-03	-4.365199e-01
8.891270e-01	3.220310e-03	-4.220092e-01
8.395864e-01	3.217322e-03	-4.034366e-01
7.889163e-01	3.214060e-03	-3.832860e-01
7.420152e-01	3.211768e-03	-3.621105e-01
8.156126e-01	-1.135454e-03	-1.436264e-01
8.333993e-01	-1.118618e-03	-1.482669e-01
8.447643e-01	-1.110306e-03	-1.540508e-01
8.501339e-01	-1.119570e-03	-1.592431e-01
8.483568e-01	-1.099724e-03	-1.653183e-01
8.420275e-01	-1.048653e-03	-1.699013e-01
8.269491e-01	-1.007796e-03	-1.748523e-01
8.127855e-01	-9.796216e-04	-1.789990e-01
7.895873e-01	-9.869931e-04	-1.841556e-01
7.634844e-01	-9.071919e-04	-1.878391e-01
7.264331e-01	-8.044704e-04	-1.935193e-01
6.813666e-01	-6.497440e-04	-1.958206e-01
6.177899e-01	-5.701007e-04	-1.985587e-01
5.355561e-01	-3.358580e-04	-1.910402e-01
4.241234e-01	-2.460376e-04	-1.759554e-01
2.610472e-01	-1.181358e-04	-1.248998e-01
1.901651e-02	1.892630e-05	-1.137011e-02
-3.272356e-01	1.608218e-04	2.508925e-01
-7.644964e-01	3.101355e-04	1.020792e+00
-4.877902e-01	4.589369e-04	3.094083e+00
2.989725e+00	6.302036e-04	2.993998e+00
3.099961e+00	7.756984e-04	9.577934e-01
2.615423e+00	9.187066e-04	6.745886e-02
2.231802e+00	1.052248e-03	-2.001444e-01
1.965303e+00	1.179669e-03	-3.617965e-01
1.774741e+00	1.299189e-03	-4.250285e-01
1.608969e+00	1.325571e-03	-4.725689e-01
1.485673e+00	1.435771e-03	-4.879621e-01
1.379190e+00	1.542232e-03	-5.010485e-01
1.292283e+00	1.602131e-03	-4.982107e-01
1.215721e+00	1.669861e-03	-4.955848e-01
1.150343e+00	1.815074e-03	-4.852516e-01
1.091989e+00	1.835480e-03	-4.766258e-01
1.039081e+00	1.877124e-03	-4.639564e-01
9.885196e-01	1.888890e-03	-4.524176e-01
9.362554e-01	1.874036e-03	-4.360467e-01
8.888270e-01	1.877036e-03	-4.218668e-01
8.394116e-01	1.898784e-03	-4.033526e-01
7.883317e-01	1.895634e-03	-3.830020e-01
7.397014e-01	1.880062e-03	-3.609813e-01
8.153733e-01	-1.350882e-03	-1.435842e-01
8.329809e-01	-1.350926e-03	-1.481924e-01
8.451852e-01	-1.351575e-03	-1.541276e-01
8.500788e-01	-1.333738e-03	-1.592328e-01
8.458503e-01	-1.292264e-03	-1.648298e-01
8.407992e-01	-1.214981e-03	-1.696534e-01
8.274054e-01	-1.118768e-03	-1.749488e-01
8.135147e-01	-1.182456e-03	-1.791596e-01
7.896848e-01	-9.636828e-04	-1.841784e-01
7.625304e-01	-1.013722e-03	-1.876044e-01
7.254072e-01	-6.578283e-04	-1.932461e-01
6.806577e-01	-7.465536e-04	-1.956168e-01
6.166268e-01	-3.119938e-04	-1.981848e-01
5.341652e-01	-3.765984e-04	-1.905440e-01
4.230891e-01	8.178724e-05	-1.755263e-01
2.592556e-01	4.205787e-04	-1.240426e-01
1.642916e-02	6.152800e-04	-9.823118e-03
-3.305444e-01	6.624190e-04	2.534293e-01
-7.672520e-01	7.081500e-04	1.024472e+00
-4.889636e-01	7.671490e-04	3.101526e+00
2.995118e+00	8.461005e-04	2.999398e+00
3.103097e+00	9.233902e-04	9.587625e-01
2.617930e+00	9.881587e-04	6.752354e-02
2.234113e+00	1.098606e-03	-2.003516e-01
1.967003e+00	1.032013e-03	-3.621094e-01
1.776059e+00	8.480262e-04	-4.253442e-01
1.610007e+00	4.664815e-04	-4.728738e-01
1.486943e+00	6.266478e-04	-4.883790e-01
1.380233e+00	3.084796e-04	-5.014277e-01
1.292768e+00	4.372298e-04	-4.983976e-01
1.217000e+00	1.415711e-04	-4.961062e-01
1.151016e+00	2.915157e-04	-4.855355e-01
1.091361e+00	3.185600e-05	-4.763516e-01
1.037485e+00	8.729458e-05	-4.632441e-01
9.871525e-01	-1.305795e-04	-4.517919e-01
9.370208e-01	-7.281323e-05	-4.364031e-01
8.896368e-01	-8.721178e-05	-4.222511e-01
8.402966e-01	-9.314558e-05	-4.037778e-01
7.882332e-01	-8.803819e-05	-3.829541e-01
7.396305e-01	-8.695005e-05	-3.609467e-01
8.156201e-01	4.559045e-05	-1.436277e-01
8.334447e-01	4.659037e-05	-1.482750e-01
8.440765e-01	2.579626e-05	-1.539254e-01
8.485880e-01	4.801655e-05	-1.589536e-01
8.459040e-01	4.557198e-05	-1.648403e-01
8.390171e-01	4.417200e-05	-1.692938e-01
8.265681e-01	4.222206e-05	-1.747717e-01
8.104573e-01	4.246629e-05	-1.784862e-01
7.873826e-01	8.428229e-05	-1.836414e-01
7.594439e-01	7.180624e-05	-1.868451e-01
7.229050e-01	6.278252e-05	-1.925795e-01
6.768929e-01	2.899620e-05	-1.945348e-01
6.124233e-01	1.608333e-06	-1.968338e-01
5.300729e-01	5.129981e-06	-1.890842e-01
4.110083e-01	3.692117e-05	-1.705144e-01
2.509716e-01	4.539693e-06	-1.200790e-01
1.348008e-02	7.993841e-06	-8.059841e-03
-3.296251e-01	1.054787e-05	2.527245e-01
-7.673123e-01	1.170588e-05	1.024552e+00
-4.892623e-01	1.185831e-05	3.103420e+00
2.997473e+00	1.132419e-05	3.001757e+00
3.106098e+00	1.044063e-05	9.596896e-01
2.621325e+00	9.105470e-06	6.761110e-02
2.232380e+00	6.951928e-06	-2.001961e-01
1.960055e+00	3.953140e-05	-3.608305e-01
1.764820e+00	3.599186e-05	-4.226526e-01
1.606010e+00	2.688388e-06	-4.716999e-01
1.483268e+00	5.558085e-05	-4.871722e-01
1.376835e+00	4.337912e-05	-5.001932e-01
1.290144e+00	3.193012e-05	-4.973859e-01
1.213870e+00	2.350990e-05	-4.948301e-01
1.149044e+00	-2.085863e-05	-4.847035e-01
1.089136e+00	-1.812091e-05	-4.753804e-01
1.036939e+00	-1.970703e-05	-4.630003e-01
9.856700e-01	-1.900756e-05	-4.511134e-01
9.371839e-01	-1.929409e-05	-4.364791e-01
8.883389e-01	-1.839081e-05	-4.216351e-01
8.393225e-01	-4.176809e-05	-4.033098e-01
7.886816e-01	-2.144751e-05	-3.831720e-01
7.398681e-01	-2.258978e-05	-3.610627e-01
8.152055e-01	1.474461e-03	-1.435547e-01
8.343539e-01	1.474616e-03	-1.484367e-01
8.448658e-01	1.475801e-03	-1.540693e-01
8.496662e-01	1.459659e-03	-1.591555e-01
8.459256e-01	1.420558e-03	-1.648445e-01
8.408575e-01	1.433407e-03	-1.696652e-01
8.274300e-01	1.294518e-03	-1.749540e-01
8.128989e-01	1.356290e-03	-1.790240e-01
7.893034e-01	1.114329e-03	-1.840894e-01
7.628124e-01	1.138612e-03	-1.876738e-01
7.259650e-01	7.890204e-04	-1.933946e-01
6.814755e-01	8.015029e-04	-1.958519e-01
6.169724e-01	3.699114e-04	-1.982959e-01
5.336601e-01	4.598814e-04	-1.903638e-01
4.230312e-01	-3.565507e-05	-1.755023e-01
2.598476e-01	-3.769702e-04	-1.243258e-01
1.629849e-02	-5.750051e-04	-9.744988e-03
-3.306454e-01	-6.009311e-04	2.535068e-01
-7.672938e-01	-6.528133e-04	1.024527e+00
-4.889607e-01	-7.472290e-04	3.101508e+00
2.995044e+00	-8.347790e-04	2.999325e+00
3.102996e+00	-8.907801e-04	9.587311e-01
2.617813e+00	-9.888269e-04	6.752052e-02
2.234968e+00	-1.104896e-03	-2.004283e-01
1.967523e+00	-1.045052e-03	-3.622051e-01
1.775394e+00	-8.353982e-04	-4.251850e-01
1.610367e+00	-4.924401e-04	-4.729796e-01
1.487479e+00	-6.625630e-04	-4.885550e-01
1.379925e+00	-3.585897e-04	-5.013157e-01
1.292517e+00	-4.238371e-04	-4.983010e-01
1.216342e+00	-1.461330e-04	-4.958377e-01
1.150474e+00	-2.484971e-04	-4.853068e-01
1.091378e+00	-3.397313e-05	-4.763591e-01
1.037471e+00	-1.324674e-04	-4.632377e-01
9.871601e-01	-2.212888e-05	-4.517954e-01
9.370302e-01	-5.524477e-05	-4.364075e-01
8.891950e-01	-2.932310e-05	-4.220414e-01
8.399504e-01	-2.063109e-05	-4.036115e-01
7.894538e-01	-2.504143e-05	-3.835472e-01
7.394555e-01	-2.601064e-05	-3.608613e-01
8.155941e-01	1.275182e-03	-1.436231e-01
8.333592e-01	1.271326e-03	-1.482598e-01
8.446828e-01	1.283430e-03	-1.540359e-01
8.500309e-01	1.277175e-03	-1.592238e-01
8.463351e-01	1.166177e-03	-1.649243e-01
8.413611e-01	1.142418e-03	-1.697668e-01
8.276045e-01	1.102309e-03	-1.749908e-01
8.131514e-01	1.043725e-03	-1.790796e-01
7.902475e-01	1.011945e-03	-1.843096e-01
7.637377e-01	9.263758e-04	-1.879014e-01
7.273410e-01	8.311323e-04	-1.937612e-01
6.823652e-01	7.543200e-04	-1.961076e-01
6.174059e-01	6.674680e-04	-1.984352e-01
5.356865e-01	5.121376e-04	-1.910867e-01
4.248062e-01	3.713907e-04	-1.762387e-01
2.611540e-01	2.583614e-04	-1.249508e-01
1.869530e-02	1.038282e-04	-1.117806e-02
-3.277350e-01	-5.259255e-05	2.512754e-01
-7.635143e-01	-2.146565e-04	1.019481e+00
-4.872567e-01	-3.748873e-04	3.090699e+00
2.990616e+00	-5.587332e-04	2.994890e+00
3.098942e+00	-7.148368e-04	9.574786e-01
2.614309e+00	-8.682697e-04	6.743013e-02
2.231492e+00	-1.010995e-03	-2.001165e-01
1.965741e+00	-1.181817e-03	-3.618772e-01
1.774448e+00	-1.306029e-03	-4.249584e-01
1.608254e+00	-1.421178e-03	-4.723590e-01
1.485336e+00	-1.558328e-03	-4.878514e-01
1.379853e+00	-1.649575e-03	-5.012896e-01
1.292852e+00	-1.720698e-03	-4.984300e-01
1.216088e+00	-1.780688e-03	-4.957343e-01
1.150397e+00	-1.864675e-03	-4.852742e-01
1.090813e+00	-1.895470e-03	-4.761125e-01
1.036964e+00	-1.911043e-03	-4.630114e-01
9.870555e-01	-1.929299e-03	-4.517475e-01
9.369492e-01	-1.947276e-03	-4.363698e-01
8.891781e-01	-1.863522e-03	-4.220334e-01
8.395287e-01	-1.872442e-03	-4.034088e-01
7.883785e-01	-1.891133e-03	-3.830247e-01
7.397197e-01	-1.888922e-03	-3.609902e-01
8.158525e-01	2.128101e-03	-1.436686e-01
8.336671e-01	2.123807e-03	-1.483145e-01
8.447877e-01	2.117306e-03	-1.540551e-01
8.529056e-01	2.018270e-03	-1.597623e-01
8.484713e-01	1.986149e-03	-1.653406e-01
8.419764e-01	1.949455e-03	-1.698909e-01
8.289615e-01	1.869802e-03	-1.752778e-01
8.141701e-01	1.774524e-03	-1.793039e-01
7.908986e-01	1.649471e-03	-1.844615e-01
7.651861e-01	1.533642e-03	-1.882578e-01
7.282160e-01	1.367800e-03	-1.939943e-01
6.836560e-01	1.266324e-03	-1.964785e-01
6.203098e-01	1.045561e-03	-1.993686e-01
5.380762e-01	8.369311e-04	-1.919391e-01