# vtk DataFile Version 2.0
OUTPUT by 3D-VPM
ASCII
DATASET UNSTRUCTURED_GRID
POINTS 820 double
9.510565e-01	0.000000e+00	-3.090170e-01
9.442611e-01	0.000000e+00	-3.078203e-01
9.267277e-01	0.000000e+00	-3.047010e-01
8.963175e-01	0.000000e+00	-2.991555e-01
8.562911e-01	0.000000e+00	-2.916579e-01
8.054250e-01	0.000000e+00	-2.817457e-01
7.470317e-01	0.000000e+00	-2.699633e-01
6.809074e-01	0.000000e+00	-2.559818e-01
6.100852e-01	0.000000e+00	-2.403847e-01
5.354138e-01	0.000000e+00	-2.229691e-01
4.593635e-01	0.000000e+00	-2.042585e-01
3.837764e-01	0.000000e+00	-1.841224e-01
3.103069e-01	0.000000e+00	-1.630077e-01
2.415927e-01	0.000000e+00	-1.409228e-01
1.782654e-01	0.000000e+00	-1.183331e-01
1.234349e-01	0.000000e+00	-9.558566e-02
7.662509e-02	0.000000e+00	-7.318920e-02
4.106998e-02	0.000000e+00	-5.193053e-02
1.528206e-02	0.000000e+00	-3.215886e-02
2.347037e-03	0.000000e+00	-1.488740e-02
0.000000e+00	0.000000e+00	0.000000e+00
1.064939e-02	0.000000e+00	1.066461e-02
3.126595e-02	0.000000e+00	1.703450e-02
6.375031e-02	0.000000e+00	1.787236e-02
1.050105e-01	0.000000e+00	1.417221e-02
1.560448e-01	0.000000e+00	4.777214e-03
2.137742e-01	0.000000e+00	-9.048270e-03
2.782849e-01	0.000000e+00	-2.799567e-02
3.468570e-01	0.000000e+00	-5.051783e-02
4.187060e-01	0.000000e+00	-7.662000e-02
4.916930e-01	0.000000e+00	-1.047585e-01
5.642168e-01	0.000000e+00	-1.343226e-01
6.348639e-01	0.000000e+00	-1.641238e-01
7.013280e-01	0.000000e+00	-1.931337e-01
7.630418e-01	0.000000e+00	-2.206893e-01
8.172084e-01	0.000000e+00	-2.454799e-01
8.641863e-01	0.000000e+00	-2.673591e-01
9.009752e-01	0.000000e+00	-2.848204e-01
9.288372e-01	0.000000e+00	-2.982085e-01
9.448555e-01	0.000000e+00	-3.059908e-01
9.510565e-01	0.000000e+00	-3.090170e-01
9.510565e-01	1.052632e+00	-3.090170e-01
9.442611e-01	1.052632e+00	-3.078203e-01
9.267277e-01	1.052632e+00	-3.047010e-01
8.963175e-01	1.052632e+00	-2.991555e-01
8.562911e-01	1.052632e+00	-2.916579e-01
8.054250e-01	1.052632e+00	-2.817457e-01
7.470317e-01	1.052632e+00	-2.699633e-01
6.809074e-01	1.052632e+00	-2.559818e-01
6.100852e-01	1.052632e+00	-2.403847e-01
5.354138e-01	1.052632e+00	-2.229691e-01
4.593635e-01	1.052632e+00	-2.042585e-01
3.837764e-01	1.052632e+00	-1.841224e-01
3.103069e-01	1.052632e+00	-1.630077e-01
2.415927e-01	1.052632e+00	-1.409228e-01
1.782654e-01	1.052632e+00	-1.183331e-01
1.234349e-01	1.052632e+00	-9.558566e-02
7.662509e-02	1.052632e+00	-7.318920e-02
4.106998e-02	1.052632e+00	-5.193053e-02
1.528206e-02	1.052632e+00	-3.215886e-02
2.347037e-03	1.052632e+00	-1.488740e-02
0.000000e+00	1.052632e+00	0.000000e+00
1.064939e-02	1.052632e+00	1.066461e-02
3.126595e-02	1.052632e+00	1.703450e-02
6.375031e-02	1.052632e+00	1.787236e-02
1.050105e-01	1.052632e+00	1.417221e-02
1.560448e-01	1.052632e+00	4.777214e-03
2.137742e-01	1.052632e+00	-9.048270e-03
2.782849e-01	1.052632e+00	-2.799567e-02
3.468570e-01	1.052632e+00	-5.051783e-02
4.187060e-01	1.052632e+00	-7.662000e-02
4.916930e-01	1.052632e+00	-1.047585e-01
5.642168e-01	1.052632e+00	-1.343226e-01
6.348639e-01	1.052632e+00	-1.641238e-01
7.013280e-01	1.052632e+00	-1.931337e-01
7.630418e-01	1.052632e+00	-2.206893e-01
8.172084e-01	1.052632e+00	-2.454799e-01
8.641863e-01	1.052632e+00	-2.673591e-01
9.009752e-01	1.052632e+00	-2.848204e-01
9.288372e-01	1.052632e+00	-2.982085e-01
9.448555e-01	1.052632e+00	-3.059908e-01
9.510565e-01	1.052632e+00	-3.090170e-01
9.510565e-01	2.105263e+00	-3.090170e-01
9.442611e-01	2.105263e+00	-3.078203e-01
9.267277e-01	2.105263e+00	-3.047010e-01
8.963175e-01	2.105263e+00	-2.991555e-01
8.562911e-01	2.105263e+00	-2.916579e-01
8.054250e-01	2.105263e+00	-2.817457e-01
7.470317e-01	2.105263e+00	-2.699633e-01
6.809074e-01	2.105263e+00	-2.559818e-01
6.100852e-01	2.105263e+00	-2.403847e-01
5.354138e-01	2.105263e+00	-2.229691e-01
4.593635e-01	2.105263e+00	-2.042585e-01
3.837764e-01	2.105263e+00	-1.841224e-01
3.103069e-01	2.105263e+00	-1.630077e-01
2.415927e-01	2.105263e+00	-1.409228e-01
1.782654e-01	2.105263e+00	-1.183331e-01
1.234349e-01	2.105263e+00	-9.558566e-02
7.662509e-02	2.105263e+00	-7.318920e-02
4.106998e-02	2.105263e+00	-5.193053e-02
1.528206e-02	2.105263e+00	-3.215886e-02
2.347037e-03	2.105263e+00	-1.488740e-02
0.000000e+00	2.105263e+00	0.000000e+00
1.064939e-02	2.105263e+00	1.066461e-02
3.126595e-02	2.105263e+00	1.703450e-02
6.375031e-02	2.105263e+00	1.787236e-02
1.050105e-01	2.105263e+00	1.417221e-02
1.560448e-01	2.105263e+00	4.777214e-03
2.137742e-01	2.105263e+00	-9.048270e-03
2.782849e-01	2.105263e+00	-2.799567e-02
3.468570e-01	2.105263e+00	-5.051783e-02
4.187060e-01	2.105263e+00	-7.662000e-02
4.916930e-01	2.105263e+00	-1.047585e-01
5.642168e-01	2.105263e+00	-1.343226e-01
6.348639e-01	2.105263e+00	-1.641238e-01
7.013280e-01	2.105263e+00	-1.931337e-01
7.630418e-01	2.105263e+00	-2.206893e-01
8.172084e-01	2.105263e+00	-2.454799e-01
8.641863e-01	2.105263e+00	-2.673591e-01
9.009752e-01	2.105263e+00	-2.848204e-01
9.288372e-01	2.105263e+00	-2.982085e-01
9.448555e-01	2.105263e+00	-3.059908e-01
9.510565e-01	2.105263e+00	-3.090170e-01
9.510565e-01	3.157895e+00	-3.090170e-01
9.442611e-01	3.157895e+00	-3.078203e-01
9.267277e-01	3.157895e+00	-3.047010e-01
8.963175e-01	3.157895e+00	-2.991555e-01
8.562911e-01	3.157895e+00	-2.916579e-01
8.054250e-01	3.157895e+00	-2.817457e-01
7.470317e-01	3.157895e+00	-2.699633e-01
6.809074e-01	3.157895e+00	-2.559818e-01
6.100852e-01	3.157895e+00	-2.403847e-01
5.354138e-01	3.157895e+00	-2.229691e-01
4.593635e-01	3.157895e+00	-2.042585e-01
3.837764e-01	3.157895e+00	-1.841224e-01
3.103069e-01	3.157895e+00	-1.630077e-01
2.415927e-01	3.157895e+00	-1.409228e-01
1.782654e-01	3.157895e+00	-1.183331e-01
1.234349e-01	3.157895e+00	-9.558566e-02
7.662509e-02	3.157895e+00	-7.318920e-02
4.106998e-02	3.157895e+00	-5.193053e-02
1.528206e-02	3.157895e+00	-3.215886e-02
2.347037e-03	3.157895e+00	-1.488740e-02
0.000000e+00	3.157895e+00	0.000000e+00
1.064939e-02	3.157895e+00	1.066461e-02
3.126595e-02	3.157895e+00	1.703450e-02
6.375031e-02	3.157895e+00	1.787236e-02
1.050105e-01	3.157895e+00	1.417221e-02
1.560448e-01	3.157895e+00	4.777214e-03
2.137742e-01	3.157895e+00	-9.048270e-03
2.782849e-01	3.157895e+00	-2.799567e-02
3.468570e-01	3.157895e+00	-5.051783e-02
4.187060e-01	3.157895e+00	-7.662000e-02
4.916930e-01	3.157895e+00	-1.047585e-01
5.642168e-01	3.157895e+00	-1.343226e-01
6.348639e-01	3.157895e+00	-1.641238e-01
7.013280e-01	3.157895e+00	-1.931337e-01
7.630418e-01	3.157895e+00	-2.206893e-01
8.172084e-01	3.157895e+00	-2.454799e-01
8.641863e-01	3.157895e+00	-2.673591e-01
9.009752e-01	3.157895e+00	-2.848204e-01
9.288372e-01	3.157895e+00	-2.982085e-01
9.448555e-01	3.157895e+00	-3.059908e-01
9.510565e-01	3.157895e+00	-3.090170e-01
9.510565e-01	4.210526e+00	-3.090170e-01
9.442611e-01	4.210526e+00	-3.078203e-01
9.267277e-01	4.210526e+00	-3.047010e-01
8.963175e-01	4.210526e+00	-2.991555e-01
8.562911e-01	4.210526e+00	-2.916579e-01
8.054250e-01	4.210526e+00	-2.817457e-01
7.470317e-01	4.210526e+00	-2.699633e-01
6.809074e-01	4.210526e+00	-2.559818e-01
6.100852e-01	4.210526e+00	-2.403847e-01
5.354138e-01	4.210526e+00	-2.229691e-01
4.593635e-01	4.210526e+00	-2.042585e-01
3.837764e-01	4.210526e+00	-1.841224e-01
3.103069e-01	4.210526e+00	-1.630077e-01
2.415927e-01	4.210526e+00	-1.409228e-01
1.782654e-01	4.210526e+00	-1.183331e-01
1.234349e-01	4.210526e+00	-9.558566e-02
7.662509e-02	4.210526e+00	-7.318920e-02
4.106998e-02	4.210526e+00	-5.193053e-02
1.528206e-02	4.210526e+00	-3.215886e-02
2.347037e-03	4.210526e+00	-1.488740e-02
0.000000e+00	4.210526e+00	0.000000e+00
1.064939e-02	4.210526e+00	1.066461e-02
3.126595e-02	4.210526e+00	1.703450e-02
6.375031e-02	4.210526e+00	1.787236e-02
1.050105e-01	4.210526e+00	1.417221e-02
1.560448e-01	4.210526e+00	4.777214e-03
2.137742e-01	4.210526e+00	-9.048270e-03
2.782849e-01	4.210526e+00	-2.799567e-02
3.468570e-01	4.210526e+00	-5.051783e-02
4.187060e-01	4.210526e+00	-7.662000e-02
4.916930e-01	4.210526e+00	-1.047585e-01
5.642168e-01	4.210526e+00	-1.343226e-01
6.348639e-01	4.210526e+00	-1.641238e-01
7.013280e-01	4.210526e+00	-1.931337e-01
7.630418e-01	4.210526e+00	-2.206893e-01
8.172084e-01	4.210526e+00	-2.454799e-01
8.641863e-01	4.210526e+00	-2.673591e-01
9.009752e-01	4.210526e+00	-2.848204e-01
9.288372e-01	4.210526e+00	-2.982085e-01
9.448555e-01	4.210526e+00	-3.059908e-01
9.510565e-01	4.210526e+00	-3.090170e-01
9.510565e-01	5.263158e+00	-3.090170e-01
9.442611e-01	5.263158e+00	-3.078203e-01
9.267277e-01	5.263158e+00	-3.047010e-01
8.963175e-01	5.263158e+00	-2.991555e-01
8.562911e-01	5.263158e+00	-2.916579e-01
8.054250e-01	5.263158e+00	-2.817457e-01
7.470317e-01	5.263158e+00	-2.699633e-01
6.809074e-01	5.263158e+00	-2.559818e-01
6.100852e-01	5.263158e+00	-2.403847e-01
5.354138e-01	5.263158e+00	-2.229691e-01
4.593635e-01	5.263158e+00	-2.042585e-01
3.837764e-01	5.263158e+00	-1.841224e-01
3.103069e-01	5.263158e+00	-1.630077e-01
2.415927e-01	5.263158e+00	-1.409228e-01
1.782654e-01	5.263158e+00	-1.183331e-01
1.234349e-01	5.263158e+00	-9.558566e-02
7.662509e-02	5.263158e+00	-7.318920e-02
4.106998e-02	5.263158e+00	-5.193053e-02
1.528206e-02	5.263158e+00	-3.215886e-02
2.347037e-03	5.263158e+00	-1.488740e-02
0.000000e+00	5.263158e+00	0.000000e+00
1.064939e-02	5.263158e+00	1.066461e-02
3.126595e-02	5.263158e+00	1.703450e-02
6.375031e-02	5.263158e+00	1.787236e-02
1.050105e-01	5.263158e+00	1.417221e-02
1.560448e-01	5.263158e+00	4.777214e-03
2.137742e-01	5.263158e+00	-9.048270e-03
2.782849e-01	5.263158e+00	-2.799567e-02
3.468570e-01	5.263158e+00	-5.051783e-02
4.187060e-01	5.263158e+00	-7.662000e-02
4.916930e-01	5.263158e+00	-1.047585e-01
5.642168e-01	5.263158e+00	-1.343226e-01
6.348639e-01	5.263158e+00	-1.641238e-01
7.013280e-01	5.263158e+00	-1.931337e-01
7.630418e-01	5.263158e+00	-2.206893e-01
8.172084e-01	5.263158e+00	-2.454799e-01
8.641863e-01	5.263158e+00	-2.673591e-01
9.009752e-01	5.263158e+00	-2.848204e-01
9.288372e-01	5.263158e+00	-2.982085e-01
9.448555e-01	5.263158e+00	-3.059908e-01
9.510565e-01	5.263158e+00	-3.090170e-01
9.510565e-01	6.315789e+00	-3.090170e-01
9.442611e-01	6.315789e+00	-3.078203e-01
[...]
CELL_DATA 760
VECTORS V double
8.414274e-01	-6.902853e-02	-1.481723e-01
8.655494e-01	-6.885494e-02	-1.539866e-01
8.835655e-01	-6.840519e-02	-1.611266e-01
8.953328e-01	-6.761081e-02	-1.677096e-01
8.977993e-01	-6.644991e-02	-1.749531e-01
8.991134e-01	-6.490486e-02	-1.814198e-01
8.920772e-01	-6.296533e-02	-1.886231e-01
8.847684e-01	-6.060728e-02	-1.948517e-01
8.704358e-01	-5.780223e-02	-2.030120e-01
8.547976e-01	-5.451764e-02	-2.103048e-01
8.294947e-01	-5.072803e-02	-2.209746e-01
7.985752e-01	-4.641921e-02	-2.295056e-01
7.512288e-01	-4.162412e-02	-2.414461e-01
6.892082e-01	-3.639395e-02	-2.458499e-01
6.025623e-01	-3.076660e-02	-2.499840e-01
4.718919e-01	-2.486489e-02	-2.257798e-01
2.701896e-01	-1.869677e-02	-1.615484e-01
-1.737168e-02	-1.242828e-02	1.331892e-02
-4.217550e-01	-5.860869e-03	5.631475e-01
-3.426742e-01	7.193723e-04	2.173603e+00
2.326965e+00	8.432180e-03	2.330290e+00
2.541652e+00	1.519670e-02	7.852931e-01
2.210525e+00	2.214267e-02	5.701544e-02
1.925507e+00	2.898985e-02	-1.726763e-01
1.720171e+00	3.597920e-02	-3.166696e-01
1.570394e+00	4.294564e-02	-3.760900e-01
1.435546e+00	4.988348e-02	-4.216331e-01
1.336732e+00	5.661423e-02	-4.390431e-01
1.250637e+00	6.301971e-02	-4.543464e-01
1.181698e+00	6.890210e-02	-4.555770e-01
1.121870e+00	7.414587e-02	-4.573265e-01
1.071614e+00	7.861394e-02	-4.520411e-01
1.027475e+00	8.224414e-02	-4.484671e-01
9.872015e-01	8.502874e-02	-4.407920e-01
9.499809e-01	8.701913e-02	-4.347795e-01
9.115294e-01	8.831324e-02	-4.245309e-01
8.743628e-01	8.903938e-02	-4.150016e-01
8.341888e-01	8.934660e-02	-4.008429e-01
7.910607e-01	8.939051e-02	-3.843278e-01
7.483097e-01	8.934483e-02	-3.651823e-01
8.268618e-01	-4.834035e-02	-1.456073e-01
8.473510e-01	-4.821605e-02	-1.507490e-01
8.618152e-01	-4.789754e-02	-1.571602e-01
8.705031e-01	-4.733375e-02	-1.630586e-01
8.702565e-01	-4.650206e-02	-1.695859e-01
8.688746e-01	-4.538362e-02	-1.753184e-01
8.588778e-01	-4.396778e-02	-1.816034e-01
8.480108e-01	-4.223954e-02	-1.867566e-01
8.293433e-01	-4.018408e-02	-1.934279e-01
8.083582e-01	-3.778626e-02	-1.988794e-01
7.765740e-01	-3.501632e-02	-2.068767e-01
7.379181e-01	-3.192469e-02	-2.120731e-01
6.816180e-01	-2.848875e-02	-2.190731e-01
6.085716e-01	-2.476359e-02	-2.170858e-01
5.087780e-01	-2.077513e-02	-2.110759e-01
3.607854e-01	-1.660644e-02	-1.726202e-01
1.373876e-01	-1.225927e-02	-8.214507e-02
-1.814819e-01	-7.847025e-03	1.391427e-01
-6.031761e-01	-3.229856e-03	8.053896e-01
-4.198363e-01	1.389346e-03	2.663047e+00
2.682460e+00	6.789164e-03	2.686293e+00
2.844067e+00	1.150490e-02	8.787301e-01
2.433244e+00	1.631872e-02	6.275998e-02
2.097332e+00	2.102771e-02	-1.880852e-01
1.860485e+00	2.579060e-02	-3.425003e-01
1.689647e+00	3.048770e-02	-4.046497e-01
1.539064e+00	3.511322e-02	-4.520373e-01
1.427810e+00	3.954902e-02	-4.689571e-01
1.330720e+00	4.372326e-02	-4.834397e-01
1.251905e+00	4.752830e-02	-4.826440e-01
1.182670e+00	5.085380e-02	-4.821117e-01
1.123340e+00	5.367101e-02	-4.738608e-01
1.070394e+00	5.593020e-02	-4.672003e-01
1.021743e+00	5.763582e-02	-4.562151e-01
9.765917e-01	5.882910e-02	-4.469585e-01
9.307619e-01	5.958090e-02	-4.334882e-01
8.867508e-01	5.997959e-02	-4.208813e-01
8.402940e-01	6.012597e-02	-4.037766e-01
7.917021e-01	6.012233e-02	-3.846394e-01
7.448115e-01	6.007902e-02	-3.634751e-01
8.205667e-01	-2.040984e-02	-1.444988e-01
8.397264e-01	-2.035801e-02	-1.493925e-01
8.527107e-01	-2.022766e-02	-1.554999e-01
8.598709e-01	-1.999164e-02	-1.610670e-01
8.580818e-01	-1.963306e-02	-1.672134e-01
8.551171e-01	-1.913522e-02	-1.725424e-01
8.434956e-01	-1.848839e-02	-1.783509e-01
8.308940e-01	-1.768723e-02	-1.829870e-01
8.103369e-01	-1.670464e-02	-1.889951e-01
7.869488e-01	-1.558446e-02	-1.936120e-01
7.528835e-01	-1.431245e-02	-2.005657e-01
7.115908e-01	-1.290338e-02	-2.045068e-01
6.517726e-01	-1.134732e-02	-2.094808e-01
5.746197e-01	-9.680417e-03	-2.049747e-01
4.698374e-01	-7.912775e-03	-1.949207e-01
3.150941e-01	-6.076844e-03	-1.507589e-01
8.310410e-02	-4.169359e-03	-4.968856e-02
-2.482803e-01	-2.238233e-03	1.903572e-01
-6.766951e-01	-2.226188e-04	9.035556e-01
-4.508766e-01	1.785571e-03	2.859938e+00
2.823558e+00	4.114576e-03	2.827593e+00
2.961790e+00	6.122467e-03	9.151029e-01
2.517866e+00	8.135856e-03	6.494261e-02
2.160629e+00	1.005961e-02	-1.937616e-01
1.910306e+00	1.194997e-02	-3.516721e-01
1.730251e+00	1.375339e-02	-4.143738e-01
1.572758e+00	1.546527e-02	-4.619336e-01
1.456103e+00	1.704499e-02	-4.782498e-01
1.354635e+00	1.847503e-02	-4.921278e-01
1.271682e+00	1.974098e-02	-4.902684e-01
1.198783e+00	2.080618e-02	-4.886800e-01
1.136470e+00	2.166643e-02	-4.793997e-01
1.080542e+00	2.230343e-02	-4.716297e-01
1.029163e+00	2.277499e-02	-4.595281e-01
9.815295e-01	2.307705e-02	-4.492184e-01
9.334852e-01	2.324169e-02	-4.347565e-01
8.875225e-01	2.330416e-02	-4.212476e-01
8.394014e-01	2.330193e-02	-4.033477e-01
7.894775e-01	2.327147e-02	-3.835586e-01
7.416776e-01	2.324467e-02	-3.619457e-01
8.181632e-01	-1.021898e-02	-1.440756e-01
8.367497e-01	-1.019794e-02	-1.488629e-01
8.489789e-01	-1.014166e-02	-1.548194e-01
8.553667e-01	-1.003586e-02	-1.602233e-01
8.527895e-01	-9.870689e-03	-1.661821e-01
8.489859e-01	-9.622840e-03	-1.713053e-01
8.364961e-01	-9.310192e-03	-1.768709e-01
8.226007e-01	-8.912774e-03	-1.811606e-01
8.009717e-01	-8.439499e-03	-1.868108e-01
7.769519e-01	-7.875673e-03	-1.911525e-01
7.415313e-01	-7.236334e-03	-1.975415e-01
6.984032e-01	-6.498848e-03	-2.007168e-01
6.368476e-01	-5.693419e-03	-2.046839e-01
5.575385e-01	-4.817337e-03	-1.988816e-01
4.501324e-01	-3.882640e-03	-1.867457e-01
2.918488e-01	-2.906758e-03	-1.396370e-01
5.538957e-02	-1.893015e-03	-3.311783e-02
-2.824326e-01	-8.595006e-04	2.165419e-01
-7.142871e-01	2.205192e-04	9.537503e-01
-4.667097e-01	1.280539e-03	2.960368e+00
2.895124e+00	2.539030e-03	2.899261e+00
3.021034e+00	3.602584e-03	9.334074e-01
2.560072e+00	4.661552e-03	6.603121e-02
2.191851e+00	5.664498e-03	-1.965616e-01
1.934617e+00	6.643967e-03	-3.561475e-01
1.749853e+00	7.563946e-03	-4.190683e-01
1.588861e+00	8.428252e-03	-4.666632e-01
1.469512e+00	9.225207e-03	-4.826539e-01
1.365848e+00	9.933855e-03	-4.962014e-01
1.281320e+00	1.055288e-02	-4.939842e-01
1.206782e+00	1.109134e-02	-4.919407e-01
1.142483e+00	1.152268e-02	-4.819360e-01
1.085236e+00	1.186076e-02	-4.736785e-01
1.032964e+00	1.209892e-02	-4.612253e-01
9.841947e-01	1.225901e-02	-4.504382e-01
9.351517e-01	1.234001e-02	-4.355327e-01
8.883118e-01	1.238397e-02	-4.216222e-01
8.394626e-01	1.239417e-02	-4.033771e-01
7.889786e-01	1.238734e-02	-3.833163e-01
7.407083e-01	1.237868e-02	-3.614727e-01
8.170358e-01	-5.650868e-03	-1.438770e-01
8.351952e-01	-5.639750e-03	-1.485864e-01
8.470144e-01	-5.608257e-03	-1.544611e-01
8.529619e-01	-5.548899e-03	-1.597729e-01
8.496294e-01	-5.452740e-03	-1.655663e-01
8.453877e-01	-5.312491e-03	-1.705793e-01
8.325133e-01	-5.141187e-03	-1.760288e-01
8.184964e-01	-4.921555e-03	-1.802567e-01
7.963381e-01	-4.656703e-03	-1.857301e-01
7.711528e-01	-4.321017e-03	-1.897258e-01
7.348901e-01	-3.930190e-03	-1.957723e-01
6.910269e-01	-3.494041e-03	-1.985969e-01
6.284203e-01	-3.022652e-03	-2.019753e-01
5.477177e-01	-2.602438e-03	-1.953784e-01
4.387493e-01	-2.059281e-03	-1.820232e-01
2.784541e-01	-1.451903e-03	-1.332282e-01
3.938963e-02	-8.426700e-04	-2.355135e-02
-3.023356e-01	-2.232762e-04	2.318016e-01
-7.358796e-01	4.243196e-04	9.825816e-01
-4.758816e-01	1.068776e-03	3.018546e+00
2.937222e+00	1.811772e-03	2.941419e+00
3.055130e+00	2.446332e-03	9.439420e-01
2.584240e+00	3.074537e-03	6.665457e-02
2.209738e+00	3.665123e-03	-1.981657e-01
1.948401e+00	4.234551e-03	-3.586850e-01
1.760800e+00	4.757677e-03	-4.216899e-01
1.597890e+00	5.243249e-03	-4.693151e-01
1.476958e+00	5.786935e-03	-4.850996e-01
1.371932e+00	6.191119e-03	-4.984116e-01
1.286289e+00	6.529430e-03	-4.958997e-01
1.210928e+00	6.810257e-03	-4.936307e-01
1.146303e+00	7.039644e-03	-4.835473e-01
1.088263e+00	7.237069e-03	-4.749997e-01
1.034933e+00	7.379452e-03	-4.621044e-01
9.854655e-01	7.477551e-03	-4.510198e-01
9.358677e-01	7.526008e-03	-4.358661e-01
8.888554e-01	7.549337e-03	-4.218802e-01
8.396027e-01	7.555757e-03	-4.034444e-01
7.887835e-01	7.551916e-03	-3.832215e-01
7.403506e-01	7.547658e-03	-3.612981e-01
8.162975e-01	-3.274259e-03	-1.437470e-01
8.342367e-01	-3.267247e-03	-1.484158e-01
8.457852e-01	-3.248398e-03	-1.542370e-01
8.513928e-01	-3.212017e-03	-1.594789e-01
8.479573e-01	-3.150413e-03	-1.652404e-01
8.435834e-01	-3.097885e-03	-1.702152e-01
8.304484e-01	-2.980884e-03	-1.755922e-01
8.157009e-01	-2.837143e-03	-1.796410e-01
7.928609e-01	-2.653132e-03	-1.849191e-01
7.674131e-01	-2.421037e-03	-1.888057e-01
7.307226e-01	-2.181887e-03	-1.946621e-01
6.863062e-01	-1.956386e-03	-1.972402e-01
6.244259e-01	-1.642567e-03	-2.006915e-01
5.432920e-01	-1.424684e-03	-1.937997e-01
4.314529e-01	-1.060505e-03	-1.789961e-01
2.694096e-01	-6.831340e-04	-1.289008e-01
2.915084e-02	-2.877522e-04	-1.742951e-02
-3.148356e-01	1.067993e-04	2.413853e-01
-7.499694e-01	5.181498e-04	1.001395e+00
-4.817121e-01	9.416522e-04	3.055529e+00
2.962618e+00	1.395871e-03	2.966852e+00
3.076532e+00	1.797759e-03	9.505547e-01
2.599282e+00	2.193723e-03	6.704254e-02
2.220566e+00	2.563635e-03	-1.991367e-01
1.956507e+00	2.913435e-03	-3.601774e-01
1.767117e+00	3.239769e-03	-4.232026e-01
1.604505e+00	3.653144e-03	-4.712580e-01
1.482604e+00	3.902643e-03	-4.869540e-01
1.375517e+00	4.152787e-03	-4.997141e-01
1.289132e+00	4.371400e-03	-4.969959e-01
1.213171e+00	4.536290e-03	-4.945452e-01
1.147932e+00	4.641885e-03	-4.842347e-01
1.089788e+00	4.736345e-03	-4.756651e-01
1.036446e+00	4.811214e-03	-4.627801e-01
9.865891e-01	4.857194e-03	-4.515341e-01
9.365270e-01	4.918658e-03	-4.361732e-01
8.890392e-01	4.927756e-03	-4.219675e-01
8.396005e-01	4.929650e-03	-4.034434e-01
7.886075e-01	4.926704e-03	-3.831360e-01
7.400562e-01	4.923600e-03	-3.611545e-01
8.158589e-01	-2.026132e-03	-1.436698e-01
8.336788e-01	-2.022108e-03	-1.483166e-01
8.450691e-01	-2.011941e-03	-1.541064e-01
8.504517e-01	-1.993366e-03	-1.593027e-01
8.473529e-01	-1.963279e-03	-1.651227e-01
8.423938e-01	-2.007273e-03	-1.699752e-01
8.284837e-01	-1.885091e-03	-1.751767e-01
8.138244e-01	-1.780291e-03	-1.792278e-01
7.907184e-01	-1.681246e-03	-1.844194e-01
7.649675e-01	-1.540040e-03	-1.882040e-01
7.288140e-01	-1.383930e-03	-1.941536e-01
6.838560e-01	-1.213562e-03	-1.965360e-01
6.209836e-01	-1.014081e-03	-1.995851e-01
5.391619e-01	-7.352298e-04	-1.923264e-01
4.266802e-01	-5.010620e-04	-1.770161e-01
2.642288e-01	-2.953069e-04	-1.264220e-01
2.250141e-02	-5.296144e-05	-1.345376e-02
-3.229510e-01	1.686046e-04	2.476075e-01
-7.588554e-01	4.290625e-04	1.013260e+00
-4.854332e-01	6.872556e-04	3.079132e+00
2.979298e+00	9.834368e-04	2.983556e+00
3.090178e+00	1.233708e-03	9.547708e-01
2.608866e+00	1.505003e-03	6.728976e-02
2.227534e+00	1.733407e-03	-1.997616e-01
1.961957e+00	1.952842e-03	-3.611806e-01
1.773587e+00	2.165667e-03	-4.247521e-01
1.607818e+00	2.362927e-03	-4.722310e-01
1.483892e+00	2.463501e-03	-4.873770e-01
1.378038e+00	2.607431e-03	-5.006302e-01
1.291126e+00	2.743311e-03	-4.977647e-01
1.214317e+00	2.855755e-03	-4.950122e-01
1.148856e+00	2.945831e-03	-4.846243e-01
1.090528e+00	3.044031e-03	-4.759882e-01
1.036687e+00	3.109207e-03	-4.628878e-01
9.871661e-01	3.229727e-03	-4.517981e-01
9.372669e-01	3.221158e-03	-4.365178e-01
8.891269e-01	3.215171e-03	-4.220091e-01
8.395987e-01	3.212202e-03	-4.034425e-01
7.885040e-01	3.208951e-03	-3.830857e-01
7.398752e-01	3.206666e-03	-3.610661e-01
8.156221e-01	-1.127326e-03	-1.436281e-01
8.334104e-01	-1.124495e-03	-1.482689e-01
8.447774e-01	-1.115811e-03	-1.540532e-01
8.501493e-01	-1.125025e-03	-1.592460e-01
8.483743e-01	-1.105195e-03	-1.653217e-01
8.420474e-01	-1.054172e-03	-1.699053e-01
8.269709e-01	-1.013337e-03	-1.748569e-01
8.128089e-01	-9.851556e-04	-1.790041e-01
7.896125e-01	-9.925450e-04	-1.841615e-01
7.635100e-01	-9.126664e-04	-1.878454e-01
7.264553e-01	-8.098797e-04	-1.935253e-01
6.813803e-01	-6.551040e-04	-1.958245e-01
6.178093e-01	-5.753102e-04	-1.985649e-01
5.356262e-01	-3.409391e-04	-1.910652e-01
4.242548e-01	-2.509242e-04	-1.760099e-01
2.612032e-01	-1.228433e-04	-1.249744e-01
1.918232e-02	1.444107e-05	-1.146925e-02
-3.270471e-01	1.565459e-04	2.507480e-01
-7.642985e-01	3.060819e-04	1.020528e+00
-4.877092e-01	4.551053e-04	3.093569e+00
2.989366e+00	6.266266e-04	2.993638e+00
3.099668e+00	7.723355e-04	9.577029e-01
2.615215e+00	9.155507e-04	6.745351e-02
2.231650e+00	1.049251e-03	-2.001307e-01
1.965189e+00	1.176856e-03	-3.617756e-01
1.774135e+00	1.296530e-03	-4.248834e-01
1.608949e+00	1.323032e-03	-4.725632e-01
1.486016e+00	1.433338e-03	-4.880748e-01
1.379165e+00	1.539863e-03	-5.010394e-01
1.292265e+00	1.599824e-03	-4.982039e-01
1.215707e+00	1.667582e-03	-4.955790e-01
1.150331e+00	1.812761e-03	-4.852465e-01
1.091979e+00	1.833188e-03	-4.766214e-01
1.039073e+00	1.874776e-03	-4.639529e-01
9.885144e-01	1.886507e-03	-4.524152e-01
9.362524e-01	1.871641e-03	-4.360453e-01
8.888262e-01	1.874604e-03	-4.218664e-01
8.394129e-01	1.896268e-03	-4.033532e-01
7.883349e-01	1.892730e-03	-3.830035e-01
7.397062e-01	1.891162e-03	-3.609837e-01
8.153837e-01	-1.359641e-03	-1.435861e-01
8.329939e-01	-1.359689e-03	-1.481948e-01
8.451999e-01	-1.360356e-03	-1.541302e-01
8.500966e-01	-1.342553e-03	-1.592361e-01
8.458713e-01	-1.301127e-03	-1.648339e-01
8.408230e-01	-1.223912e-03	-1.696582e-01
8.274318e-01	-1.127762e-03	-1.749543e-01
8.135450e-01	-1.191557e-03	-1.791663e-01
7.897191e-01	-9.729780e-04	-1.841864e-01
7.625686e-01	-1.023273e-03	-1.876138e-01
7.254506e-01	-6.678316e-04	-1.932576e-01
6.807069e-01	-7.574490e-04	-1.956310e-01
6.166834e-01	-3.243636e-04	-1.982030e-01
5.342312e-01	-3.897395e-04	-1.905676e-01
4.231665e-01	7.029706e-05	-1.755584e-01
2.593487e-01	4.112770e-04	-1.240871e-01
1.654097e-02	6.076577e-04	-9.889971e-03
-3.304058e-01	6.560982e-04	2.533231e-01
-7.670994e-01	7.029529e-04	1.024268e+00
-4.888997e-01	7.629612e-04	3.101121e+00
2.994834e+00	8.430234e-04	2.999113e+00
3.102867e+00	9.212627e-04	9.586913e-01
2.617770e+00	9.869896e-04	6.751941e-02
2.233999e+00	1.098416e-03	-2.003413e-01
1.966916e+00	1.032793e-03	-3.620935e-01
1.775991e+00	8.495901e-04	-4.253280e-01
1.609953e+00	4.971579e-04	-4.728581e-01
1.486900e+00	6.290836e-04	-4.883648e-01
1.380198e+00	3.107767e-04	-5.014149e-01
1.292739e+00	4.391826e-04	-4.983866e-01
1.216977e+00	1.432011e-04	-4.960967e-01
1.150998e+00	2.928932e-04	-4.855278e-01
1.091346e+00	3.304811e-05	-4.763451e-01
1.037473e+00	8.832088e-05	-4.632388e-01
9.871441e-01	-1.296899e-04	-4.517881e-01
9.370155e-01	-7.201111e-05	-4.364007e-01
8.896341e-01	-8.646647e-05	-4.222498e-01
8.402963e-01	-9.242834e-05	-4.037777e-01
7.882362e-01	-8.733034e-05	-3.829556e-01
7.396351e-01	-8.624550e-05	-3.609490e-01
8.156302e-01	3.264983e-05	-1.436295e-01
8.334572e-01	1.499909e-05	-1.482772e-01
8.440915e-01	1.337841e-05	-1.539281e-01
8.486055e-01	3.472626e-05	-1.589568e-01
8.459240e-01	3.227437e-05	-1.648442e-01
8.390393e-01	3.101405e-05	-1.692983e-01
8.265925e-01	2.931261e-05	-1.747769e-01
8.104850e-01	2.986356e-05	-1.784923e-01
7.874139e-01	7.219956e-05	-1.836487e-01
7.594788e-01	6.025121e-05	-1.868536e-01
7.229447e-01	5.185414e-05	-1.925901e-01
6.769380e-01	1.880631e-05	-1.945478e-01
6.124743e-01	-7.831200e-06	-1.968502e-01
5.301317e-01	-3.452353e-06	-1.891052e-01
4.110778e-01	2.922143e-05	-1.705432e-01
2.510554e-01	-2.164399e-06	-1.201191e-01
1.358123e-02	2.232555e-06	-8.120319e-03
-3.294996e-01	5.729022e-06	2.526283e-01
-7.671739e-01	7.859536e-06	1.024367e+00
-4.892044e-01	8.971236e-06	3.103053e+00
2.997215e+00	9.539612e-06	3.001498e+00
3.105889e+00	9.600890e-06	9.596250e-01
2.621180e+00	9.211666e-06	6.760736e-02
2.232276e+00	7.963045e-06	-2.001868e-01
1.959976e+00	4.135190e-05	-3.608159e-01
1.764758e+00	3.866813e-05	-4.226378e-01
1.605962e+00	6.182251e-06	-4.716857e-01
1.483230e+00	5.983512e-05	-4.871596e-01
1.376804e+00	4.831358e-05	-5.001818e-01
1.290117e+00	3.745291e-05	-4.973758e-01
1.213849e+00	2.952171e-05	-4.948214e-01
1.149026e+00	-1.450217e-05	-4.846960e-01
1.089121e+00	-1.150816e-05	-4.753739e-01
1.036927e+00	-1.285581e-05	-4.629949e-01
9.856612e-01	-1.203367e-05	-4.511094e-01
9.371783e-01	-1.223347e-05	-4.364765e-01
8.883361e-01	-1.120920e-05	-4.216337e-01
8.393225e-01	-3.368096e-05	-4.033098e-01
7.886841e-01	-3.258524e-05	-3.831732e-01
7.398724e-01	-1.504805e-05	-3.610648e-01
8.183460e-01	1.435242e-03	-1.441077e-01
8.337094e-01	1.435485e-03	-1.483221e-01
8.443995e-01	1.436873e-03	-1.539843e-01
8.497031e-01	1.421057e-03	-1.591624e-01
8.459437e-01	1.382375e-03	-1.648480e-01
8.408745e-01	1.395672e-03	-1.696686e-01
8.274478e-01	1.257157e-03	-1.749577e-01
8.129174e-01	1.319437e-03	-1.790280e-01
7.893236e-01	1.051753e-03	-1.840941e-01
7.628354e-01	1.106342e-03	-1.876795e-01
7.259905e-01	7.603095e-04	-1.934014e-01
6.815048e-01	7.763279e-04	-1.958603e-01
6.170067e-01	3.480773e-04	-1.983070e-01
5.337003e-01	4.411693e-04	-1.903782e-01
4.230782e-01	-5.130228e-05	-1.755218e-01
2.599048e-01	-3.896457e-04	-1.243532e-01
1.637000e-02	-5.846297e-04	-9.787745e-03
-3.305559e-01	-6.071882e-04	2.534381e-01
-7.671946e-01	-6.841272e-04	1.024395e+00
-4.889191e-01	-7.454855e-04	3.101244e+00
2.994860e+00	-8.289111e-04	2.999140e+00
3.102848e+00	-8.812316e-04	9.586856e-01
2.617712e+00	-9.767518e-04	6.751792e-02
2.234896e+00	-1.090830e-03	-2.004218e-01
1.967470e+00	-1.028746e-03	-3.621954e-01
1.775355e+00	-8.165611e-04	-4.251756e-01
1.610337e+00	-4.708368e-04	-4.729709e-01
1.487455e+00	-6.380695e-04	-4.885473e-01
1.379906e+00	-3.310137e-04	-5.013089e-01
1.292502e+00	-3.926845e-04	-4.982952e-01
1.216329e+00	-1.102392e-04	-4.958325e-01
1.150463e+00	-2.080423e-04	-4.853023e-01
1.091369e+00	4.820209e-06	-4.763554e-01
1.037464e+00	-9.574738e-05	-4.632347e-01
9.871551e-01	1.383288e-05	-4.517931e-01
9.370287e-01	-1.966697e-05	-4.364068e-01
8.892134e-01	6.006622e-06	-4.220501e-01
8.395093e-01	1.451428e-05	-4.033995e-01
7.888538e-01	9.973153e-06	-3.832556e-01
7.423208e-01	8.934766e-06	-3.622596e-01
8.155894e-01	1.191804e-03	-1.436223e-01
8.333549e-01	1.206579e-03	-1.482590e-01
8.446795e-01	1.199434e-03	-1.540353e-01
8.500296e-01	1.193890e-03	-1.592236e-01
8.463375e-01	1.082670e-03	-1.649248e-01
8.413692e-01	1.058659e-03	-1.697684e-01
8.276152e-01	9.855715e-04	-1.749931e-01
8.135489e-01	9.677925e-04	-1.791671e-01
7.902027e-01	9.430792e-04	-1.842992e-01
7.633298e-01	8.645705e-04	-1.878011e-01
7.272880e-01	7.762422e-04	-1.937471e-01
6.823186e-01	7.062247e-04	-1.960942e-01
6.173668e-01	6.261712e-04	-1.984227e-01
5.356532e-01	4.775248e-04	-1.910748e-01
4.247772e-01	3.433906e-04	-1.762266e-01
2.611268e-01	2.368037e-04	-1.249379e-01
1.866003e-02	8.876908e-05	-1.115697e-02
-3.271699e-01	-6.127043e-05	2.508421e-01
-7.632685e-01	-2.168012e-04	1.019153e+00
-4.876615e-01	-3.705789e-04	3.093266e+00
2.990742e+00	-5.469211e-04	2.995016e+00
3.098996e+00	-6.964636e-04	9.574952e-01
2.614307e+00	-8.431555e-04	6.743008e-02
2.231494e+00	-9.792145e-04	-2.001167e-01
1.965758e+00	-1.143080e-03	-3.618804e-01
1.774477e+00	-1.260341e-03	-4.249654e-01
1.608291e+00	-1.368363e-03	-4.723699e-01
1.485381e+00	-1.498357e-03	-4.878661e-01
1.379909e+00	-1.582358e-03	-5.013098e-01
1.292931e+00	-1.646231e-03	-4.984604e-01
1.216183e+00	-1.698921e-03	-4.957730e-01
1.150417e+00	-1.775247e-03	-4.852830e-01
1.090748e+00	-1.796762e-03	-4.760844e-01
1.036910e+00	-1.802453e-03	-4.629874e-01
9.870280e-01	-1.824289e-03	-4.517349e-01
9.369316e-01	-1.845657e-03	-4.363616e-01
8.891652e-01	-1.763251e-03	-4.220273e-01
8.395188e-01	-1.773686e-03	-4.034041e-01
7.883708e-01	-1.773445e-03	-3.830209e-01
7.397134e-01	-1.789996e-03	-3.609872e-01
8.158664e-01	1.716404e-03	-1.436711e-01
8.336858e-01	1.705508e-03	-1.483179e-01
8.448108e-01	1.581887e-03	-1.540593e-01
8.529333e-01	1.674771e-03	-1.597675e-01
8.484990e-01	1.702433e-03	-1.653460e-01
8.426031e-01	1.712103e-03	-1.700174e-01
8.288039e-01	1.671173e-03	-1.752445e-01
8.135239e-01	1.608911e-03	-1.791616e-01
7.907284e-01	1.538745e-03	-1.844218e-01
7.650257e-01	1.418004e-03	-1.882183e-01
7.280622e-01	1.270889e-03	-1.939533e-01
6.835041e-01	1.185584e-03	-1.964349e-01
6.201566e-01	9.791018e-04	-1.993193e-01
5.379184e-01	7.831811e-04	-1.918828e-01