# vtk DataFile Version 2.0
OUTPUT by 3D-VPM
ASCII
DATASET UNSTRUCTURED_GRID
POINTS 820 double
9.510565e-01	0.000000e+00	-3.090170e-01
9.442611e-01	0.000000e+00	-3.078203e-01
9.267277e-01	0.000000e+00	-3.047010e-01
8.963175e-01	0.000000e+00	-2.991555e-01
8.562911e-01	0.000000e+00	-2.916579e-01
8.054250e-01	0.000000e+00	-2.817457e-01
7.470317e-01	0.000000e+00	-2.699633e-01
6.809074e-01	0.000000e+00	-2.559818e-01
6.100852e-01	0.000000e+00	-2.403847e-01
5.354138e-01	0.000000e+00	-2.229691e-01
4.593635e-01	0.000000e+00	-2.042585e-01
3.837764e-01	0.000000e+00	-1.841224e-01
3.103069e-01	0.000000e+00	-1.630077e-01
2.415927e-01	0.000000e+00	-1.409228e-01
1.782654e-01	0.000000e+00	-1.183331e-01
1.234349e-01	0.000000e+00	-9.558566e-02
7.662509e-02	0.000000e+00	-7.318920e-02
4.106998e-02	0.000000e+00	-5.193053e-02
1.528206e-02	0.000000e+00	-3.215886e-02
2.347037e-03	0.000000e+00	-1.488740e-02
0.000000e+00	0.000000e+00	0.000000e+00
1.064939e-02	0.000000e+00	1.066461e-02
3.126595e-02	0.000000e+00	1.703450e-02
6.375031e-02	0.000000e+00	1.787236e-02
1.050105e-01	0.000000e+00	1.417221e-02
1.560448e-01	0.000000e+00	4.777214e-03
2.137742e-01	0.000000e+00	-9.048270e-03
2.782849e-01	0.000000e+00	-2.799567e-02
3.468570e-01	0.000000e+00	-5.051783e-02
4.187060e-01	0.000000e+00	-7.662000e-02
4.916930e-01	0.000000e+00	-1.047585e-01
5.642168e-01	0.000000e+00	-1.343226e-01
6.348639e-01	0.000000e+00	-1.641238e-01
7.013280e-01	0.000000e+00	-1.931337e-01
7.630418e-01	0.000000e+00	-2.206893e-01
8.172084e-01	0.000000e+00	-2.454799e-01
8.641863e-01	0.000000e+00	-2.673591e-01
9.009752e-01	0.000000e+00	-2.848204e-01
9.288372e-01	0.000000e+00	-2.982085e-01
9.448555e-01	0.000000e+00	-3.059908e-01
9.510565e-01	0.000000e+00	-3.090170e-01
9.510565e-01	1.052632e+00	-3.090170e-01
9.442611e-01	1.052632e+00	-3.078203e-01
9.267277e-01	1.052632e+00	-3.047010e-01
8.963175e-01	1.052632e+00	-2.991555e-01
8.562911e-01	1.052632e+00	-2.916579e-01
8.054250e-01	1.052632e+00	-2.817457e-01
7.470317e-01	1.052632e+00	-2.699633e-01
6.809074e-01	1.052632e+00	-2.559818e-01
6.100852e-01	1.052632e+00	-2.403847e-01
5.354138e-01	1.052632e+00	-2.229691e-01
4.593635e-01	1.052632e+00	-2.042585e-01
3.837764e-01	1.052632e+00	-1.841224e-01
3.103069e-01	1.052632e+00	-1.630077e-01
2.415927e-01	1.052632e+00	-1.409228e-01
1.782654e-01	1.052632e+00	-1.183331e-01
1.234349e-01	1.052632e+00	-9.558566e-02
7.662509e-02	1.052632e+00	-7.318920e-02
4.106998e-02	1.052632e+00	-5.193053e-02
1.528206e-02	1.052632e+00	-3.215886e-02
2.347037e-03	1.052632e+00	-1.488740e-02
0.000000e+00	1.052632e+00	0.000000e+00
1.064939e-02	1.052632e+00	1.066461e-02
3.126595e-02	1.052632e+00	1.703450e-02
6.375031e-02	1.052632e+00	1.787236e-02
1.050105e-01	1.052632e+00	1.417221e-02
1.560448e-01	1.052632e+00	4.777214e-03
2.137742e-01	1.052632e+00	-9.048270e-03
2.782849e-01	1.052632e+00	-2.799567e-02
3.468570e-01	1.052632e+00	-5.051783e-02
4.187060e-01	1.052632e+00	-7.662000e-02
4.916930e-01	1.052632e+00	-1.047585e-01
5.642168e-01	1.052632e+00	-1.343226e-01
6.348639e-01	1.052632e+00	-1.641238e-01
7.013280e-01	1.052632e+00	-1.931337e-01
7.630418e-01	1.052632e+00	-2.206893e-01
8.172084e-01	1.052632e+00	-2.454799e-01
8.641863e-01	1.052632e+00	-2.673591e-01
9.009752e-01	1.052632e+00	-2.848204e-01
9.288372e-01	1.052632e+00	-2.982085e-01
9.448555e-01	1.052632e+00	-3.059908e-01
9.510565e-01	1.052632e+00	-3.090170e-01
9.510565e-01	2.105263e+00	-3.090170e-01
9.442611e-01	2.105263e+00	-3.078203e-01
9.267277e-01	2.105263e+00	-3.047010e-01
8.963175e-01	2.105263e+00	-2.991555e-01
8.562911e-01	2.105263e+00	-2.916579e-01
8.054250e-01	2.105263e+00	-2.817457e-01
7.470317e-01	2.105263e+00	-2.699633e-01
6.809074e-01	2.105263e+00	-2.559818e-01
6.100852e-01	2.105263e+00	-2.403847e-01
5.354138e-01	2.105263e+00	-2.229691e-01
4.593635e-01	2.105263e+00	-2.042585e-01
3.837764e-01	2.105263e+00	-1.841224e-01
3.103069e-01	2.105263e+00	-1.630077e-01
2.415927e-01	2.105263e+00	-1.409228e-01
1.782654e-01	2.105263e+00	-1.183331e-01
1.234349e-01	2.105263e+00	-9.558566e-02
7.662509e-02	2.105263e+00	-7.318920e-02
4.106998e-02	2.105263e+00	-5.193053e-02
1.528206e-02	2.105263e+00	-3.215886e-02
2.347037e-03	2.105263e+00	-1.488740e-02
0.000000e+00	2.105263e+00	0.000000e+00
1.064939e-02	2.105263e+00	1.066461e-02
3.126595e-02	2.105263e+00	1.703450e-02
6.375031e-02	2.105263e+00	1.787236e-02
1.050105e-01	2.105263e+00	1.417221e-02
1.560448e-01	2.105263e+00	4.777214e-03
2.137742e-01	2.105263e+00	-9.048270e-03
2.782849e-01	2.105263e+00	-2.799567e-02
3.468570e-01	2.105263e+00	-5.051783e-02
4.187060e-01	2.105263e+00	-7.662000e-02
4.916930e-01	2.105263e+00	-1.047585e-01
5.642168e-01	2.105263e+00	-1.343226e-01
6.348639e-01	2.105263e+00	-1.641238e-01
7.013280e-01	2.105263e+00	-1.931337e-01
7.630418e-01	2.105263e+00	-2.206893e-01
8.172084e-01	2.105263e+00	-2.454799e-01
8.641863e-01	2.105263e+00	-2.673591e-01
9.009752e-01	2.105263e+00	-2.848204e-01
9.288372e-01	2.105263e+00	-2.982085e-01
9.448555e-01	2.105263e+00	-3.059908e-01
9.510565e-01	2.105263e+00	-3.090170e-01
9.510565e-01	3.157895e+00	-3.090170e-01
9.442611e-01	3.157895e+00	-3.078203e-01
9.267277e-01	3.157895e+00	-3.047010e-01
8.963175e-01	3.157895e+00	-2.991555e-01
8.562911e-01	3.157895e+00	-2.916579e-01
8.054250e-01	3.157895e+00	-2.817457e-01
7.470317e-01	3.157895e+00	-2.699633e-01
6.809074e-01	3.157895e+00	-2.559818e-01
6.100852e-01	3.157895e+00	-2.403847e-01
5.354138e-01	3.157895e+00	-2.229691e-01
4.593635e-01	3.157895e+00	-2.042585e-01
3.837764e-01	3.157895e+00	-1.841224e-01
3.103069e-01	3.157895e+00	-1.630077e-01
2.415927e-01	3.157895e+00	-1.409228e-01
1.782654e-01	3.157895e+00	-1.183331e-01
1.234349e-01	3.157895e+00	-9.558566e-02
7.662509e-02	3.157895e+00	-7.318920e-02
4.106998e-02	3.157895e+00	-5.193053e-02
1.528206e-02	3.157895e+00	-3.215886e-02
2.347037e-03	3.157895e+00	-1.488740e-02
0.000000e+00	3.157895e+00	0.000000e+00
1.064939e-02	3.157895e+00	1.066461e-02
3.126595e-02	3.157895e+00	1.703450e-02
6.375031e-02	3.157895e+00	1.787236e-02
1.050105e-01	3.157895e+00	1.417221e-02
1.560448e-01	3.157895e+00	4.777214e-03
2.137742e-01	3.157895e+00	-9.048270e-03
2.782849e-01	3.157895e+00	-2.799567e-02
3.468570e-01	3.157895e+00	-5.051783e-02
4.187060e-01	3.157895e+00	-7.662000e-02
4.916930e-01	3.157895e+00	-1.047585e-01
5.642168e-01	3.157895e+00	-1.343226e-01
6.348639e-01	3.157895e+00	-1.641238e-01
7.013280e-01	3.157895e+00	-1.931337e-01
7.630418e-01	3.157895e+00	-2.206893e-01
8.172084e-01	3.157895e+00	-2.454799e-01
8.641863e-01	3.157895e+00	-2.673591e-01
9.009752e-01	3.157895e+00	-2.848204e-01
9.288372e-01	3.157895e+00	-2.982085e-01
9.448555e-01	3.157895e+00	-3.059908e-01
9.510565e-01	3.157895e+00	-3.090170e-01
9.510565e-01	4.210526e+00	-3.090170e-01
9.442611e-01	4.210526e+00	-3.078203e-01
9.267277e-01	4.210526e+00	-3.047010e-01
8.963175e-01	4.210526e+00	-2.991555e-01
8.562911e-01	4.210526e+00	-2.916579e-01
8.054250e-01	4.210526e+00	-2.817457e-01
7.470317e-01	4.210526e+00	-2.699633e-01
6.809074e-01	4.210526e+00	-2.559818e-01
6.100852e-01	4.210526e+00	-2.403847e-01
5.354138e-01	4.210526e+00	-2.229691e-01
4.593635e-01	4.210526e+00	-2.042585e-01
3.837764e-01	4.210526e+00	-1.841224e-01
3.103069e-01	4.210526e+00	-1.630077e-01
2.415927e-01	4.210526e+00	-1.409228e-01
1.782654e-01	4.210526e+00	-1.183331e-01
1.234349e-01	4.210526e+00	-9.558566e-02
7.662509e-02	4.210526e+00	-7.318920e-02
4.106998e-02	4.210526e+00	-5.193053e-02
1.528206e-02	4.210526e+00	-3.215886e-02
2.347037e-03	4.210526e+00	-1.488740e-02
0.000000e+00	4.210526e+00	0.000000e+00
1.064939e-02	4.210526e+00	1.066461e-02
3.126595e-02	4.210526e+00	1.703450e-02
6.375031e-02	4.210526e+00	1.787236e-02
1.050105e-01	4.210526e+00	1.417221e-02
1.560448e-01	4.210526e+00	4.777214e-03
2.137742e-01	4.210526e+00	-9.048270e-03
2.782849e-01	4.210526e+00	-2.799567e-02
3.468570e-01	4.210526e+00	-5.051783e-02
4.187060e-01	4.210526e+00	-7.662000e-02
4.916930e-01	4.210526e+00	-1.047585e-01
5.642168e-01	4.210526e+00	-1.343226e-01
6.348639e-01	4.210526e+00	-1.641238e-01
7.013280e-01	4.210526e+00	-1.931337e-01
7.630418e-01	4.210526e+00	-2.206893e-01
8.172084e-01	4.210526e+00	-2.454799e-01
8.641863e-01	4.210526e+00	-2.673591e-01
9.009752e-01	4.210526e+00	-2.848204e-01
9.288372e-01	4.210526e+00	-2.982085e-01
9.448555e-01	4.210526e+00	-3.059908e-01
9.510565e-01	4.210526e+00	-3.090170e-01
9.510565e-01	5.263158e+00	-3.090170e-01
9.442611e-01	5.263158e+00	-3.078203e-01
9.267277e-01	5.263158e+00	-3.047010e-01
8.963175e-01	5.263158e+00	-2.991555e-01
8.562911e-01	5.263158e+00	-2.916579e-01
8.054250e-01	5.263158e+00	-2.817457e-01
7.470317e-01	5.263158e+00	-2.699633e-01
6.809074e-01	5.263158e+00	-2.559818e-01
6.100852e-01	5.263158e+00	-2.403847e-01
5.354138e-01	5.263158e+00	-2.229691e-01
4.593635e-01	5.263158e+00	-2.042585e-01
3.837764e-01	5.263158e+00	-1.841224e-01
3.103069e-01	5.263158e+00	-1.630077e-01
2.415927e-01	5.263158e+00	-1.409228e-01
1.782654e-01	5.263158e+00	-1.183331e-01
1.234349e-01	5.263158e+00	-9.558566e-02
7.662509e-02	5.263158e+00	-7.318920e-02
4.106998e-02	5.263158e+00	-5.193053e-02
1.528206e-02	5.263158e+00	-3.215886e-02
2.347037e-03	5.263158e+00	-1.488740e-02
0.000000e+00	5.263158e+00	0.000000e+00
1.064939e-02	5.263158e+00	1.066461e-02
3.126595e-02	5.263158e+00	1.703450e-02
6.375031e-02	5.263158e+00	1.787236e-02
1.050105e-01	5.263158e+00	1.417221e-02
1.560448e-01	5.263158e+00	4.777214e-03
2.137742e-01	5.263158e+00	-9.048270e-03
2.782849e-01	5.263158e+00	-2.799567e-02
3.468570e-01	5.263158e+00	-5.051783e-02
4.187060e-01	5.263158e+00	-7.662000e-02
4.916930e-01	5.263158e+00	-1.047585e-01
5.642168e-01	5.263158e+00	-1.343226e-01
6.348639e-01	5.263158e+00	-1.641238e-01
7.013280e-01	5.263158e+00	-1.931337e-01
7.630418e-01	5.263158e+00	-2.206893e-01
8.172084e-01	5.263158e+00	-2.454799e-01
8.641863e-01	5.263158e+00	-2.673591e-01
9.009752e-01	5.263158e+00	-2.848204e-01
9.288372e-01	5.263158e+00	-2.982085e-01
9.448555e-01	5.263158e+00	-3.059908e-01
9.510565e-01	5.263158e+00	-3.090170e-01
9.510565e-01	6.315789e+00	-3.090170e-01
9.442611e-01	6.315789e+00	-3.078203e-01
[...]
CELL_DATA 760
VECTORS V double
8.414317e-01	-6.902451e-02	-1.481730e-01
8.655547e-01	-6.885093e-02	-1.539875e-01
8.835723e-01	-6.840119e-02	-1.611278e-01
8.953413e-01	-6.760684e-02	-1.677112e-01
8.978098e-01	-6.644598e-02	-1.749551e-01
8.991260e-01	-6.490098e-02	-1.814224e-01
8.920920e-01	-6.296153e-02	-1.886262e-01
8.847855e-01	-6.060358e-02	-1.948555e-01
8.704554e-01	-5.779869e-02	-2.030165e-01
8.548199e-01	-5.451431e-02	-2.103103e-01
8.295203e-01	-5.072498e-02	-2.209814e-01
7.986045e-01	-4.641652e-02	-2.295140e-01
7.512623e-01	-4.162189e-02	-2.414569e-01
6.892474e-01	-3.639222e-02	-2.458639e-01
6.026086e-01	-3.076545e-02	-2.500032e-01
4.719478e-01	-2.486434e-02	-2.258066e-01
2.702576e-01	-1.869685e-02	-1.615890e-01
-1.728661e-02	-1.242899e-02	1.325369e-02
-4.216606e-01	-5.862216e-03	5.630213e-01
-3.426344e-01	7.174084e-04	2.173351e+00
2.326788e+00	8.429521e-03	2.330113e+00
2.541510e+00	1.519345e-02	7.852490e-01
2.210426e+00	2.213885e-02	5.701290e-02
1.925437e+00	2.898547e-02	-1.726701e-01
1.720119e+00	3.597428e-02	-3.166602e-01
1.570355e+00	4.294018e-02	-3.760807e-01
1.435516e+00	4.987750e-02	-4.216243e-01
1.336709e+00	5.660773e-02	-4.390356e-01
1.250620e+00	6.301268e-02	-4.543402e-01
1.181685e+00	6.889453e-02	-4.555721e-01
1.121860e+00	7.413779e-02	-4.573227e-01
1.071607e+00	7.860538e-02	-4.520383e-01
1.027470e+00	8.223513e-02	-4.484651e-01
9.871985e-01	8.501937e-02	-4.407907e-01
9.499793e-01	8.700948e-02	-4.347788e-01
9.115289e-01	8.830337e-02	-4.245307e-01
8.743633e-01	8.902937e-02	-4.150018e-01
8.341901e-01	8.933651e-02	-4.008436e-01
7.910626e-01	8.938038e-02	-3.843288e-01
7.483120e-01	8.933469e-02	-3.651834e-01
8.268664e-01	-4.833902e-02	-1.456081e-01
8.473569e-01	-4.821472e-02	-1.507500e-01
8.618228e-01	-4.789623e-02	-1.571616e-01
8.705126e-01	-4.733248e-02	-1.630604e-01
8.702680e-01	-4.650082e-02	-1.695881e-01
8.688883e-01	-4.538243e-02	-1.753211e-01
8.588940e-01	-4.396665e-02	-1.816068e-01
8.480298e-01	-4.223847e-02	-1.867608e-01
8.293654e-01	-4.018310e-02	-1.934331e-01
8.083838e-01	-3.778539e-02	-1.988857e-01
7.766039e-01	-3.501564e-02	-2.068847e-01
7.379528e-01	-3.192417e-02	-2.120831e-01
6.816582e-01	-2.848847e-02	-2.190861e-01
6.086189e-01	-2.476358e-02	-2.171026e-01
5.088339e-01	-2.077543e-02	-2.110991e-01
3.608527e-01	-1.660706e-02	-1.726524e-01
1.374690e-01	-1.226023e-02	-8.219375e-02
-1.813806e-01	-7.848335e-03	1.390650e-01
-6.030643e-01	-3.231516e-03	8.052402e-01
-4.197895e-01	1.387346e-03	2.662750e+00
2.682251e+00	6.786780e-03	2.686084e+00
2.843899e+00	1.150220e-02	8.786781e-01
2.433127e+00	1.631570e-02	6.275697e-02
2.097248e+00	2.102439e-02	-1.880778e-01
1.860422e+00	2.578698e-02	-3.424889e-01
1.689599e+00	3.048381e-02	-4.046382e-01
1.539027e+00	3.510907e-02	-4.520263e-01
1.427780e+00	3.954461e-02	-4.689472e-01
1.330696e+00	4.371860e-02	-4.834310e-01
1.251886e+00	4.752340e-02	-4.826366e-01
1.182655e+00	5.084868e-02	-4.821053e-01
1.123327e+00	5.366566e-02	-4.738554e-01
1.070384e+00	5.592466e-02	-4.671959e-01
1.021735e+00	5.763013e-02	-4.562116e-01
9.765860e-01	5.882330e-02	-4.469559e-01
9.307580e-01	5.957501e-02	-4.334864e-01
8.867486e-01	5.997365e-02	-4.208803e-01
8.402933e-01	6.011999e-02	-4.037763e-01
7.917027e-01	6.011634e-02	-3.846397e-01
7.448131e-01	6.007304e-02	-3.634759e-01
8.205723e-01	-2.041355e-02	-1.444998e-01
8.397335e-01	-2.036170e-02	-1.493938e-01
8.527194e-01	-2.023131e-02	-1.555015e-01
8.598813e-01	-1.999524e-02	-1.610690e-01
8.580941e-01	-1.963659e-02	-1.672158e-01
8.551314e-01	-1.913872e-02	-1.725453e-01
8.435123e-01	-1.849188e-02	-1.783544e-01
8.309134e-01	-1.769078e-02	-1.829913e-01
8.103593e-01	-1.670827e-02	-1.890003e-01
7.869750e-01	-1.559400e-02	-1.936185e-01
7.529137e-01	-1.431577e-02	-2.005737e-01
7.116256e-01	-1.290638e-02	-2.045168e-01
6.518131e-01	-1.135005e-02	-2.094938e-01
5.746675e-01	-9.682938e-03	-2.049917e-01
4.698939e-01	-7.915136e-03	-1.949441e-01
3.151623e-01	-6.079086e-03	-1.507915e-01
8.318671e-02	-4.171509e-03	-4.973795e-02
-2.481774e-01	-2.240311e-03	1.902784e-01
-6.765815e-01	-2.246325e-04	9.034039e-01
-4.508291e-01	1.783614e-03	2.859636e+00
2.823347e+00	4.112686e-03	2.827381e+00
2.961619e+00	6.120639e-03	9.150501e-01
2.517748e+00	8.134104e-03	6.493957e-02
2.160545e+00	1.005795e-02	-1.937541e-01
1.910243e+00	1.194843e-02	-3.516605e-01
1.730203e+00	1.375201e-02	-4.143622e-01
1.572721e+00	1.546410e-02	-4.619225e-01
1.456073e+00	1.704412e-02	-4.782400e-01
1.354611e+00	1.847462e-02	-4.921193e-01
1.271663e+00	1.974128e-02	-4.902612e-01
1.198768e+00	2.080721e-02	-4.886739e-01
1.136458e+00	2.166716e-02	-4.793947e-01
1.080533e+00	2.230380e-02	-4.716257e-01
1.029156e+00	2.277528e-02	-4.595250e-01
9.815246e-01	2.307737e-02	-4.492162e-01
9.334821e-01	2.324208e-02	-4.347550e-01
8.875210e-01	2.330460e-02	-4.212469e-01
8.394014e-01	2.330239e-02	-4.033477e-01
7.894788e-01	2.327193e-02	-3.835593e-01
7.416799e-01	2.324514e-02	-3.619469e-01
8.181649e-01	-1.022185e-02	-1.440758e-01
8.367523e-01	-1.020080e-02	-1.488634e-01
8.489831e-01	-1.014448e-02	-1.548201e-01
8.553732e-01	-1.003862e-02	-1.602245e-01
8.527990e-01	-9.873365e-03	-1.661839e-01
8.489989e-01	-9.625409e-03	-1.713079e-01
8.365131e-01	-9.312620e-03	-1.768745e-01
8.226216e-01	-8.915029e-03	-1.811652e-01
8.010760e-01	-8.441541e-03	-1.868351e-01
7.769726e-01	-7.877419e-03	-1.911576e-01
7.414753e-01	-7.237641e-03	-1.975265e-01
6.984300e-01	-6.499542e-03	-2.007245e-01
6.368811e-01	-5.693646e-03	-2.046946e-01
5.575802e-01	-4.817803e-03	-1.988965e-01
4.501837e-01	-3.883455e-03	-1.867670e-01
2.919121e-01	-2.907721e-03	-1.396673e-01
5.546740e-02	-1.893930e-03	-3.316437e-02
-2.823348e-01	-8.601800e-04	2.164669e-01
-7.141786e-01	2.203046e-04	9.536054e-01
-4.666641e-01	1.281331e-03	2.960079e+00
2.894922e+00	2.523306e-03	2.899059e+00
3.020872e+00	3.601287e-03	9.333573e-01
2.559961e+00	4.659755e-03	6.602835e-02
2.191773e+00	5.662509e-03	-1.965546e-01
1.934560e+00	6.641850e-03	-3.561371e-01
1.749812e+00	7.561732e-03	-4.190583e-01
1.588832e+00	8.425970e-03	-4.666544e-01
1.469492e+00	9.215641e-03	-4.826475e-01
1.365839e+00	9.931683e-03	-4.961982e-01
1.281319e+00	1.055090e-02	-4.939838e-01
1.206772e+00	1.108958e-02	-4.919365e-01
1.142462e+00	1.152111e-02	-4.819271e-01
1.085220e+00	1.185936e-02	-4.736716e-01
1.032955e+00	1.209765e-02	-4.612215e-01
9.841905e-01	1.225783e-02	-4.504363e-01
9.351500e-01	1.233891e-02	-4.355319e-01
8.883116e-01	1.238292e-02	-4.216221e-01
8.394631e-01	1.239314e-02	-4.033773e-01
7.889793e-01	1.238631e-02	-3.833166e-01
7.407091e-01	1.237764e-02	-3.614731e-01
8.170390e-01	-5.654488e-03	-1.438776e-01
8.351993e-01	-5.643392e-03	-1.485871e-01
8.470195e-01	-5.611942e-03	-1.544621e-01
8.529685e-01	-5.552631e-03	-1.597741e-01
8.496377e-01	-5.456499e-03	-1.655679e-01
8.453977e-01	-5.316222e-03	-1.705813e-01
8.325251e-01	-5.144796e-03	-1.760313e-01
8.185102e-01	-4.924916e-03	-1.802597e-01
7.963535e-01	-4.659770e-03	-1.857337e-01
7.711694e-01	-4.317930e-03	-1.897299e-01
7.349066e-01	-3.933035e-03	-1.957767e-01
6.910471e-01	-3.496899e-03	-1.986027e-01
6.284574e-01	-3.025449e-03	-2.019872e-01
5.477742e-01	-2.605113e-03	-1.953985e-01
4.388142e-01	-2.061803e-03	-1.820501e-01
2.785244e-01	-1.454299e-03	-1.332618e-01
3.946666e-02	-8.448744e-04	-2.359741e-02
-3.022498e-01	-2.252803e-04	2.317358e-01
-7.358035e-01	4.225275e-04	9.824800e-01
-4.756979e-01	1.067197e-03	3.017381e+00
2.937176e+00	1.810441e-03	2.941373e+00
3.055437e+00	2.445216e-03	9.440370e-01
2.584101e+00	3.073637e-03	6.665099e-02
2.209647e+00	3.664429e-03	-1.981575e-01
1.948334e+00	4.234050e-03	-3.586726e-01
1.760749e+00	4.757382e-03	-4.216777e-01
1.597736e+00	5.243089e-03	-4.692697e-01
1.476936e+00	5.786806e-03	-4.850924e-01
1.372005e+00	6.190878e-03	-4.984383e-01
1.286275e+00	6.528823e-03	-4.958946e-01
1.210918e+00	6.809254e-03	-4.936267e-01
1.146295e+00	7.039249e-03	-4.835442e-01
1.088258e+00	7.237286e-03	-4.749975e-01
1.034929e+00	7.379914e-03	-4.621028e-01
9.854634e-01	7.478109e-03	-4.510189e-01
9.358669e-01	7.526585e-03	-4.358657e-01
8.888555e-01	7.549900e-03	-4.218803e-01
8.396036e-01	7.556309e-03	-4.034448e-01
7.887850e-01	7.552472e-03	-3.832222e-01
7.403523e-01	7.548223e-03	-3.612990e-01
8.163026e-01	-3.304766e-03	-1.437479e-01
8.342429e-01	-3.297980e-03	-1.484170e-01
8.457925e-01	-3.280032e-03	-1.542383e-01
8.514011e-01	-3.245753e-03	-1.594805e-01
8.479667e-01	-3.213232e-03	-1.652423e-01
8.435938e-01	-3.126594e-03	-1.702173e-01
8.304596e-01	-3.004173e-03	-1.755945e-01
8.157141e-01	-2.856378e-03	-1.796440e-01
7.928767e-01	-2.669294e-03	-1.849228e-01
7.674318e-01	-2.434902e-03	-1.888103e-01
7.307448e-01	-2.193997e-03	-1.946680e-01
6.863324e-01	-1.967255e-03	-1.972477e-01
6.244569e-01	-1.652392e-03	-2.007015e-01
5.433297e-01	-1.432946e-03	-1.938131e-01
4.314996e-01	-1.067289e-03	-1.790155e-01
2.694671e-01	-6.887721e-04	-1.289283e-01
2.922033e-02	-2.925210e-04	-1.747105e-02
-3.147483e-01	1.026412e-04	2.413184e-01
-7.498726e-01	5.143571e-04	1.001266e+00
-4.816716e-01	9.376539e-04	3.055272e+00
2.962439e+00	1.409315e-03	2.966672e+00
3.076389e+00	1.797599e-03	9.505104e-01
2.599184e+00	2.194938e-03	6.704003e-02
2.220498e+00	2.565954e-03	-1.991306e-01
1.956459e+00	2.916893e-03	-3.601684e-01
1.767081e+00	3.244447e-03	-4.231941e-01
1.604478e+00	3.659146e-03	-4.712499e-01
1.482583e+00	3.917418e-03	-4.869472e-01
1.375502e+00	4.161903e-03	-4.997086e-01
1.289121e+00	4.382358e-03	-4.969918e-01
1.213163e+00	4.549521e-03	-4.945420e-01
1.147927e+00	4.658023e-03	-4.842324e-01
1.089783e+00	4.756106e-03	-4.756632e-01
1.036443e+00	4.835824e-03	-4.627785e-01
9.865867e-01	4.889576e-03	-4.515330e-01
9.365254e-01	4.962848e-03	-4.361725e-01
8.890384e-01	4.965533e-03	-4.219671e-01
8.396007e-01	4.963975e-03	-4.034435e-01
7.886088e-01	4.960234e-03	-3.831366e-01
7.400583e-01	4.956988e-03	-3.611555e-01
8.159001e-01	-2.029348e-03	-1.436770e-01
8.337516e-01	-2.025302e-03	-1.483296e-01
8.451817e-01	-2.015080e-03	-1.541269e-01
8.513171e-01	-1.996416e-03	-1.594648e-01
8.471428e-01	-1.966214e-03	-1.650817e-01
8.417555e-01	-2.010062e-03	-1.698464e-01
8.283509e-01	-1.887756e-03	-1.751487e-01
8.137374e-01	-1.782800e-03	-1.792086e-01
7.906617e-01	-1.683560e-03	-1.844062e-01
7.649309e-01	-1.542164e-03	-1.881950e-01
7.287913e-01	-1.385823e-03	-1.941476e-01
6.838458e-01	-1.215168e-03	-1.965331e-01
6.209847e-01	-1.015351e-03	-1.995855e-01
5.391731e-01	-7.360088e-04	-1.923304e-01
4.267020e-01	-5.011803e-04	-1.770251e-01
2.642615e-01	-2.943813e-04	-1.264377e-01
2.254616e-02	-5.072092e-05	-1.348052e-02
-3.228913e-01	1.715443e-04	2.475617e-01
-7.587869e-01	4.311174e-04	1.013169e+00
-4.854042e-01	6.878084e-04	3.078949e+00
2.979173e+00	9.826386e-04	2.983430e+00
3.090082e+00	1.232620e-03	9.547413e-01
2.608806e+00	1.473062e-03	6.728821e-02
2.227498e+00	1.731017e-03	-1.997584e-01
1.961938e+00	1.950589e-03	-3.611770e-01
1.773579e+00	2.163725e-03	-4.247504e-01
1.607822e+00	2.361357e-03	-4.722322e-01
1.483907e+00	2.462261e-03	-4.873820e-01
1.378064e+00	2.606517e-03	-5.006396e-01
1.291165e+00	2.742644e-03	-4.977796e-01
1.214372e+00	2.855298e-03	-4.950347e-01
1.148932e+00	2.945557e-03	-4.846563e-01
1.090635e+00	3.043887e-03	-4.760350e-01
1.036863e+00	3.109197e-03	-4.629661e-01
9.874726e-01	3.229838e-03	-4.519384e-01
9.373975e-01	3.221382e-03	-4.365786e-01
8.888936e-01	3.215478e-03	-4.218983e-01
8.394550e-01	3.212555e-03	-4.033734e-01
7.884519e-01	3.209318e-03	-3.830603e-01
7.398553e-01	3.207030e-03	-3.610564e-01
8.156236e-01	-1.104086e-03	-1.436283e-01
8.334122e-01	-1.101044e-03	-1.482692e-01
8.447798e-01	-1.091506e-03	-1.540536e-01
8.501525e-01	-1.098673e-03	-1.592466e-01
8.483784e-01	-1.049895e-03	-1.653225e-01
8.420531e-01	-1.033173e-03	-1.699064e-01
8.269778e-01	-9.980459e-04	-1.748583e-01
8.128171e-01	-9.742849e-04	-1.790059e-01
7.896232e-01	-9.853721e-04	-1.841640e-01
7.635231e-01	-9.085766e-04	-1.878487e-01
7.264707e-01	-8.083320e-04	-1.935294e-01
6.813982e-01	-6.875611e-04	-1.958296e-01
6.178289e-01	-5.760932e-04	-1.985712e-01
5.356469e-01	-3.419745e-04	-1.910725e-01
4.242741e-01	-2.519323e-04	-1.760179e-01
2.612177e-01	-1.238754e-04	-1.249814e-01
1.920722e-02	1.334291e-05	-1.148414e-02
-3.269616e-01	1.553441e-04	2.506824e-01
-7.641393e-01	3.047468e-04	1.020315e+00
-4.876371e-01	4.536228e-04	3.093112e+00
2.989115e+00	6.249663e-04	2.993386e+00
3.097879e+00	7.705261e-04	9.571503e-01
2.615389e+00	9.136089e-04	6.745800e-02
2.232234e+00	1.047221e-03	-2.001830e-01
1.965150e+00	1.174820e-03	-3.617684e-01
1.774111e+00	1.294672e-03	-4.248776e-01
1.608932e+00	1.321753e-03	-4.725582e-01
1.486005e+00	1.433372e-03	-4.880709e-01
1.379157e+00	1.540437e-03	-5.010367e-01
1.292260e+00	1.596892e-03	-4.982020e-01
1.215704e+00	1.659953e-03	-4.955779e-01
1.150329e+00	1.800914e-03	-4.852458e-01
1.091978e+00	1.817031e-03	-4.766210e-01
1.039073e+00	1.853281e-03	-4.639530e-01
9.885158e-01	1.856959e-03	-4.524158e-01
9.362546e-01	1.830094e-03	-4.360463e-01
8.888285e-01	1.839358e-03	-4.218675e-01
8.394151e-01	1.864385e-03	-4.033543e-01
7.883368e-01	1.861625e-03	-3.830045e-01
7.397079e-01	1.860198e-03	-3.609845e-01
8.153896e-01	-1.372733e-03	-1.435871e-01
8.330017e-01	-1.372914e-03	-1.481961e-01
8.452086e-01	-1.374060e-03	-1.541318e-01
8.501081e-01	-1.357444e-03	-1.592383e-01
8.458862e-01	-1.318039e-03	-1.648368e-01
8.408414e-01	-1.273256e-03	-1.696619e-01
8.274538e-01	-1.141236e-03	-1.749590e-01
8.135730e-01	-1.200768e-03	-1.791724e-01
7.897537e-01	-9.787995e-04	-1.841944e-01
7.626058e-01	-1.026240e-03	-1.876230e-01
7.259032e-01	-6.681302e-04	-1.933782e-01
6.807453e-01	-7.547999e-04	-1.956420e-01
6.162333e-01	-3.178927e-04	-1.980584e-01
5.342459e-01	-3.798577e-04	-1.905728e-01
4.231882e-01	7.993534e-05	-1.755674e-01
2.593830e-01	4.170798e-04	-1.241035e-01
1.658926e-02	6.090816e-04	-9.918841e-03
-3.303401e-01	6.546624e-04	2.532727e-01
-7.670233e-01	7.007913e-04	1.024166e+00
-4.888673e-01	7.610154e-04	3.100915e+00
2.994692e+00	8.411018e-04	2.998972e+00
3.102759e+00	9.185228e-04	9.586580e-01
2.617703e+00	1.013972e-03	6.751768e-02
2.233960e+00	1.094764e-03	-2.003379e-01
1.966900e+00	1.028137e-03	-3.620906e-01
1.775997e+00	8.092699e-04	-4.253295e-01
1.609987e+00	4.607962e-04	-4.728679e-01
1.486940e+00	6.244446e-04	-4.883781e-01
1.380184e+00	3.078916e-04	-5.014097e-01
1.292674e+00	4.384998e-04	-4.983615e-01
1.216920e+00	1.450726e-04	-4.960736e-01
1.150965e+00	2.978387e-04	-4.855139e-01
1.091325e+00	4.206721e-05	-4.763359e-01
1.037459e+00	1.040130e-04	-4.632321e-01
9.871343e-01	-1.047235e-04	-4.517836e-01
9.370089e-01	-5.277340e-05	-4.363976e-01
8.896296e-01	-7.102892e-05	-4.222477e-01
8.402935e-01	-7.813270e-05	-4.037764e-01
7.882364e-01	-7.338925e-05	-3.829557e-01
7.396366e-01	-7.236368e-05	-3.609497e-01
8.156540e-01	3.643362e-05	-1.436337e-01
8.334960e-01	1.881928e-05	-1.482841e-01
8.441536e-01	1.723363e-05	-1.539394e-01
8.486909e-01	3.861739e-05	-1.589728e-01
8.466768e-01	3.627274e-05	-1.649909e-01
8.389080e-01	3.517191e-05	-1.692718e-01
8.260058e-01	3.371000e-05	-1.746528e-01
8.103849e-01	3.453169e-05	-1.784703e-01
7.873405e-01	7.744553e-05	-1.836316e-01
7.594194e-01	6.609035e-05	-1.868390e-01
7.228867e-01	5.817181e-05	-1.925746e-01
6.768658e-01	5.740167e-05	-1.945271e-01
6.123930e-01	-2.367921e-06	-1.968241e-01
5.301025e-01	9.793173e-07	-1.890948e-01
4.111598e-01	3.251108e-05	-1.705772e-01
2.512205e-01	1.917806e-07	-1.201981e-01
1.376465e-02	3.703115e-06	-8.229984e-03
-3.293132e-01	6.408301e-06	2.524854e-01
-7.669954e-01	7.783836e-06	1.024129e+00
-4.891353e-01	8.181058e-06	3.102615e+00
2.996917e+00	7.930200e-06	3.001199e+00
3.105647e+00	7.262133e-06	9.595503e-01
2.621011e+00	6.084478e-06	6.760300e-02
2.232160e+00	3.982930e-06	-2.001764e-01
1.959138e+00	3.630326e-05	-3.606616e-01
1.764234e+00	3.233892e-05	-4.225123e-01
1.606506e+00	-1.931101e-06	-4.718456e-01
1.483670e+00	4.900881e-05	-4.873040e-01
1.376848e+00	3.527824e-05	-5.001978e-01
1.290172e+00	2.600947e-05	-4.973971e-01
1.213916e+00	2.041607e-05	-4.948490e-01
1.149115e+00	-2.239248e-05	-4.847337e-01
1.089262e+00	-1.873323e-05	-4.754356e-01
1.037154e+00	-1.956926e-05	-4.630963e-01
9.857351e-01	-1.846487e-05	-4.511432e-01
9.370003e-01	-1.847503e-05	-4.363936e-01
8.882180e-01	-1.733267e-05	-4.215777e-01
8.392746e-01	-3.970862e-05	-4.032868e-01
7.886623e-01	-3.858780e-05	-3.831626e-01
7.398650e-01	-2.107114e-05	-3.610612e-01
8.183457e-01	1.454669e-03	-1.441077e-01
8.337136e-01	1.455020e-03	-1.483228e-01
8.444058e-01	1.456818e-03	-1.539854e-01
8.497108e-01	1.442062e-03	-1.591639e-01
8.459532e-01	1.405212e-03	-1.648499e-01
8.408859e-01	1.450670e-03	-1.696709e-01
8.274619e-01	1.275966e-03	-1.749607e-01
8.129332e-01	1.333543e-03	-1.790315e-01
7.893423e-01	1.062044e-03	-1.840985e-01
7.628585e-01	1.113188e-03	-1.876852e-01
7.260174e-01	7.638127e-04	-1.934086e-01
6.815371e-01	7.761273e-04	-1.958696e-01
6.170460e-01	3.431890e-04	-1.983196e-01
5.337472e-01	4.318280e-04	-1.903949e-01
4.231339e-01	-6.155843e-05	-1.755449e-01
2.599727e-01	-3.976086e-04	-1.243857e-01
1.645437e-02	-5.900823e-04	-9.838188e-03
-3.304503e-01	-6.110304e-04	2.533572e-01
-7.670778e-01	-6.868883e-04	1.024239e+00
-4.888701e-01	-7.475238e-04	3.100933e+00
2.994643e+00	-8.302747e-04	2.998922e+00
3.102673e+00	-8.820915e-04	9.586314e-01
2.617592e+00	-9.770561e-04	6.751482e-02
2.234809e+00	-1.090615e-03	-2.004140e-01
1.967406e+00	-1.028234e-03	-3.621837e-01
1.775308e+00	-7.813486e-04	-4.251644e-01
1.610302e+00	-4.405203e-04	-4.729604e-01
1.487428e+00	-6.403269e-04	-4.885382e-01
1.379885e+00	-3.358545e-04	-5.013012e-01
1.292487e+00	-4.004796e-04	-4.982893e-01
1.216317e+00	-1.212470e-04	-4.958276e-01
1.150454e+00	-2.227789e-04	-4.852986e-01
1.091364e+00	-1.441000e-05	-4.763532e-01
1.037461e+00	-1.219669e-04	-4.632333e-01
9.871530e-01	-2.191786e-05	-4.517921e-01
9.370280e-01	-4.988005e-05	-4.364065e-01
8.892138e-01	-2.052103e-05	-4.220503e-01
8.395106e-01	-1.092536e-05	-4.034002e-01
7.888550e-01	-1.512432e-05	-3.832562e-01
7.423192e-01	-1.609900e-05	-3.622588e-01
8.155951e-01	1.195873e-03	-1.436233e-01
8.333622e-01	1.210609e-03	-1.482603e-01
8.446887e-01	1.203426e-03	-1.540370e-01
8.500408e-01	1.197808e-03	-1.592257e-01
8.463510e-01	1.086516e-03	-1.649274e-01
8.413851e-01	1.062355e-03	-1.697716e-01
8.276339e-01	9.891279e-04	-1.749971e-01
8.135694e-01	9.711264e-04	-1.791716e-01
7.902271e-01	9.460782e-04	-1.843048e-01
7.633596e-01	8.672715e-04	-1.878084e-01
7.273221e-01	7.786168e-04	-1.937562e-01
6.823580e-01	7.082114e-04	-1.961055e-01
6.174128e-01	6.278231e-04	-1.984375e-01
5.357065e-01	4.788511e-04	-1.910938e-01
4.248401e-01	3.443671e-04	-1.762527e-01
2.612037e-01	2.373880e-04	-1.249746e-01
1.875313e-02	8.902292e-05	-1.121263e-02
-3.270548e-01	-6.133889e-05	2.507539e-01
-7.631417e-01	-2.172000e-04	1.018983e+00
-4.876078e-01	-3.713044e-04	3.092926e+00
2.990501e+00	-5.480276e-04	2.994774e+00
3.098801e+00	-6.979047e-04	9.574351e-01
2.614173e+00	-8.449430e-04	6.742662e-02
2.231398e+00	-9.813492e-04	-2.001081e-01
1.965685e+00	-1.145522e-03	-3.618669e-01
1.774421e+00	-1.263157e-03	-4.249519e-01
1.608248e+00	-1.371564e-03	-4.723571e-01
1.485346e+00	-1.501982e-03	-4.878546e-01
1.379881e+00	-1.586333e-03	-5.012995e-01
1.292908e+00	-1.650584e-03	-4.984517e-01
1.216164e+00	-1.703629e-03	-4.957652e-01
1.150402e+00	-1.780218e-03	-4.852765e-01
1.090738e+00	-1.802014e-03	-4.760797e-01
1.036902e+00	-1.808010e-03	-4.629838e-01
9.870222e-01	-1.829993e-03	-4.517323e-01
9.369279e-01	-1.851463e-03	-4.363599e-01
8.891635e-01	-1.769155e-03	-4.220265e-01
8.395188e-01	-1.779619e-03	-4.034041e-01
7.883721e-01	-1.779386e-03	-3.830216e-01
7.397157e-01	-1.795910e-03	-3.609883e-01
8.158728e-01	1.718920e-03	-1.436722e-01
8.336939e-01	1.708026e-03	-1.483193e-01
8.448210e-01	1.584441e-03	-1.540611e-01
8.529447e-01	1.677307e-03	-1.597696e-01
8.485131e-01	1.704983e-03	-1.653487e-01
8.426195e-01	1.714662e-03	-1.700207e-01
8.288236e-01	1.673843e-03	-1.752486e-01
8.135476e-01	1.611756e-03	-1.791668e-01
7.907556e-01	1.541843e-03	-1.844281e-01
7.650570e-01	1.421599e-03	-1.882261e-01
7.280984e-01	1.275380e-03	-1.939630e-01
6.835460e-01	1.191616e-03	-1.964469e-01
6.202051e-01	9.861585e-04	-1.993349e-01
5.379754e-01	7.888902e-04	-1.919032e-01