# vtk DataFile Version 2.0
OUTPUT by 3D-VPM
ASCII
DATASET UNSTRUCTURED_GRID
POINTS 820 double
9.510565e-01	0.000000e+00	-3.090170e-01
9.442611e-01	0.000000e+00	-3.078203e-01
9.267277e-01	0.000000e+00	-3.047010e-01
8.963175e-01	0.000000e+00	-2.991555e-01
8.562911e-01	0.000000e+00	-2.916579e-01
8.054250e-01	0.000000e+00	-2.817457e-01
7.470317e-01	0.000000e+00	-2.699633e-01
6.809074e-01	0.000000e+00	-2.559818e-01
6.100852e-01	0.000000e+00	-2.403847e-01
5.354138e-01	0.000000e+00	-2.229691e-01
4.593635e-01	0.000000e+00	-2.042585e-01
3.837764e-01	0.000000e+00	-1.841224e-01
3.103069e-01	0.000000e+00	-1.630077e-01
2.415927e-01	0.000000e+00	-1.409228e-01
1.782654e-01	0.000000e+00	-1.183331e-01
1.234349e-01	0.000000e+00	-9.558566e-02
7.662509e-02	0.000000e+00	-7.318920e-02
4.106998e-02	0.000000e+00	-5.193053e-02
1.528206e-02	0.000000e+00	-3.215886e-02
2.347037e-03	0.000000e+00	-1.488740e-02
0.000000e+00	0.000000e+00	0.000000e+00
1.064939e-02	0.000000e+00	1.066461e-02
3.126595e-02	0.000000e+00	1.703450e-02
6.375031e-02	0.000000e+00	1.787236e-02
1.050105e-01	0.000000e+00	1.417221e-02
1.560448e-01	0.000000e+00	4.777214e-03
2.137742e-01	0.000000e+00	-9.048270e-03
2.782849e-01	0.000000e+00	-2.799567e-02
3.468570e-01	0.000000e+00	-5.051783e-02
4.187060e-01	0.000000e+00	-7.662000e-02
4.916930e-01	0.000000e+00	-1.047585e-01
5.642168e-01	0.000000e+00	-1.343226e-01
6.348639e-01	0.000000e+00	-1.641238e-01
7.013280e-01	0.000000e+00	-1.931337e-01
7.630418e-01	0.000000e+00	-2.206893e-01
8.172084e-01	0.000000e+00	-2.454799e-01
8.641863e-01	0.000000e+00	-2.673591e-01
9.009752e-01	0.000000e+00	-2.848204e-01
9.288372e-01	0.000000e+00	-2.982085e-01
9.448555e-01	0.000000e+00	-3.059908e-01
9.510565e-01	0.000000e+00	-3.090170e-01
9.510565e-01	1.052632e+00	-3.090170e-01
9.442611e-01	1.052632e+00	-3.078203e-01
9.267277e-01	1.052632e+00	-3.047010e-01
8.963175e-01	1.052632e+00	-2.991555e-01
8.562911e-01	1.052632e+00	-2.916579e-01
8.054250e-01	1.052632e+00	-2.817457e-01
7.470317e-01	1.052632e+00	-2.699633e-01
6.809074e-01	1.052632e+00	-2.559818e-01
6.100852e-01	1.052632e+00	-2.403847e-01
5.354138e-01	1.052632e+00	-2.229691e-01
4.593635e-01	1.052632e+00	-2.042585e-01
3.837764e-01	1.052632e+00	-1.841224e-01
3.103069e-01	1.052632e+00	-1.630077e-01
2.415927e-01	1.052632e+00	-1.409228e-01
1.782654e-01	1.052632e+00	-1.183331e-01
1.234349e-01	1.052632e+00	-9.558566e-02
7.662509e-02	1.052632e+00	-7.318920e-02
4.106998e-02	1.052632e+00	-5.193053e-02
1.528206e-02	1.052632e+00	-3.215886e-02
2.347037e-03	1.052632e+00	-1.488740e-02
0.000000e+00	1.052632e+00	0.000000e+00
1.064939e-02	1.052632e+00	1.066461e-02
3.126595e-02	1.052632e+00	1.703450e-02
6.375031e-02	1.052632e+00	1.787236e-02
1.050105e-01	1.052632e+00	1.417221e-02
1.560448e-01	1.052632e+00	4.777214e-03
2.137742e-01	1.052632e+00	-9.048270e-03
2.782849e-01	1.052632e+00	-2.799567e-02
3.468570e-01	1.052632e+00	-5.051783e-02
4.187060e-01	1.052632e+00	-7.662000e-02
4.916930e-01	1.052632e+00	-1.047585e-01
5.642168e-01	1.052632e+00	-1.343226e-01
6.348639e-01	1.052632e+00	-1.641238e-01
7.013280e-01	1.052632e+00	-1.931337e-01
7.630418e-01	1.052632e+00	-2.206893e-01
8.172084e-01	1.052632e+00	-2.454799e-01
8.641863e-01	1.052632e+00	-2.673591e-01
9.009752e-01	1.052632e+00	-2.848204e-01
9.288372e-01	1.052632e+00	-2.982085e-01
9.448555e-01	1.052632e+00	-3.059908e-01
9.510565e-01	1.052632e+00	-3.090170e-01
9.510565e-01	2.105263e+00	-3.090170e-01
9.442611e-01	2.105263e+00	-3.078203e-01
9.267277e-01	2.105263e+00	-3.047010e-01
8.963175e-01	2.105263e+00	-2.991555e-01
8.562911e-01	2.105263e+00	-2.916579e-01
8.054250e-01	2.105263e+00	-2.817457e-01
7.470317e-01	2.105263e+00	-2.699633e-01
6.809074e-01	2.105263e+00	-2.559818e-01
6.100852e-01	2.105263e+00	-2.403847e-01
5.354138e-01	2.105263e+00	-2.229691e-01
4.593635e-01	2.105263e+00	-2.042585e-01
3.837764e-01	2.105263e+00	-1.841224e-01
3.103069e-01	2.105263e+00	-1.630077e-01
2.415927e-01	2.105263e+00	-1.409228e-01
1.782654e-01	2.105263e+00	-1.183331e-01
1.234349e-01	2.105263e+00	-9.558566e-02
7.662509e-02	2.105263e+00	-7.318920e-02
4.106998e-02	2.105263e+00	-5.193053e-02
1.528206e-02	2.105263e+00	-3.215886e-02
2.347037e-03	2.105263e+00	-1.488740e-02
0.000000e+00	2.105263e+00	0.000000e+00
1.064939e-02	2.105263e+00	1.066461e-02
3.126595e-02	2.105263e+00	1.703450e-02
6.375031e-02	2.105263e+00	1.787236e-02
1.050105e-01	2.105263e+00	1.417221e-02
1.560448e-01	2.105263e+00	4.777214e-03
2.137742e-01	2.105263e+00	-9.048270e-03
2.782849e-01	2.105263e+00	-2.799567e-02
3.468570e-01	2.105263e+00	-5.051783e-02
4.187060e-01	2.105263e+00	-7.662000e-02
4.916930e-01	2.105263e+00	-1.047585e-01
5.642168e-01	2.105263e+00	-1.343226e-01
6.348639e-01	2.105263e+00	-1.641238e-01
7.013280e-01	2.105263e+00	-1.931337e-01
7.630418e-01	2.105263e+00	-2.206893e-01
8.172084e-01	2.105263e+00	-2.454799e-01
8.641863e-01	2.105263e+00	-2.673591e-01
9.009752e-01	2.105263e+00	-2.848204e-01
9.288372e-01	2.105263e+00	-2.982085e-01
9.448555e-01	2.105263e+00	-3.059908e-01
9.510565e-01	2.105263e+00	-3.090170e-01
9.510565e-01	3.157895e+00	-3.090170e-01
9.442611e-01	3.157895e+00	-3.078203e-01
9.267277e-01	3.157895e+00	-3.047010e-01
8.963175e-01	3.157895e+00	-2.991555e-01
8.562911e-01	3.157895e+00	-2.916579e-01
8.054250e-01	3.157895e+00	-2.817457e-01
7.470317e-01	3.157895e+00	-2.699633e-01
6.809074e-01	3.157895e+00	-2.559818e-01
6.100852e-01	3.157895e+00	-2.403847e-01
5.354138e-01	3.157895e+00	-2.229691e-01
4.593635e-01	3.157895e+00	-2.042585e-01
3.837764e-01	3.157895e+00	-1.841224e-01
3.103069e-01	3.157895e+00	-1.630077e-01
2.415927e-01	3.157895e+00	-1.409228e-01
1.782654e-01	3.157895e+00	-1.183331e-01
1.234349e-01	3.157895e+00	-9.558566e-02
7.662509e-02	3.157895e+00	-7.318920e-02
4.106998e-02	3.157895e+00	-5.193053e-02
1.528206e-02	3.157895e+00	-3.215886e-02
2.347037e-03	3.157895e+00	-1.488740e-02
0.000000e+00	3.157895e+00	0.000000e+00
1.064939e-02	3.157895e+00	1.066461e-02
3.126595e-02	3.157895e+00	1.703450e-02
6.375031e-02	3.157895e+00	1.787236e-02
1.050105e-01	3.157895e+00	1.417221e-02
1.560448e-01	3.157895e+00	4.777214e-03
2.137742e-01	3.157895e+00	-9.048270e-03
2.782849e-01	3.157895e+00	-2.799567e-02
3.468570e-01	3.157895e+00	-5.051783e-02
4.187060e-01	3.157895e+00	-7.662000e-02
4.916930e-01	3.157895e+00	-1.047585e-01
5.642168e-01	3.157895e+00	-1.343226e-01
6.348639e-01	3.157895e+00	-1.641238e-01
7.013280e-01	3.157895e+00	-1.931337e-01
7.630418e-01	3.157895e+00	-2.206893e-01
8.172084e-01	3.157895e+00	-2.454799e-01
8.641863e-01	3.157895e+00	-2.673591e-01
9.009752e-01	3.157895e+00	-2.848204e-01
9.288372e-01	3.157895e+00	-2.982085e-01
9.448555e-01	3.157895e+00	-3.059908e-01
9.510565e-01	3.157895e+00	-3.090170e-01
9.510565e-01	4.210526e+00	-3.090170e-01
9.442611e-01	4.210526e+00	-3.078203e-01
9.267277e-01	4.210526e+00	-3.047010e-01
8.963175e-01	4.210526e+00	-2.991555e-01
8.562911e-01	4.210526e+00	-2.916579e-01
8.054250e-01	4.210526e+00	-2.817457e-01
7.470317e-01	4.210526e+00	-2.699633e-01
6.809074e-01	4.210526e+00	-2.559818e-01
6.100852e-01	4.210526e+00	-2.403847e-01
5.354138e-01	4.210526e+00	-2.229691e-01
4.593635e-01	4.210526e+00	-2.042585e-01
3.837764e-01	4.210526e+00	-1.841224e-01
3.103069e-01	4.210526e+00	-1.630077e-01
2.415927e-01	4.210526e+00	-1.409228e-01
1.782654e-01	4.210526e+00	-1.183331e-01
1.234349e-01	4.210526e+00	-9.558566e-02
7.662509e-02	4.210526e+00	-7.318920e-02
4.106998e-02	4.210526e+00	-5.193053e-02
1.528206e-02	4.210526e+00	-3.215886e-02
2.347037e-03	4.210526e+00	-1.488740e-02
0.000000e+00	4.210526e+00	0.000000e+00
1.064939e-02	4.210526e+00	1.066461e-02
3.126595e-02	4.210526e+00	1.703450e-02
6.375031e-02	4.210526e+00	1.787236e-02
1.050105e-01	4.210526e+00	1.417221e-02
1.560448e-01	4.210526e+00	4.777214e-03
2.137742e-01	4.210526e+00	-9.048270e-03
2.782849e-01	4.210526e+00	-2.799567e-02
3.468570e-01	4.210526e+00	-5.051783e-02
4.187060e-01	4.210526e+00	-7.662000e-02
4.916930e-01	4.210526e+00	-1.047585e-01
5.642168e-01	4.210526e+00	-1.343226e-01
6.348639e-01	4.210526e+00	-1.641238e-01
7.013280e-01	4.210526e+00	-1.931337e-01
7.630418e-01	4.210526e+00	-2.206893e-01
8.172084e-01	4.210526e+00	-2.454799e-01
8.641863e-01	4.210526e+00	-2.673591e-01
9.009752e-01	4.210526e+00	-2.848204e-01
9.288372e-01	4.210526e+00	-2.982085e-01
9.448555e-01	4.210526e+00	-3.059908e-01
9.510565e-01	4.210526e+00	-3.090170e-01
9.510565e-01	5.263158e+00	-3.090170e-01
9.442611e-01	5.263158e+00	-3.078203e-01
9.267277e-01	5.263158e+00	-3.047010e-01
8.963175e-01	5.263158e+00	-2.991555e-01
8.562911e-01	5.263158e+00	-2.916579e-01
8.054250e-01	5.263158e+00	-2.817457e-01
7.470317e-01	5.263158e+00	-2.699633e-01
6.809074e-01	5.263158e+00	-2.559818e-01
6.100852e-01	5.263158e+00	-2.403847e-01
5.354138e-01	5.263158e+00	-2.229691e-01
4.593635e-01	5.263158e+00	-2.042585e-01
3.837764e-01	5.263158e+00	-1.841224e-01
3.103069e-01	5.263158e+00	-1.630077e-01
2.415927e-01	5.263158e+00	-1.409228e-01
1.782654e-01	5.263158e+00	-1.183331e-01
1.234349e-01	5.263158e+00	-9.558566e-02
7.662509e-02	5.263158e+00	-7.318920e-02
4.106998e-02	5.263158e+00	-5.193053e-02
1.528206e-02	5.263158e+00	-3.215886e-02
2.347037e-03	5.263158e+00	-1.488740e-02
0.000000e+00	5.263158e+00	0.000000e+00
1.064939e-02	5.263158e+00	1.066461e-02
3.126595e-02	5.263158e+00	1.703450e-02
6.375031e-02	5.263158e+00	1.787236e-02
1.050105e-01	5.263158e+00	1.417221e-02
1.560448e-01	5.263158e+00	4.777214e-03
2.137742e-01	5.263158e+00	-9.048270e-03
2.782849e-01	5.263158e+00	-2.799567e-02
3.468570e-01	5.263158e+00	-5.051783e-02
4.187060e-01	5.263158e+00	-7.662000e-02
4.916930e-01	5.263158e+00	-1.047585e-01
5.642168e-01	5.263158e+00	-1.343226e-01
6.348639e-01	5.263158e+00	-1.641238e-01
7.013280e-01	5.263158e+00	-1.931337e-01
7.630418e-01	5.263158e+00	-2.206893e-01
8.172084e-01	5.263158e+00	-2.454799e-01
8.641863e-01	5.263158e+00	-2.673591e-01
9.009752e-01	5.263158e+00	-2.848204e-01
9.288372e-01	5.263158e+00	-2.982085e-01
9.448555e-01	5.263158e+00	-3.059908e-01
9.510565e-01	5.263158e+00	-3.090170e-01
9.510565e-01	6.315789e+00	-3.090170e-01
9.442611e-01	6.315789e+00	-3.078203e-01
[...]
CELL_DATA 760
VECTORS V double
8.686535e-01	-3.423916e-02	-1.529667e-01
8.989081e-01	-3.425774e-02	-1.599213e-01
9.229937e-01	-3.429246e-02	-1.683167e-01
9.399147e-01	-3.432043e-02	-1.760604e-01
9.464606e-01	-3.430239e-02	-1.844356e-01
9.510564e-01	-3.418748e-02	-1.919007e-01
9.466782e-01	-3.392074e-02	-2.001681e-01
9.417864e-01	-3.344148e-02	-2.074087e-01
9.298481e-01	-3.268828e-02	-2.168687e-01
9.169956e-01	-3.160282e-02	-2.256073e-01
8.951540e-01	-3.013721e-02	-2.384660e-01
8.687248e-01	-2.826658e-02	-2.496662e-01
8.270389e-01	-2.598488e-02	-2.658116e-01
7.729432e-01	-2.332727e-02	-2.757194e-01
6.966183e-01	-2.032882e-02	-2.890049e-01
5.807265e-01	-1.707736e-02	-2.778524e-01
3.983200e-01	-1.360090e-02	-2.381585e-01
1.392951e-01	-1.001573e-02	-1.067979e-01
-2.500976e-01	-6.224669e-03	3.339423e-01
-2.705042e-01	-2.403111e-03	1.715825e+00
2.000258e+00	2.098788e-03	2.003116e+00
2.269999e+00	6.065435e-03	7.013605e-01
2.015587e+00	1.015584e-02	5.198747e-02
1.779551e+00	1.420553e-02	-1.595872e-01
1.604585e+00	1.835434e-02	-2.953913e-01
1.474877e+00	2.249422e-02	-3.532148e-01
1.354307e+00	2.660254e-02	-3.977723e-01
1.265829e+00	3.054477e-02	-4.157552e-01
1.187829e+00	3.421847e-02	-4.315288e-01
1.125108e+00	3.748374e-02	-4.337601e-01
1.070415e+00	4.024199e-02	-4.363511e-01
1.024821e+00	4.242295e-02	-4.323022e-01
9.853865e-01	4.401413e-02	-4.300965e-01
9.502959e-01	4.506027e-02	-4.243135e-01
9.192758e-01	4.565784e-02	-4.207267e-01
8.882793e-01	4.593912e-02	-4.137026e-01
8.597228e-01	4.603895e-02	-4.080529e-01
8.286554e-01	4.606550e-02	-3.981840e-01
7.939302e-01	4.607659e-02	-3.857219e-01
7.575985e-01	4.608579e-02	-3.697153e-01
8.702131e-01	-2.190287e-02	-1.532413e-01
9.004019e-01	-2.191897e-02	-1.601871e-01
9.240134e-01	-2.194974e-02	-1.685026e-01
9.399651e-01	-2.197871e-02	-1.760699e-01
9.450349e-01	-2.197743e-02	-1.841578e-01
9.476826e-01	-2.190982e-02	-1.912200e-01
9.408632e-01	-2.173763e-02	-1.989386e-01
9.329749e-01	-2.142026e-02	-2.054682e-01
9.174168e-01	-2.091834e-02	-2.139693e-01
9.002425e-01	-2.019618e-02	-2.214856e-01
8.733603e-01	-1.922605e-02	-2.326603e-01
8.410842e-01	-1.799544e-02	-2.417224e-01
7.927785e-01	-1.650341e-02	-2.548003e-01
7.309850e-01	-1.477431e-02	-2.607523e-01
6.458326e-01	-1.283061e-02	-2.679355e-01
5.188562e-01	-1.072748e-02	-2.482502e-01
3.229779e-01	-8.480734e-03	-1.931109e-01
4.505843e-02	-6.163701e-03	-3.454643e-02
-3.550770e-01	-3.712891e-03	4.741157e-01
-3.154190e-01	-1.242598e-03	2.000722e+00
2.208290e+00	1.663658e-03	2.211446e+00
2.447792e+00	4.216631e-03	7.562931e-01
2.147072e+00	6.836731e-03	5.537882e-02
1.881383e+00	9.413642e-03	-1.687193e-01
1.687925e+00	1.203200e-02	-3.107335e-01
1.545611e+00	1.462041e-02	-3.701547e-01
1.415261e+00	1.716395e-02	-4.156751e-01
1.318615e+00	1.958098e-02	-4.330925e-01
1.233037e+00	2.181255e-02	-4.479525e-01
1.163111e+00	2.377877e-02	-4.484114e-01
1.101342e+00	2.542587e-02	-4.489585e-01
1.048938e+00	2.671734e-02	-4.424759e-01
1.003073e+00	2.765098e-02	-4.378163e-01
9.622472e-01	2.825803e-02	-4.296498e-01
9.264649e-01	2.859964e-02	-4.240169e-01
8.919711e-01	2.875721e-02	-4.154220e-01
8.612698e-01	2.881226e-02	-4.087872e-01
8.292729e-01	2.882885e-02	-3.984808e-01
7.944173e-01	2.883916e-02	-3.859586e-01
7.583024e-01	2.884784e-02	-3.700588e-01
8.713562e-01	-6.391772e-03	-1.534426e-01
9.015432e-01	-6.402614e-03	-1.603901e-01
9.249666e-01	-6.424444e-03	-1.686765e-01
9.405059e-01	-6.450508e-03	-1.761712e-01
9.449532e-01	-6.468455e-03	-1.841419e-01
9.468063e-01	-6.463304e-03	-1.910432e-01
9.390417e-01	-6.419764e-03	-1.985534e-01
9.300702e-01	-6.323372e-03	-2.048285e-01
9.132963e-01	-6.161956e-03	-2.130083e-01
8.947689e-01	-5.926360e-03	-2.201389e-01
8.664012e-01	-5.611199e-03	-2.308064e-01
8.324752e-01	-5.216119e-03	-2.392483e-01
7.823501e-01	-4.743612e-03	-2.514486e-01
7.184467e-01	-4.202552e-03	-2.562797e-01
6.308459e-01	-3.599353e-03	-2.617180e-01
5.007201e-01	-2.949226e-03	-2.395729e-01
3.009362e-01	-2.254729e-03	-1.799320e-01
1.747264e-02	-1.536897e-03	-1.339633e-02
-3.858247e-01	-7.758292e-04	5.151716e-01
-3.285366e-01	-8.636168e-06	2.083927e+00
2.268401e+00	8.892514e-04	2.271643e+00
2.498194e+00	1.668269e-03	7.718657e-01
2.183389e+00	2.452172e-03	5.631555e-02
1.908548e+00	3.202034e-03	-1.711555e-01
1.709247e+00	3.937462e-03	-3.146586e-01
1.562869e+00	4.634800e-03	-3.742879e-01
1.429406e+00	5.289401e-03	-4.198297e-01
1.330258e+00	5.882540e-03	-4.369167e-01
1.242522e+00	6.404714e-03	-4.513983e-01
1.170700e+00	6.843687e-03	-4.513373e-01
1.107216e+00	7.194550e-03	-4.513529e-01
1.053276e+00	7.456419e-03	-4.443058e-01
1.006055e+00	7.635406e-03	-4.391176e-01
9.640957e-01	7.743792e-03	-4.304752e-01
9.274471e-01	7.798942e-03	-4.244664e-01
8.924007e-01	7.821114e-03	-4.156220e-01
8.614676e-01	7.828817e-03	-4.088811e-01
8.295106e-01	7.834906e-03	-3.985950e-01
7.948401e-01	7.843089e-03	-3.861640e-01
7.589267e-01	7.849712e-03	-3.703635e-01
8.720327e-01	-2.266069e-03	-1.535618e-01
9.022514e-01	-2.271983e-03	-1.605161e-01
9.256309e-01	-2.284411e-03	-1.687976e-01
9.410312e-01	-2.300934e-03	-1.762696e-01
9.452491e-01	-2.316545e-03	-1.841996e-01
9.468001e-01	-2.325037e-03	-1.910419e-01
9.386719e-01	-2.319954e-03	-1.984752e-01
9.292850e-01	-2.295248e-03	-2.046556e-01
9.120478e-01	-2.245856e-03	-2.127171e-01
8.930089e-01	-2.167963e-03	-2.197059e-01
8.640806e-01	-2.059191e-03	-2.301882e-01
8.295314e-01	-1.918963e-03	-2.384022e-01
7.787139e-01	-1.747722e-03	-2.502799e-01
7.140032e-01	-1.548260e-03	-2.546947e-01
6.254600e-01	-1.322598e-03	-2.594836e-01
4.941248e-01	-1.076279e-03	-2.364173e-01
2.928450e-01	-8.103788e-04	-1.750942e-01
7.278483e-03	-5.333649e-04	-5.580434e-03
-3.972269e-01	-2.382121e-04	5.303964e-01
-3.333996e-01	5.980659e-05	2.114774e+00
2.290565e+00	4.077786e-04	2.293839e+00
2.516597e+00	7.077225e-04	7.775517e-01
2.196484e+00	1.006531e-03	5.665329e-02
1.918187e+00	1.288533e-03	-1.720198e-01
1.716672e+00	1.560582e-03	-3.160256e-01
1.568757e+00	1.813713e-03	-3.756980e-01
1.434129e+00	2.046510e-03	-4.212168e-01
1.334061e+00	2.252989e-03	-4.381658e-01
1.245554e+00	2.430873e-03	-4.524998e-01
1.173076e+00	2.577208e-03	-4.522530e-01
1.109017e+00	2.691652e-03	-4.520870e-01
1.054579e+00	2.775159e-03	-4.448554e-01
1.006932e+00	2.830846e-03	-4.395008e-01
9.646313e-01	2.863634e-03	-4.307143e-01
9.277353e-01	2.879846e-03	-4.245983e-01
8.925503e-01	2.886522e-03	-4.156917e-01
8.615889e-01	2.889816e-03	-4.089387e-01
8.296951e-01	2.893674e-03	-3.986836e-01
7.951309e-01	2.898590e-03	-3.863053e-01
7.593166e-01	2.902291e-03	-3.705537e-01
8.723487e-01	-9.682457e-04	-1.536174e-01
9.025873e-01	-9.710535e-04	-1.605758e-01
9.259541e-01	-9.770559e-04	-1.688565e-01
9.413002e-01	-9.852775e-04	-1.763200e-01
9.454243e-01	-9.935254e-04	-1.842337e-01
9.468496e-01	-9.990390e-04	-1.910519e-01
9.385690e-01	-9.989167e-04	-1.984535e-01
9.290070e-01	-9.904325e-04	-2.045943e-01
9.115737e-01	-9.712762e-04	-2.126065e-01
8.923170e-01	-9.396576e-04	-2.195357e-01
8.631481e-01	-8.943762e-04	-2.299398e-01
8.283286e-01	-8.349714e-04	-2.380565e-01
7.772075e-01	-7.614091e-04	-2.497957e-01
7.121398e-01	-6.746848e-04	-2.540300e-01
6.231770e-01	-5.755122e-04	-2.585364e-01
4.913034e-01	-4.662435e-04	-2.350674e-01
2.893581e-01	-3.473625e-04	-1.730094e-01
2.861894e-03	-2.227725e-04	-2.194222e-03
-4.021818e-01	-8.951125e-05	5.370124e-01
-3.355138e-01	4.525582e-05	2.128184e+00
2.300172e+00	2.024410e-04	2.303459e+00
2.524526e+00	3.374075e-04	7.800015e-01
2.202080e+00	4.710267e-04	5.679764e-02
1.922264e+00	5.960568e-04	-1.723855e-01
1.719775e+00	7.153992e-04	-3.165968e-01
1.571183e+00	8.250703e-04	-3.762790e-01
1.436045e+00	9.245420e-04	-4.217797e-01
1.335579e+00	1.011452e-03	-4.386644e-01
1.246744e+00	1.085135e-03	-4.529319e-01
1.173990e+00	1.144715e-03	-4.526056e-01
1.109695e+00	1.190425e-03	-4.523637e-01
1.055058e+00	1.223021e-03	-4.450572e-01
1.007243e+00	1.244097e-03	-4.396364e-01
9.648105e-01	1.255919e-03	-4.307943e-01
9.278229e-01	1.261256e-03	-4.246384e-01
8.925915e-01	1.263098e-03	-4.157109e-01
8.616291e-01	1.263998e-03	-4.089577e-01
8.297715e-01	1.265517e-03	-3.987203e-01
7.952601e-01	1.267711e-03	-3.863681e-01
7.594934e-01	1.269416e-03	-3.706400e-01
8.725039e-01	-4.718136e-04	-1.536447e-01
9.027541e-01	-4.732423e-04	-1.606055e-01
9.261173e-01	-4.763017e-04	-1.688863e-01
9.414398e-01	-4.805467e-04	-1.763461e-01
9.455206e-01	-4.849335e-04	-1.842525e-01
9.468866e-01	-4.881069e-04	-1.910594e-01
9.385334e-01	-4.886129e-04	-1.984459e-01
9.288878e-01	-4.850809e-04	-2.045681e-01
9.113603e-01	-4.763432e-04	-2.125568e-01
8.919987e-01	-4.614811e-04	-2.194574e-01
8.627131e-01	-4.398519e-04	-2.298239e-01
8.277614e-01	-4.111590e-04	-2.378935e-01
7.764908e-01	-3.753065e-04	-2.495654e-01
7.112460e-01	-3.327040e-04	-2.537112e-01
6.220742e-01	-2.836389e-04	-2.580789e-01
4.899318e-01	-2.292383e-04	-2.344111e-01
2.876545e-01	-1.697383e-04	-1.719908e-01
6.960869e-04	-1.071259e-04	-5.336918e-04
-4.046168e-01	-3.997337e-05	5.402637e-01
-3.365532e-01	2.802196e-05	2.134777e+00
2.304886e+00	1.072909e-04	2.308180e+00
2.528401e+00	1.752012e-04	7.811989e-01
2.204802e+00	2.421784e-04	5.686783e-02
1.924233e+00	3.045195e-04	-1.725620e-01
1.721261e+00	3.636309e-04	-3.168704e-01
1.572334e+00	4.175292e-04	-3.765545e-01
1.436945e+00	4.659888e-04	-4.220439e-01
1.336284e+00	5.079286e-04	-4.388958e-01
1.247289e+00	5.431292e-04	-4.531300e-01
1.174404e+00	5.712877e-04	-4.527651e-01
1.109997e+00	5.926373e-04	-4.524868e-01
1.055266e+00	6.076493e-04	-4.451452e-01
1.007375e+00	6.171729e-04	-4.396938e-01
9.648821e-01	6.223525e-04	-4.308263e-01
9.278537e-01	6.245445e-04	-4.246525e-01
8.926028e-01	6.251923e-04	-4.157162e-01
8.616423e-01	6.255139e-04	-4.089640e-01
8.298042e-01	6.262394e-04	-3.987360e-01
7.953201e-01	6.273529e-04	-3.863972e-01
7.595778e-01	6.282261e-04	-3.706812e-01
8.725885e-01	-2.478883e-04	-1.536596e-01
9.028434e-01	-2.486965e-04	-1.606214e-01
9.262042e-01	-2.503822e-04	-1.689021e-01
9.415147e-01	-2.526760e-04	-1.763602e-01
9.455740e-01	-2.550518e-04	-1.842629e-01
9.469099e-01	-2.568412e-04	-1.910641e-01
9.385194e-01	-2.572875e-04	-1.984430e-01
9.288305e-01	-2.556547e-04	-2.045555e-01
9.112541e-01	-2.513086e-04	-2.125320e-01
8.918377e-01	-2.437463e-04	-2.194177e-01
8.624907e-01	-2.326073e-04	-2.297647e-01
8.274695e-01	-2.177082e-04	-2.378096e-01
7.761195e-01	-1.989688e-04	-2.494461e-01
7.107804e-01	-1.765741e-04	-2.535451e-01
6.214968e-01	-1.506509e-04	-2.578393e-01
4.892106e-01	-1.217794e-04	-2.340661e-01
2.867555e-01	-9.007988e-05	-1.714532e-01
-4.500046e-04	-5.661906e-05	3.450198e-04
-4.059076e-01	-2.065141e-05	5.419872e-01
-3.371046e-01	1.581637e-05	2.138275e+00
2.307385e+00	5.834500e-05	2.310683e+00
2.530452e+00	9.475281e-05	7.818325e-01
2.206237e+00	1.305998e-04	5.690486e-02
1.925268e+00	1.638804e-04	-1.726548e-01
1.722039e+00	1.953324e-04	-3.170135e-01
1.572933e+00	2.238984e-04	-3.766981e-01
1.437411e+00	2.494716e-04	-4.221808e-01
1.336647e+00	2.715061e-04	-4.390151e-01
1.247568e+00	2.899209e-04	-4.532316e-01
1.174615e+00	3.045957e-04	-4.528464e-01
1.110151e+00	3.156897e-04	-4.525494e-01
1.055372e+00	3.234805e-04	-4.451897e-01
1.007441e+00	3.284332e-04	-4.397228e-01
9.649184e-01	3.311574e-04	-4.308425e-01
9.278699e-01	3.323650e-04	-4.246600e-01
8.926101e-01	3.328098e-04	-4.157196e-01
8.616518e-01	3.331254e-04	-4.089685e-01
8.298252e-01	3.336760e-04	-3.987461e-01
7.953564e-01	3.344068e-04	-3.864148e-01
7.596271e-01	3.349423e-04	-3.707053e-01
8.726396e-01	-1.305623e-04	-1.536686e-01
9.028959e-01	-1.309773e-04	-1.606307e-01
9.262534e-01	-1.318180e-04	-1.689111e-01
9.415559e-01	-1.328754e-04	-1.763679e-01
9.456032e-01	-1.338233e-04	-1.842686e-01
9.469236e-01	-1.343503e-04	-1.910668e-01
9.385136e-01	-1.341401e-04	-1.984417e-01
9.288017e-01	-1.328796e-04	-2.045491e-01
9.111990e-01	-1.303047e-04	-2.125192e-01
8.917530e-01	-1.262009e-04	-2.193969e-01
8.623729e-01	-1.203834e-04	-2.297333e-01
8.273137e-01	-1.127044e-04	-2.377649e-01
7.759204e-01	-1.030335e-04	-2.493821e-01
7.105296e-01	-9.138109e-05	-2.534556e-01
6.211845e-01	-7.776476e-05	-2.577098e-01
4.888191e-01	-6.248355e-05	-2.338787e-01
2.862660e-01	-4.562135e-05	-1.711606e-01
-1.075566e-03	-2.776996e-05	8.246397e-04
-4.066134e-01	-8.549719e-06	5.429297e-01
-3.374065e-01	1.095498e-05	2.140190e+00
2.308755e+00	3.370751e-05	2.312054e+00
2.531575e+00	5.317788e-05	7.821795e-01
2.207023e+00	7.232970e-05	5.692513e-02
1.925833e+00	9.008747e-05	-1.727055e-01
1.722463e+00	1.068537e-04	-3.170916e-01
1.573259e+00	1.220876e-04	-3.767762e-01
1.437664e+00	1.357596e-04	-4.222551e-01
1.336844e+00	1.475881e-04	-4.390797e-01
1.247720e+00	1.575019e-04	-4.532865e-01
1.174729e+00	1.653752e-04	-4.528904e-01
1.110234e+00	1.712272e-04	-4.525833e-01
1.055429e+00	1.751746e-04	-4.452141e-01
1.007478e+00	1.774863e-04	-4.397389e-01
9.649395e-01	1.785519e-04	-4.308519e-01
9.278809e-01	1.788320e-04	-4.246650e-01
8.926172e-01	1.787943e-04	-4.157229e-01
8.616613e-01	1.788059e-04	-4.089730e-01
8.298421e-01	1.790367e-04	-3.987543e-01
7.953821e-01	1.794044e-04	-3.864273e-01
7.596598e-01	1.796807e-04	-3.707212e-01
8.726581e-01	-9.429790e-04	-1.536719e-01
9.029145e-01	-9.447393e-04	-1.606341e-01
9.262686e-01	-9.500947e-04	-1.689139e-01
9.415641e-01	-9.415513e-04	-1.763694e-01
9.456028e-01	-9.142733e-04	-1.842685e-01
9.469145e-01	-9.459745e-04	-1.910650e-01
9.384960e-01	-8.056200e-04	-1.984380e-01
9.287754e-01	-8.657809e-04	-2.045433e-01
9.111637e-01	-6.361621e-04	-2.125109e-01
8.917073e-01	-7.200537e-04	-2.193857e-01
8.623144e-01	-4.037188e-04	-2.297177e-01
8.272386e-01	-5.051340e-04	-2.377433e-01
7.758238e-01	-1.217136e-04	-2.493510e-01
7.104058e-01	-2.385405e-04	-2.534114e-01
6.210276e-01	1.957069e-04	-2.576447e-01
4.886202e-01	4.731714e-04	-2.337836e-01
2.860159e-01	6.064263e-04	-1.710110e-01
-1.395861e-03	5.676865e-04	1.070211e-03
-4.069749e-01	5.534632e-04	5.434123e-01
-3.375610e-01	5.530724e-04	2.141170e+00
2.309454e+00	5.631291e-04	2.312755e+00
2.532148e+00	5.807440e-04	7.823566e-01
2.207423e+00	6.119173e-04	5.693546e-02
1.926121e+00	6.663755e-04	-1.727314e-01
1.722680e+00	5.479333e-04	-3.171315e-01
1.573427e+00	2.839120e-04	-3.768164e-01
1.437796e+00	-1.383348e-04	-4.222939e-01
1.336948e+00	-1.117748e-05	-4.391139e-01
1.247800e+00	-3.859799e-04	-4.533157e-01
1.174788e+00	-2.777125e-04	-4.529131e-01
1.110274e+00	-5.888772e-04	-4.525994e-01
1.055452e+00	-5.013948e-04	-4.452236e-01
1.007487e+00	-7.287669e-04	-4.397426e-01
9.649382e-01	-6.674616e-04	-4.308514e-01
9.278742e-01	-8.074245e-04	-4.246619e-01
8.926095e-01	-7.758101e-04	-4.157193e-01
8.616567e-01	-8.033860e-04	-4.089708e-01
8.298426e-01	-8.122599e-04	-3.987545e-01
7.953877e-01	-8.071093e-04	-3.864301e-01
7.596694e-01	-8.054103e-04	-3.707259e-01
8.729350e-01	-4.554537e-07	-1.537207e-01
9.033188e-01	-4.746203e-07	-1.607060e-01
9.260596e-01	-5.216434e-07	-1.688758e-01
9.406081e-01	-5.918930e-07	-1.761903e-01
9.458016e-01	-6.356845e-07	-1.843072e-01
9.448560e-01	-5.964710e-07	-1.906496e-01
9.374298e-01	-4.953366e-07	-1.982126e-01
9.262661e-01	-3.916429e-07	-2.039907e-01
9.093158e-01	-3.126917e-07	-2.120799e-01
8.886764e-01	-2.572586e-07	-2.186400e-01
8.595301e-01	-2.170825e-07	-2.289759e-01
8.236813e-01	-1.855440e-07	-2.367209e-01
7.719907e-01	-1.585405e-07	-2.481191e-01
7.062028e-01	-1.339522e-07	-2.519122e-01
6.094229e-01	-1.104882e-07	-2.528303e-01
4.810080e-01	-8.773529e-08	-2.301415e-01
2.838182e-01	-6.511461e-08	-1.696970e-01
3.848402e-04	-4.283833e-08	-2.950581e-04
-4.061319e-01	-1.994740e-08	5.422867e-01
-3.374923e-01	2.708970e-09	2.140734e+00
2.310195e+00	2.902406e-08	2.313497e+00
2.533844e+00	5.186857e-08	7.828804e-01
2.209913e+00	7.497798e-08	5.699966e-02
1.923747e+00	9.726955e-08	-1.725185e-01
1.714513e+00	1.193536e-07	-3.156281e-01
1.561311e+00	1.405157e-07	-3.739147e-01
1.433594e+00	1.605801e-07	-4.210596e-01
1.333184e+00	1.789326e-07	-4.378778e-01
1.244369e+00	1.953071e-07	-4.520691e-01
1.172136e+00	2.095773e-07	-4.518906e-01
1.107410e+00	2.225303e-07	-4.514320e-01
1.053723e+00	2.366454e-07	-4.444940e-01
1.005144e+00	2.579708e-07	-4.387202e-01
9.639506e-01	2.978074e-07	-4.304104e-01
9.259684e-01	3.710748e-07	-4.237896e-01
8.927936e-01	4.822314e-07	-4.158050e-01
8.607760e-01	6.053975e-07	-4.085528e-01
8.296476e-01	7.009330e-07	-3.986608e-01
7.957538e-01	7.533587e-07	-3.866079e-01
7.599200e-01	7.733779e-07	-3.708482e-01
8.726614e-01	9.420546e-04	-1.536725e-01
9.029183e-01	9.437715e-04	-1.606347e-01
9.262726e-01	9.490356e-04	-1.689146e-01
9.415669e-01	9.403854e-04	-1.763699e-01
9.456027e-01	9.130647e-04	-1.842685e-01
9.469121e-01	9.448434e-04	-1.910645e-01
9.384929e-01	8.046542e-04	-1.984374e-01
9.287729e-01	8.649915e-04	-2.045428e-01
9.111619e-01	6.355155e-04	-2.125105e-01
8.917061e-01	7.195122e-04	-2.193854e-01
8.623135e-01	4.032564e-04	-2.297174e-01
8.272378e-01	5.047356e-04	-2.377430e-01
7.758231e-01	1.213713e-04	-2.493508e-01
7.104051e-01	2.382503e-04	-2.534112e-01
6.210269e-01	-1.959467e-04	-2.576444e-01
4.886194e-01	-4.733620e-04	-2.337832e-01
2.860149e-01	-6.065676e-04	-1.710105e-01
-1.397018e-03	-5.677790e-04	1.071098e-03
-4.069761e-01	-5.535055e-04	5.434140e-01
-3.375616e-01	-5.530648e-04	2.141174e+00
2.309457e+00	-5.630633e-04	2.312757e+00
2.532150e+00	-5.806278e-04	7.823572e-01
2.207425e+00	-6.117498e-04	5.693549e-02
1.926122e+00	-6.661585e-04	-1.727315e-01
1.722680e+00	-5.476673e-04	-3.171317e-01
1.573428e+00	-2.835992e-04	-3.768166e-01
1.437797e+00	1.386919e-04	-4.222941e-01
1.336948e+00	1.157479e-05	-4.391141e-01
1.247800e+00	3.864124e-04	-4.533158e-01
1.174788e+00	2.781747e-04	-4.529133e-01
1.110274e+00	5.893643e-04	-4.525995e-01
1.055452e+00	5.019068e-04	-4.452238e-01
1.007487e+00	7.293141e-04	-4.397430e-01
9.649398e-01	6.680741e-04	-4.308521e-01
9.278771e-01	8.081562e-04	-4.246632e-01
8.926138e-01	7.767221e-04	-4.157213e-01
8.616617e-01	8.045060e-04	-4.089732e-01
8.298474e-01	8.135565e-04	-3.987568e-01
7.953916e-01	8.085147e-04	-3.864320e-01
7.596725e-01	8.068615e-04	-3.707274e-01
8.726468e-01	1.296868e-04	-1.536699e-01
9.029035e-01	1.300598e-04	-1.606321e-01
9.262600e-01	1.308433e-04	-1.689123e-01
9.415594e-01	1.318816e-04	-1.763685e-01
9.456023e-01	1.328599e-04	-1.842684e-01
9.469193e-01	1.334347e-04	-1.910659e-01
9.385083e-01	1.332914e-04	-1.984406e-01
9.287971e-01	1.321218e-04	-2.045481e-01
9.111957e-01	1.296410e-04	-2.125184e-01
8.917506e-01	1.256189e-04	-2.193963e-01
8.623710e-01	1.198702e-04	-2.297328e-01
8.273121e-01	1.122519e-04	-2.377644e-01
7.759189e-01	1.026382e-04	-2.493816e-01
7.105281e-01	9.104192e-05	-2.534551e-01
6.211828e-01	7.748208e-05	-2.577091e-01
4.888173e-01	6.225777e-05	-2.338779e-01
2.862639e-01	4.545365e-05	-1.711593e-01
-1.078102e-03	2.766053e-05	8.265838e-04
-4.066162e-01	8.500973e-06	5.429334e-01
-3.374077e-01	-1.094307e-05	2.140197e+00
2.308760e+00	-3.362460e-05	2.312059e+00
2.531580e+00	-5.303300e-05	7.821809e-01
2.207026e+00	-7.212203e-05	5.692522e-02
1.925836e+00	-8.981934e-05	-1.727058e-01
1.722465e+00	-1.065261e-04	-3.170920e-01
1.573261e+00	-1.217040e-04	-3.767766e-01
1.437665e+00	-1.353247e-04	-4.222555e-01
1.336845e+00	-1.471088e-04	-4.390800e-01
1.247721e+00	-1.569871e-04	-4.532868e-01
1.174730e+00	-1.648354e-04	-4.528907e-01
1.110235e+00	-1.706730e-04	-4.525835e-01
1.055430e+00	-1.746136e-04	-4.452144e-01
1.007479e+00	-1.769184e-04	-4.397394e-01
9.649422e-01	-1.779652e-04	-4.308531e-01
9.278856e-01	-1.782037e-04	-4.246671e-01
8.926243e-01	-1.780982e-04	-4.157262e-01
8.616702e-01	-1.780149e-04	-4.089772e-01
8.298512e-01	-1.781339e-04	-3.987586e-01
7.953902e-01	-1.784066e-04	-3.864313e-01
7.596668e-01	-1.786332e-04	-3.707246e-01
8.725988e-01	2.473047e-04	-1.536614e-01
9.028525e-01	2.480957e-04	-1.606230e-01
9.262105e-01	2.497764e-04	-1.689033e-01
9.415170e-01	2.520898e-04	-1.763606e-01
9.455723e-01	2.544637e-04	-1.842625e-01
9.469054e-01	2.561941e-04	-1.910632e-01
9.385138e-01	2.565658e-04	-1.984418e-01
9.288253e-01	2.548995e-04	-2.045543e-01
9.112499e-01	2.505668e-04	-2.125310e-01
8.918344e-01	2.430431e-04	-2.194169e-01
8.624881e-01	2.319537e-04	-2.297640e-01
8.274671e-01	2.171110e-04	-2.378090e-01
7.761172e-01	1.984340e-04	-2.494453e-01
7.107780e-01	1.761073e-04	-2.535442e-01