# vtk DataFile Version 2.0
OUTPUT by 3D-VPM
ASCII
DATASET UNSTRUCTURED_GRID
POINTS 820 double
9.510565e-01	0.000000e+00	-3.090170e-01
9.442611e-01	0.000000e+00	-3.078203e-01
9.267277e-01	0.000000e+00	-3.047010e-01
8.963175e-01	0.000000e+00	-2.991555e-01
8.562911e-01	0.000000e+00	-2.916579e-01
8.054250e-01	0.000000e+00	-2.817457e-01
7.470317e-01	0.000000e+00	-2.699633e-01
6.809074e-01	0.000000e+00	-2.559818e-01
6.100852e-01	0.000000e+00	-2.403847e-01
5.354138e-01	0.000000e+00	-2.229691e-01
4.593635e-01	0.000000e+00	-2.042585e-01
3.837764e-01	0.000000e+00	-1.841224e-01
3.103069e-01	0.000000e+00	-1.630077e-01
2.415927e-01	0.000000e+00	-1.409228e-01
1.782654e-01	0.000000e+00	-1.183331e-01
1.234349e-01	0.000000e+00	-9.558566e-02
7.662509e-02	0.000000e+00	-7.318920e-02
4.106998e-02	0.000000e+00	-5.193053e-02
1.528206e-02	0.000000e+00	-3.215886e-02
2.347037e-03	0.000000e+00	-1.488740e-02
0.000000e+00	0.000000e+00	0.000000e+00
1.064939e-02	0.000000e+00	1.066461e-02
3.126595e-02	0.000000e+00	1.703450e-02
6.375031e-02	0.000000e+00	1.787236e-02
1.050105e-01	0.000000e+00	1.417221e-02
1.560448e-01	0.000000e+00	4.777214e-03
2.137742e-01	0.000000e+00	-9.048270e-03
2.782849e-01	0.000000e+00	-2.799567e-02
3.468570e-01	0.000000e+00	-5.051783e-02
4.187060e-01	0.000000e+00	-7.662000e-02
4.916930e-01	0.000000e+00	-1.047585e-01
5.642168e-01	0.000000e+00	-1.343226e-01
6.348639e-01	0.000000e+00	-1.641238e-01
7.013280e-01	0.000000e+00	-1.931337e-01
7.630418e-01	0.000000e+00	-2.206893e-01
8.172084e-01	0.000000e+00	-2.454799e-01
8.641863e-01	0.000000e+00	-2.673591e-01
9.009752e-01	0.000000e+00	-2.848204e-01
9.288372e-01	0.000000e+00	-2.982085e-01
9.448555e-01	0.000000e+00	-3.059908e-01
9.510565e-01	0.000000e+00	-3.090170e-01
9.510565e-01	1.052632e+00	-3.090170e-01
9.442611e-01	1.052632e+00	-3.078203e-01
9.267277e-01	1.052632e+00	-3.047010e-01
8.963175e-01	1.052632e+00	-2.991555e-01
8.562911e-01	1.052632e+00	-2.916579e-01
8.054250e-01	1.052632e+00	-2.817457e-01
7.470317e-01	1.052632e+00	-2.699633e-01
6.809074e-01	1.052632e+00	-2.559818e-01
6.100852e-01	1.052632e+00	-2.403847e-01
5.354138e-01	1.052632e+00	-2.229691e-01
4.593635e-01	1.052632e+00	-2.042585e-01
3.837764e-01	1.052632e+00	-1.841224e-01
3.103069e-01	1.052632e+00	-1.630077e-01
2.415927e-01	1.052632e+00	-1.409228e-01
1.782654e-01	1.052632e+00	-1.183331e-01
1.234349e-01	1.052632e+00	-9.558566e-02
7.662509e-02	1.052632e+00	-7.318920e-02
4.106998e-02	1.052632e+00	-5.193053e-02
1.528206e-02	1.052632e+00	-3.215886e-02
2.347037e-03	1.052632e+00	-1.488740e-02
0.000000e+00	1.052632e+00	0.000000e+00
1.064939e-02	1.052632e+00	1.066461e-02
3.126595e-02	1.052632e+00	1.703450e-02
6.375031e-02	1.052632e+00	1.787236e-02
1.050105e-01	1.052632e+00	1.417221e-02
1.560448e-01	1.052632e+00	4.777214e-03
2.137742e-01	1.052632e+00	-9.048270e-03
2.782849e-01	1.052632e+00	-2.799567e-02
3.468570e-01	1.052632e+00	-5.051783e-02
4.187060e-01	1.052632e+00	-7.662000e-02
4.916930e-01	1.052632e+00	-1.047585e-01
5.642168e-01	1.052632e+00	-1.343226e-01
6.348639e-01	1.052632e+00	-1.641238e-01
7.013280e-01	1.052632e+00	-1.931337e-01
7.630418e-01	1.052632e+00	-2.206893e-01
8.172084e-01	1.052632e+00	-2.454799e-01
8.641863e-01	1.052632e+00	-2.673591e-01
9.009752e-01	1.052632e+00	-2.848204e-01
9.288372e-01	1.052632e+00	-2.982085e-01
9.448555e-01	1.052632e+00	-3.059908e-01
9.510565e-01	1.052632e+00	-3.090170e-01
9.510565e-01	2.105263e+00	-3.090170e-01
9.442611e-01	2.105263e+00	-3.078203e-01
9.267277e-01	2.105263e+00	-3.047010e-01
8.963175e-01	2.105263e+00	-2.991555e-01
8.562911e-01	2.105263e+00	-2.916579e-01
8.054250e-01	2.105263e+00	-2.817457e-01
7.470317e-01	2.105263e+00	-2.699633e-01
6.809074e-01	2.105263e+00	-2.559818e-01
6.100852e-01	2.105263e+00	-2.403847e-01
5.354138e-01	2.105263e+00	-2.229691e-01
4.593635e-01	2.105263e+00	-2.042585e-01
3.837764e-01	2.105263e+00	-1.841224e-01
3.103069e-01	2.105263e+00	-1.630077e-01
2.415927e-01	2.105263e+00	-1.409228e-01
1.782654e-01	2.105263e+00	-1.183331e-01
1.234349e-01	2.105263e+00	-9.558566e-02
7.662509e-02	2.105263e+00	-7.318920e-02
4.106998e-02	2.105263e+00	-5.193053e-02
1.528206e-02	2.105263e+00	-3.215886e-02
2.347037e-03	2.105263e+00	-1.488740e-02
0.000000e+00	2.105263e+00	0.000000e+00
1.064939e-02	2.105263e+00	1.066461e-02
3.126595e-02	2.105263e+00	1.703450e-02
6.375031e-02	2.105263e+00	1.787236e-02
1.050105e-01	2.105263e+00	1.417221e-02
1.560448e-01	2.105263e+00	4.777214e-03
2.137742e-01	2.105263e+00	-9.048270e-03
2.782849e-01	2.105263e+00	-2.799567e-02
3.468570e-01	2.105263e+00	-5.051783e-02
4.187060e-01	2.105263e+00	-7.662000e-02
4.916930e-01	2.105263e+00	-1.047585e-01
5.642168e-01	2.105263e+00	-1.343226e-01
6.348639e-01	2.105263e+00	-1.641238e-01
7.013280e-01	2.105263e+00	-1.931337e-01
7.630418e-01	2.105263e+00	-2.206893e-01
8.172084e-01	2.105263e+00	-2.454799e-01
8.641863e-01	2.105263e+00	-2.673591e-01
9.009752e-01	2.105263e+00	-2.848204e-01
9.288372e-01	2.105263e+00	-2.982085e-01
9.448555e-01	2.105263e+00	-3.059908e-01
9.510565e-01	2.105263e+00	-3.090170e-01
9.510565e-01	3.157895e+00	-3.090170e-01
9.442611e-01	3.157895e+00	-3.078203e-01
9.267277e-01	3.157895e+00	-3.047010e-01
8.963175e-01	3.157895e+00	-2.991555e-01
8.562911e-01	3.157895e+00	-2.916579e-01
8.054250e-01	3.157895e+00	-2.817457e-01
7.470317e-01	3.157895e+00	-2.699633e-01
6.809074e-01	3.157895e+00	-2.559818e-01
6.100852e-01	3.157895e+00	-2.403847e-01
5.354138e-01	3.157895e+00	-2.229691e-01
4.593635e-01	3.157895e+00	-2.042585e-01
3.837764e-01	3.157895e+00	-1.841224e-01
3.103069e-01	3.157895e+00	-1.630077e-01
2.415927e-01	3.157895e+00	-1.409228e-01
1.782654e-01	3.157895e+00	-1.183331e-01
1.234349e-01	3.157895e+00	-9.558566e-02
7.662509e-02	3.157895e+00	-7.318920e-02
4.106998e-02	3.157895e+00	-5.193053e-02
1.528206e-02	3.157895e+00	-3.215886e-02
2.347037e-03	3.157895e+00	-1.488740e-02
0.000000e+00	3.157895e+00	0.000000e+00
1.064939e-02	3.157895e+00	1.066461e-02
3.126595e-02	3.157895e+00	1.703450e-02
6.375031e-02	3.157895e+00	1.787236e-02
1.050105e-01	3.157895e+00	1.417221e-02
1.560448e-01	3.157895e+00	4.777214e-03
2.137742e-01	3.157895e+00	-9.048270e-03
2.782849e-01	3.157895e+00	-2.799567e-02
3.468570e-01	3.157895e+00	-5.051783e-02
4.187060e-01	3.157895e+00	-7.662000e-02
4.916930e-01	3.157895e+00	-1.047585e-01
5.642168e-01	3.157895e+00	-1.343226e-01
6.348639e-01	3.157895e+00	-1.641238e-01
7.013280e-01	3.157895e+00	-1.931337e-01
7.630418e-01	3.157895e+00	-2.206893e-01
8.172084e-01	3.157895e+00	-2.454799e-01
8.641863e-01	3.157895e+00	-2.673591e-01
9.009752e-01	3.157895e+00	-2.848204e-01
9.288372e-01	3.157895e+00	-2.982085e-01
9.448555e-01	3.157895e+00	-3.059908e-01
9.510565e-01	3.157895e+00	-3.090170e-01
9.510565e-01	4.210526e+00	-3.090170e-01
9.442611e-01	4.210526e+00	-3.078203e-01
9.267277e-01	4.210526e+00	-3.047010e-01
8.963175e-01	4.210526e+00	-2.991555e-01
8.562911e-01	4.210526e+00	-2.916579e-01
8.054250e-01	4.210526e+00	-2.817457e-01
7.470317e-01	4.210526e+00	-2.699633e-01
6.809074e-01	4.210526e+00	-2.559818e-01
6.100852e-01	4.210526e+00	-2.403847e-01
5.354138e-01	4.210526e+00	-2.229691e-01
4.593635e-01	4.210526e+00	-2.042585e-01
3.837764e-01	4.210526e+00	-1.841224e-01
3.103069e-01	4.210526e+00	-1.630077e-01
2.415927e-01	4.210526e+00	-1.409228e-01
1.782654e-01	4.210526e+00	-1.183331e-01
1.234349e-01	4.210526e+00	-9.558566e-02
7.662509e-02	4.210526e+00	-7.318920e-02
4.106998e-02	4.210526e+00	-5.193053e-02
1.528206e-02	4.210526e+00	-3.215886e-02
2.347037e-03	4.210526e+00	-1.488740e-02
0.000000e+00	4.210526e+00	0.000000e+00
1.064939e-02	4.210526e+00	1.066461e-02
3.126595e-02	4.210526e+00	1.703450e-02
6.375031e-02	4.210526e+00	1.787236e-02
1.050105e-01	4.210526e+00	1.417221e-02
1.560448e-01	4.210526e+00	4.777214e-03
2.137742e-01	4.210526e+00	-9.048270e-03
2.782849e-01	4.210526e+00	-2.799567e-02
3.468570e-01	4.210526e+00	-5.051783e-02
4.187060e-01	4.210526e+00	-7.662000e-02
4.916930e-01	4.210526e+00	-1.047585e-01
5.642168e-01	4.210526e+00	-1.343226e-01
6.348639e-01	4.210526e+00	-1.641238e-01
7.013280e-01	4.210526e+00	-1.931337e-01
7.630418e-01	4.210526e+00	-2.206893e-01
8.172084e-01	4.210526e+00	-2.454799e-01
8.641863e-01	4.210526e+00	-2.673591e-01
9.009752e-01	4.210526e+00	-2.848204e-01
9.288372e-01	4.210526e+00	-2.982085e-01
9.448555e-01	4.210526e+00	-3.059908e-01
9.510565e-01	4.210526e+00	-3.090170e-01
9.510565e-01	5.263158e+00	-3.090170e-01
9.442611e-01	5.263158e+00	-3.078203e-01
9.267277e-01	5.263158e+00	-3.047010e-01
8.963175e-01	5.263158e+00	-2.991555e-01
8.562911e-01	5.263158e+00	-2.916579e-01
8.054250e-01	5.263158e+00	-2.817457e-01
7.470317e-01	5.263158e+00	-2.699633e-01
6.809074e-01	5.263158e+00	-2.559818e-01
6.100852e-01	5.263158e+00	-2.403847e-01
5.354138e-01	5.263158e+00	-2.229691e-01
4.593635e-01	5.263158e+00	-2.042585e-01
3.837764e-01	5.263158e+00	-1.841224e-01
3.103069e-01	5.263158e+00	-1.630077e-01
2.415927e-01	5.263158e+00	-1.409228e-01
1.782654e-01	5.263158e+00	-1.183331e-01
1.234349e-01	5.263158e+00	-9.558566e-02
7.662509e-02	5.263158e+00	-7.318920e-02
4.106998e-02	5.263158e+00	-5.193053e-02
1.528206e-02	5.263158e+00	-3.215886e-02
2.347037e-03	5.263158e+00	-1.488740e-02
0.000000e+00	5.263158e+00	0.000000e+00
1.064939e-02	5.263158e+00	1.066461e-02
3.126595e-02	5.263158e+00	1.703450e-02
6.375031e-02	5.263158e+00	1.787236e-02
1.050105e-01	5.263158e+00	1.417221e-02
1.560448e-01	5.263158e+00	4.777214e-03
2.137742e-01	5.263158e+00	-9.048270e-03
2.782849e-01	5.263158e+00	-2.799567e-02
3.468570e-01	5.263158e+00	-5.051783e-02
4.187060e-01	5.263158e+00	-7.662000e-02
4.916930e-01	5.263158e+00	-1.047585e-01
5.642168e-01	5.263158e+00	-1.343226e-01
6.348639e-01	5.263158e+00	-1.641238e-01
7.013280e-01	5.263158e+00	-1.931337e-01
7.630418e-01	5.263158e+00	-2.206893e-01
8.172084e-01	5.263158e+00	-2.454799e-01
8.641863e-01	5.263158e+00	-2.673591e-01
9.009752e-01	5.263158e+00	-2.848204e-01
9.288372e-01	5.263158e+00	-2.982085e-01
9.448555e-01	5.263158e+00	-3.059908e-01
9.510565e-01	5.263158e+00	-3.090170e-01
9.510565e-01	6.315789e+00	-3.090170e-01
9.442611e-01	6.315789e+00	-3.078203e-01
[...]
CELL_DATA 760
VECTORS V double
8.414218e-01	-6.903555e-02	-1.481713e-01
8.655424e-01	-6.886197e-02	-1.539853e-01
8.835567e-01	-6.841220e-02	-1.611250e-01
8.953219e-01	-6.761778e-02	-1.677075e-01
8.977859e-01	-6.645682e-02	-1.749505e-01
8.990974e-01	-6.491169e-02	-1.814166e-01
8.920586e-01	-6.297206e-02	-1.886192e-01
8.847470e-01	-6.061387e-02	-1.948470e-01
8.704116e-01	-5.780864e-02	-2.030063e-01
8.547703e-01	-5.452376e-02	-2.102981e-01
8.294638e-01	-5.073376e-02	-2.209664e-01
7.985402e-01	-4.642441e-02	-2.294955e-01
7.511888e-01	-4.162870e-02	-2.414333e-01
6.891616e-01	-3.639779e-02	-2.458333e-01
6.025074e-01	-3.076963e-02	-2.499612e-01
4.718255e-01	-2.486707e-02	-2.257480e-01
2.701086e-01	-1.869809e-02	-1.615000e-01
-1.747333e-02	-1.242874e-02	1.339685e-02
-4.218682e-01	-5.860464e-03	5.632986e-01
-3.427219e-01	7.205954e-04	2.173906e+00
2.327178e+00	8.434314e-03	2.330504e+00
2.541825e+00	1.519959e-02	7.853464e-01
2.210644e+00	2.214630e-02	5.701851e-02
1.925592e+00	2.899417e-02	-1.726839e-01
1.720233e+00	3.598420e-02	-3.166812e-01
1.570442e+00	4.295129e-02	-3.761014e-01
1.435582e+00	4.988979e-02	-4.216437e-01
1.336760e+00	5.662120e-02	-4.390522e-01
1.250658e+00	6.302736e-02	-4.543539e-01
1.181713e+00	6.891043e-02	-4.555829e-01
1.121881e+00	7.415489e-02	-4.573310e-01
1.071621e+00	7.862364e-02	-4.520443e-01
1.027480e+00	8.225444e-02	-4.484693e-01
9.872043e-01	8.503955e-02	-4.407933e-01
9.499821e-01	8.703034e-02	-4.347801e-01
9.115292e-01	8.832476e-02	-4.245308e-01
8.743615e-01	8.905110e-02	-4.150009e-01
8.341866e-01	8.935843e-02	-4.008419e-01
7.910578e-01	8.940240e-02	-3.843264e-01
7.483064e-01	8.935673e-02	-3.651807e-01
8.268558e-01	-4.834461e-02	-1.456063e-01
8.473433e-01	-4.822030e-02	-1.507476e-01
8.618054e-01	-4.790176e-02	-1.571584e-01
8.704911e-01	-4.733793e-02	-1.630563e-01
8.702419e-01	-4.650618e-02	-1.695830e-01
8.688571e-01	-4.538767e-02	-1.753148e-01
8.588574e-01	-4.397173e-02	-1.815990e-01
8.479871e-01	-4.224336e-02	-1.867514e-01
8.293159e-01	-4.018775e-02	-1.934215e-01
8.083265e-01	-3.778970e-02	-1.988716e-01
7.765372e-01	-3.501945e-02	-2.068669e-01
7.378754e-01	-3.192748e-02	-2.120608e-01
6.815686e-01	-2.849112e-02	-2.190573e-01
6.085136e-01	-2.476548e-02	-2.170651e-01
5.087096e-01	-2.077650e-02	-2.110475e-01
3.607032e-01	-1.660726e-02	-1.725808e-01
1.372882e-01	-1.225952e-02	-8.208561e-02
-1.816056e-01	-7.846716e-03	1.392375e-01
-6.033126e-01	-3.228980e-03	8.055718e-01
-4.198935e-01	1.390767e-03	2.663410e+00
2.682714e+00	6.791197e-03	2.686548e+00
2.844273e+00	1.150745e-02	8.787936e-01
2.433386e+00	1.632177e-02	6.276365e-02
2.097433e+00	2.103124e-02	-1.880944e-01
1.860561e+00	2.579458e-02	-3.425143e-01
1.689706e+00	3.049213e-02	-4.046637e-01
1.539111e+00	3.511808e-02	-4.520509e-01
1.427847e+00	3.955431e-02	-4.689693e-01
1.330749e+00	4.372898e-02	-4.834505e-01
1.251929e+00	4.753443e-02	-4.826532e-01
1.182690e+00	5.086032e-02	-4.821196e-01
1.123355e+00	5.367790e-02	-4.738673e-01
1.070407e+00	5.593741e-02	-4.672057e-01
1.021752e+00	5.764329e-02	-4.562193e-01
9.765986e-01	5.883678e-02	-4.469617e-01
9.307664e-01	5.958871e-02	-4.334903e-01
8.867531e-01	5.998749e-02	-4.208824e-01
8.402945e-01	6.013391e-02	-4.037768e-01
7.917011e-01	6.013029e-02	-3.846389e-01
7.448094e-01	6.008698e-02	-3.634741e-01
8.205595e-01	-2.041061e-02	-1.444975e-01
8.397175e-01	-2.035877e-02	-1.493909e-01
8.526997e-01	-2.022839e-02	-1.554979e-01
8.598575e-01	-1.999234e-02	-1.610645e-01
8.580658e-01	-1.963371e-02	-1.672103e-01
8.550982e-01	-1.913582e-02	-1.725386e-01
8.434736e-01	-1.848891e-02	-1.783463e-01
8.308686e-01	-1.768767e-02	-1.829814e-01
8.103076e-01	-1.670495e-02	-1.889882e-01
7.869145e-01	-1.558466e-02	-1.936036e-01
7.528441e-01	-1.431251e-02	-2.005551e-01
7.115457e-01	-1.290332e-02	-2.044938e-01
6.517201e-01	-1.134710e-02	-2.094639e-01
5.745583e-01	-9.680032e-03	-2.049528e-01
4.697650e-01	-7.912218e-03	-1.948906e-01
3.150072e-01	-6.076108e-03	-1.507173e-01
8.299900e-02	-4.168438e-03	-4.962572e-02
-2.484108e-01	-2.237127e-03	1.904573e-01
-6.768390e-01	-2.213190e-04	9.037478e-01
-4.509369e-01	1.787062e-03	2.860320e+00
2.823827e+00	4.116289e-03	2.827862e+00
2.962008e+00	6.124369e-03	9.151700e-01
2.518017e+00	8.137947e-03	6.494650e-02
2.160737e+00	1.006188e-02	-1.937713e-01
1.910387e+00	1.195242e-02	-3.516870e-01
1.730314e+00	1.375600e-02	-4.143888e-01
1.572808e+00	1.546804e-02	-4.619481e-01
1.456143e+00	1.704789e-02	-4.782628e-01
1.354666e+00	1.847806e-02	-4.921393e-01
1.271707e+00	1.974412e-02	-4.902782e-01
1.198804e+00	2.080939e-02	-4.886884e-01
1.136487e+00	2.166970e-02	-4.794066e-01
1.080555e+00	2.230671e-02	-4.716352e-01
1.029172e+00	2.277830e-02	-4.595323e-01
9.815361e-01	2.308036e-02	-4.492215e-01
9.334893e-01	2.324499e-02	-4.347584e-01
8.875243e-01	2.330745e-02	-4.212485e-01
8.394012e-01	2.330520e-02	-4.033476e-01
7.894756e-01	2.327473e-02	-3.835577e-01
7.416745e-01	2.324793e-02	-3.619442e-01
8.181556e-01	-1.021874e-02	-1.440742e-01
8.367404e-01	-1.019769e-02	-1.488613e-01
8.489672e-01	-1.014140e-02	-1.548172e-01
8.553525e-01	-1.003558e-02	-1.602206e-01
8.527726e-01	-9.870389e-03	-1.661788e-01
8.489661e-01	-9.622486e-03	-1.713013e-01
8.364731e-01	-9.309794e-03	-1.768661e-01
8.225739e-01	-8.912323e-03	-1.811547e-01
8.009410e-01	-8.438987e-03	-1.868037e-01
7.769169e-01	-7.875102e-03	-1.911439e-01
7.414910e-01	-7.235719e-03	-1.975307e-01
6.983568e-01	-6.498155e-03	-2.007034e-01
6.367938e-01	-5.692654e-03	-2.046666e-01
5.574755e-01	-4.816484e-03	-1.988591e-01
4.500583e-01	-3.881700e-03	-1.867150e-01
2.917599e-01	-2.905741e-03	-1.395945e-01
5.528219e-02	-1.891964e-03	-3.305363e-02
-2.825660e-01	-8.584936e-04	2.166442e-01
-7.144342e-01	2.211640e-04	9.539467e-01
-4.667713e-01	1.295779e-03	2.960758e+00
2.895398e+00	2.537861e-03	2.899536e+00
3.021256e+00	3.602559e-03	9.334760e-01
2.560226e+00	4.662143e-03	6.603519e-02
2.191962e+00	5.665493e-03	-1.965715e-01
1.934700e+00	6.645243e-03	-3.561628e-01
1.749917e+00	7.565402e-03	-4.190837e-01
1.588912e+00	8.429847e-03	-4.666781e-01
1.469552e+00	9.226922e-03	-4.826672e-01
1.365880e+00	9.935657e-03	-4.962133e-01
1.281346e+00	1.055477e-02	-4.939943e-01
1.206803e+00	1.109330e-02	-4.919493e-01
1.142499e+00	1.152468e-02	-4.819430e-01
1.085249e+00	1.186280e-02	-4.736841e-01
1.032974e+00	1.210099e-02	-4.612297e-01
9.842015e-01	1.226110e-02	-4.504413e-01
9.351560e-01	1.234209e-02	-4.355346e-01
8.883137e-01	1.238606e-02	-4.216231e-01
8.394624e-01	1.239626e-02	-4.033770e-01
7.889768e-01	1.238943e-02	-3.833154e-01
7.407051e-01	1.238077e-02	-3.614711e-01
8.170280e-01	-5.650185e-03	-1.438756e-01
8.351855e-01	-5.639066e-03	-1.485846e-01
8.470023e-01	-5.607564e-03	-1.544589e-01
8.529474e-01	-5.548196e-03	-1.597701e-01
8.496116e-01	-5.452021e-03	-1.655628e-01
8.453671e-01	-5.311751e-03	-1.705751e-01
8.324898e-01	-5.140429e-03	-1.760238e-01
8.184693e-01	-4.920779e-03	-1.802507e-01
7.963071e-01	-4.655918e-03	-1.857229e-01
7.711172e-01	-4.320198e-03	-1.897170e-01
7.348490e-01	-3.929337e-03	-1.957613e-01
6.909797e-01	-3.493153e-03	-1.985833e-01
6.283656e-01	-3.021748e-03	-2.019577e-01
5.476537e-01	-2.601529e-03	-1.953555e-01
4.386742e-01	-2.058353e-03	-1.819921e-01
2.783650e-01	-1.450911e-03	-1.331856e-01
3.928457e-02	-8.416549e-04	-2.348853e-02
-3.024570e-01	-2.222380e-04	2.318947e-01
-7.363319e-01	4.253814e-04	9.831855e-01
-4.759817e-01	1.069860e-03	3.019181e+00
2.936885e+00	1.812884e-03	2.941082e+00
3.055420e+00	2.447468e-03	9.440316e-01
2.584422e+00	3.075698e-03	6.665928e-02
2.209863e+00	3.666309e-03	-1.981769e-01
1.948491e+00	4.235767e-03	-3.587016e-01
1.760868e+00	4.758889e-03	-4.217062e-01
1.597944e+00	5.244487e-03	-4.693308e-01
1.477000e+00	5.788223e-03	-4.851135e-01
1.371965e+00	6.192448e-03	-4.984239e-01
1.286316e+00	6.530781e-03	-4.959102e-01
1.210950e+00	6.811636e-03	-4.936397e-01
1.146320e+00	7.041042e-03	-4.835547e-01
1.088277e+00	7.238505e-03	-4.750056e-01
1.034943e+00	7.380913e-03	-4.621089e-01
9.854724e-01	7.479029e-03	-4.510230e-01
9.358718e-01	7.527492e-03	-4.358680e-01
8.888574e-01	7.550823e-03	-4.218812e-01
8.396025e-01	7.557245e-03	-4.034443e-01
7.887816e-01	7.553400e-03	-3.832205e-01
7.403473e-01	7.549141e-03	-3.612965e-01
8.162895e-01	-3.259950e-03	-1.437456e-01
8.342267e-01	-3.266930e-03	-1.484141e-01
8.457729e-01	-3.247683e-03	-1.542347e-01
8.513779e-01	-3.211237e-03	-1.594761e-01
8.479398e-01	-3.149602e-03	-1.652370e-01
8.435630e-01	-3.097096e-03	-1.702111e-01
8.304249e-01	-2.980084e-03	-1.755872e-01
8.156737e-01	-2.836349e-03	-1.796351e-01
7.928296e-01	-2.652329e-03	-1.849118e-01
7.673772e-01	-2.420197e-03	-1.887969e-01
7.306815e-01	-2.181054e-03	-1.946511e-01
6.862591e-01	-1.955603e-03	-1.972267e-01
6.243718e-01	-1.641780e-03	-2.006741e-01
5.432287e-01	-1.423925e-03	-1.937771e-01
4.313774e-01	-1.059748e-03	-1.789648e-01
2.693190e-01	-6.823691e-04	-1.288575e-01
2.904249e-02	-2.869395e-04	-1.736472e-02
-3.149701e-01	1.077403e-04	2.414885e-01
-7.501177e-01	5.195386e-04	1.001593e+00
-4.817743e-01	9.285299e-04	3.055923e+00
2.962895e+00	1.399255e-03	2.967129e+00
3.076756e+00	1.800085e-03	9.506239e-01
2.599437e+00	2.195520e-03	6.704656e-02
2.220678e+00	2.565116e-03	-1.991468e-01
1.956591e+00	2.914727e-03	-3.601927e-01
1.767181e+00	3.240965e-03	-4.232181e-01
1.604557e+00	3.654303e-03	-4.712732e-01
1.482646e+00	3.903752e-03	-4.869677e-01
1.375550e+00	4.153885e-03	-4.997262e-01
1.289159e+00	4.372493e-03	-4.970063e-01
1.213193e+00	4.537377e-03	-4.945540e-01
1.147950e+00	4.642916e-03	-4.842420e-01
1.089801e+00	4.737374e-03	-4.756710e-01
1.036457e+00	4.812238e-03	-4.627848e-01
9.865963e-01	4.858210e-03	-4.515374e-01
9.365314e-01	4.919700e-03	-4.361752e-01
8.890411e-01	4.928774e-03	-4.219684e-01
8.396003e-01	4.930608e-03	-4.034433e-01
7.886055e-01	4.927268e-03	-3.831350e-01
7.400528e-01	4.938163e-03	-3.611528e-01
8.181995e-01	-2.025280e-03	-1.440819e-01
8.341224e-01	-2.021255e-03	-1.483955e-01
8.450438e-01	-2.011100e-03	-1.541018e-01
8.504349e-01	-1.992554e-03	-1.592995e-01
8.473351e-01	-1.962521e-03	-1.651192e-01
8.423734e-01	-2.006615e-03	-1.699711e-01
8.284602e-01	-1.884575e-03	-1.751718e-01
8.137973e-01	-1.780004e-03	-1.792218e-01
7.906868e-01	-1.681309e-03	-1.844121e-01
7.649315e-01	-1.540583e-03	-1.881952e-01
7.287737e-01	-1.385213e-03	-1.941429e-01
6.838095e-01	-1.216052e-03	-1.965226e-01
6.209293e-01	-1.018427e-03	-1.995677e-01
5.390983e-01	-7.407879e-04	-1.923037e-01
4.266050e-01	-5.054733e-04	-1.769849e-01
2.641387e-01	-2.980828e-04	-1.263789e-01
2.239278e-02	-5.458409e-05	-1.338881e-02
-3.230859e-01	1.677454e-04	2.477109e-01
-7.590040e-01	4.287640e-04	1.013458e+00
-4.854954e-01	6.874108e-04	3.079527e+00
2.979575e+00	9.840664e-04	2.983833e+00
3.090403e+00	1.234752e-03	9.548403e-01
2.609023e+00	1.506482e-03	6.729379e-02
2.227646e+00	1.735379e-03	-1.997717e-01
1.962042e+00	1.955337e-03	-3.611961e-01
1.773652e+00	2.168590e-03	-4.247679e-01
1.607870e+00	2.394610e-03	-4.722462e-01
1.483934e+00	2.466591e-03	-4.873907e-01
1.378072e+00	2.610064e-03	-5.006425e-01
1.291153e+00	2.745399e-03	-4.977752e-01
1.214338e+00	2.857372e-03	-4.950209e-01
1.148873e+00	2.947092e-03	-4.846314e-01
1.090542e+00	3.045061e-03	-4.759941e-01
1.036697e+00	3.110076e-03	-4.628923e-01
9.871733e-01	3.230487e-03	-4.518014e-01
9.372712e-01	3.221855e-03	-4.365198e-01
8.891272e-01	3.215835e-03	-4.220092e-01
8.395867e-01	3.212850e-03	-4.034367e-01
7.889167e-01	3.209594e-03	-3.832862e-01
7.420157e-01	3.207305e-03	-3.621107e-01
8.156142e-01	-1.137008e-03	-1.436267e-01
8.334012e-01	-1.120185e-03	-1.482672e-01
8.447666e-01	-1.111902e-03	-1.540512e-01
8.501366e-01	-1.121216e-03	-1.592436e-01
8.483599e-01	-1.101441e-03	-1.653189e-01
8.420311e-01	-1.050463e-03	-1.699020e-01
8.269532e-01	-1.009713e-03	-1.748531e-01
8.127900e-01	-9.816555e-04	-1.790000e-01
7.895924e-01	-9.891570e-04	-1.841568e-01
7.634902e-01	-9.094900e-04	-1.878406e-01
7.264395e-01	-8.069079e-04	-1.935211e-01
6.813739e-01	-6.523244e-04	-1.958227e-01
6.177982e-01	-5.728204e-04	-1.985613e-01
5.355656e-01	-3.387123e-04	-1.910435e-01
4.241345e-01	-2.490283e-04	-1.759600e-01
2.610604e-01	-1.212550e-04	-1.249061e-01
1.903202e-02	1.569014e-05	-1.137939e-02
-3.272165e-01	1.574500e-04	2.508779e-01
-7.644754e-01	3.066265e-04	1.020764e+00
-4.877815e-01	4.552934e-04	3.094027e+00
2.989687e+00	6.264044e-04	2.993959e+00
3.099930e+00	7.717633e-04	9.577838e-01
2.615401e+00	9.146322e-04	6.745831e-02
2.231787e+00	1.048006e-03	-2.001430e-01
1.965291e+00	1.175275e-03	-3.617944e-01
1.774731e+00	1.294657e-03	-4.250263e-01
1.608962e+00	1.320888e-03	-4.725668e-01
1.485668e+00	1.430950e-03	-4.879602e-01
1.379185e+00	1.537275e-03	-5.010468e-01
1.292279e+00	1.597050e-03	-4.982093e-01
1.215718e+00	1.664658e-03	-4.955836e-01
1.150340e+00	1.809760e-03	-4.852506e-01
1.091987e+00	1.830067e-03	-4.766251e-01
1.039079e+00	1.871627e-03	-4.639558e-01
9.885188e-01	1.883331e-03	-4.524172e-01
9.362550e-01	1.868438e-03	-4.360465e-01
8.888270e-01	1.871416e-03	-4.218668e-01
8.394120e-01	1.893157e-03	-4.033528e-01
7.883324e-01	1.890011e-03	-3.830023e-01
7.397023e-01	1.874444e-03	-3.609818e-01
8.153762e-01	-1.352277e-03	-1.435848e-01
8.329844e-01	-1.352332e-03	-1.481931e-01
8.451893e-01	-1.353010e-03	-1.541283e-01
8.500835e-01	-1.335225e-03	-1.592337e-01
8.458555e-01	-1.293825e-03	-1.648309e-01
8.408049e-01	-1.216634e-03	-1.696546e-01
8.274115e-01	-1.120529e-03	-1.749500e-01
8.135212e-01	-1.184340e-03	-1.791610e-01
7.896919e-01	-9.656947e-04	-1.841800e-01
7.625380e-01	-1.015865e-03	-1.876063e-01
7.254155e-01	-6.601024e-04	-1.932483e-01
6.806668e-01	-7.489545e-04	-1.956194e-01
6.166368e-01	-3.145188e-04	-1.981881e-01
5.341765e-01	-3.792459e-04	-1.905480e-01
4.231018e-01	7.902544e-05	-1.755315e-01
2.592705e-01	4.177202e-04	-1.240497e-01
1.644696e-02	6.123091e-04	-9.833757e-03
-3.305227e-01	6.593370e-04	2.534127e-01
-7.672283e-01	7.049538e-04	1.024440e+00
-4.889537e-01	7.638363e-04	3.101463e+00
2.995074e+00	8.426453e-04	2.999354e+00
3.103061e+00	9.198028e-04	9.587513e-01
2.617905e+00	9.844270e-04	6.752288e-02
2.234095e+00	1.094725e-03	-2.003499e-01
1.966988e+00	1.027949e-03	-3.621068e-01
1.776048e+00	8.437878e-04	-4.253415e-01
1.609997e+00	4.620626e-04	-4.728711e-01
1.486935e+00	6.220351e-04	-4.883764e-01
1.380227e+00	3.036672e-04	-5.014253e-01
1.292762e+00	4.322153e-04	-4.983954e-01
1.216995e+00	1.363601e-04	-4.961042e-01
1.151012e+00	2.861164e-04	-4.855338e-01
1.091357e+00	2.628385e-05	-4.763501e-01
1.037483e+00	8.157242e-05	-4.632429e-01
9.871504e-01	-1.364290e-04	-4.517910e-01
9.370194e-01	-7.875563e-05	-4.364025e-01
8.896362e-01	-9.321400e-05	-4.222508e-01
8.402967e-01	-9.917776e-05	-4.037779e-01
7.882340e-01	-9.407852e-05	-3.829545e-01
7.396318e-01	-9.298909e-05	-3.609473e-01
8.156235e-01	4.490757e-05	-1.436283e-01
8.334490e-01	4.590297e-05	-1.482757e-01
8.440816e-01	2.509472e-05	-1.539263e-01
8.485939e-01	4.728634e-05	-1.589547e-01
8.459106e-01	4.480099e-05	-1.648416e-01
8.390242e-01	4.334914e-05	-1.692953e-01
8.265757e-01	4.133867e-05	-1.747733e-01
8.104654e-01	4.151384e-05	-1.784880e-01
7.873912e-01	8.325992e-05	-1.836434e-01
7.594531e-01	7.070865e-05	-1.868473e-01
7.229148e-01	6.160857e-05	-1.925821e-01
6.769036e-01	2.774871e-05	-1.945379e-01
6.124350e-01	2.856435e-07	-1.968376e-01
5.300859e-01	3.736663e-06	-1.890889e-01
4.110230e-01	3.545494e-05	-1.705204e-01
2.509886e-01	2.987837e-06	-1.200872e-01
1.350037e-02	6.369315e-06	-8.071974e-03
-3.296002e-01	8.848156e-06	2.527054e-01
-7.672850e-01	9.922758e-06	1.024516e+00
-4.892508e-01	9.985727e-06	3.103348e+00
2.997421e+00	9.336642e-06	3.001704e+00
3.106055e+00	8.341637e-06	9.596762e-01
2.621294e+00	6.880865e-06	6.761029e-02
2.232356e+00	4.590451e-06	-2.001940e-01
1.960036e+00	3.703676e-05	-3.608270e-01
1.764805e+00	3.332970e-05	-4.226489e-01
1.605997e+00	-1.600242e-07	-4.716961e-01
1.483257e+00	5.254094e-05	-4.871685e-01
1.376825e+00	4.013879e-05	-5.001896e-01
1.290135e+00	2.848506e-05	-4.973825e-01
1.213862e+00	1.986086e-05	-4.948270e-01
1.149037e+00	-2.470889e-05	-4.847006e-01
1.089130e+00	-2.216110e-05	-4.753777e-01
1.036934e+00	-2.391845e-05	-4.629980e-01
9.856657e-01	-2.336906e-05	-4.511114e-01
9.371807e-01	-2.377543e-05	-4.364776e-01
8.883368e-01	-2.295714e-05	-4.216341e-01
8.393216e-01	-4.638426e-05	-4.033093e-01
7.886818e-01	-2.608616e-05	-3.831721e-01
7.398691e-01	-2.723358e-05	-3.610632e-01
8.152091e-01	1.473107e-03	-1.435553e-01
8.343585e-01	1.473262e-03	-1.484375e-01
8.448714e-01	1.474446e-03	-1.540703e-01
8.496726e-01	1.458304e-03	-1.591567e-01
8.459327e-01	1.419207e-03	-1.648459e-01
8.408651e-01	1.432066e-03	-1.696667e-01
8.274381e-01	1.293195e-03	-1.749557e-01
8.129074e-01	1.354998e-03	-1.790258e-01
7.893124e-01	1.113079e-03	-1.840915e-01
7.628220e-01	1.137417e-03	-1.876762e-01
7.259752e-01	7.878922e-04	-1.933974e-01
6.814865e-01	8.004496e-04	-1.958550e-01
6.169845e-01	3.689443e-04	-1.982998e-01
5.336735e-01	4.590031e-04	-1.903686e-01
4.230465e-01	-3.642827e-05	-1.755086e-01
2.598654e-01	-3.776445e-04	-1.243343e-01
1.631944e-02	-5.755597e-04	-9.757513e-03
-3.306196e-01	-6.013711e-04	2.534870e-01
-7.672654e-01	-6.531351e-04	1.024489e+00
-4.889486e-01	-7.474341e-04	3.101431e+00
2.994989e+00	-8.348545e-04	2.999269e+00
3.102949e+00	-8.907500e-04	9.587166e-01
2.617779e+00	-9.886957e-04	6.751964e-02
2.234943e+00	-1.104675e-03	-2.004260e-01
1.967502e+00	-1.044747e-03	-3.622013e-01
1.775376e+00	-8.350286e-04	-4.251808e-01
1.610352e+00	-4.920077e-04	-4.729751e-01
1.487465e+00	-6.620895e-04	-4.885506e-01
1.379913e+00	-3.580886e-04	-5.013113e-01
1.292506e+00	-4.233232e-04	-4.982968e-01
1.216332e+00	-1.456185e-04	-4.958337e-01
1.150465e+00	-2.479960e-04	-4.853030e-01
1.091369e+00	-3.349310e-05	-4.763554e-01
1.037464e+00	-1.320156e-04	-4.632344e-01
9.871537e-01	-2.170767e-05	-4.517925e-01
9.370250e-01	-5.485449e-05	-4.364051e-01
8.891912e-01	-2.895822e-05	-4.220396e-01
8.399482e-01	-2.028331e-05	-4.036104e-01
7.894531e-01	-2.470220e-05	-3.835468e-01
7.394560e-01	-2.567398e-05	-3.608616e-01
8.155976e-01	1.272445e-03	-1.436237e-01
8.333636e-01	1.268599e-03	-1.482605e-01
8.446880e-01	1.280729e-03	-1.540369e-01
8.500367e-01	1.274524e-03	-1.592249e-01
8.463413e-01	1.163601e-03	-1.649255e-01
8.413677e-01	1.139941e-03	-1.697681e-01
8.276113e-01	1.099954e-03	-1.749923e-01
8.131585e-01	1.041517e-03	-1.790811e-01
7.902548e-01	1.009902e-03	-1.843113e-01
7.637453e-01	9.245185e-04	-1.879033e-01
7.273490e-01	8.294752e-04	-1.937633e-01
6.823737e-01	7.528772e-04	-1.961100e-01
6.174151e-01	6.662573e-04	-1.984382e-01
5.356966e-01	5.111620e-04	-1.910903e-01
4.248175e-01	3.706607e-04	-1.762434e-01
2.611670e-01	2.578982e-04	-1.249571e-01
1.871057e-02	1.036314e-04	-1.118719e-02
-3.277161e-01	-5.252278e-05	2.512609e-01
-7.634935e-01	-2.143060e-04	1.019453e+00
-4.872479e-01	-3.742535e-04	3.090643e+00
2.990576e+00	-5.577655e-04	2.994849e+00
3.098908e+00	-7.135753e-04	9.574680e-01
2.614283e+00	-8.667065e-04	6.742948e-02
2.231473e+00	-1.009140e-03	-2.001148e-01
1.965725e+00	-1.179677e-03	-3.618743e-01
1.774435e+00	-1.303589e-03	-4.249552e-01
1.608243e+00	-1.418428e-03	-4.723556e-01
1.485326e+00	-1.555286e-03	-4.878480e-01
1.379844e+00	-1.646253e-03	-5.012862e-01
1.292843e+00	-1.717102e-03	-4.984267e-01
1.216080e+00	-1.776841e-03	-4.957311e-01
1.150389e+00	-1.860594e-03	-4.852711e-01
1.090806e+00	-1.891181e-03	-4.761095e-01
1.036958e+00	-1.906575e-03	-4.630086e-01
9.870502e-01	-1.924684e-03	-4.517451e-01
9.369449e-01	-1.942549e-03	-4.363678e-01
8.891750e-01	-1.858721e-03	-4.220319e-01
8.395269e-01	-1.867602e-03	-4.034080e-01
7.883781e-01	-1.886279e-03	-3.830245e-01
7.397203e-01	-1.884067e-03	-3.609905e-01
8.158545e-01	2.124522e-03	-1.436690e-01
8.336696e-01	2.120252e-03	-1.483150e-01
8.447906e-01	2.113816e-03	-1.540556e-01
8.529088e-01	2.014890e-03	-1.597629e-01
8.484749e-01	1.982922e-03	-1.653413e-01
8.419802e-01	1.946417e-03	-1.698917e-01
8.289654e-01	1.866981e-03	-1.752786e-01
8.141742e-01	1.771936e-03	-1.793048e-01
7.909029e-01	1.647131e-03	-1.844625e-01
7.651906e-01	1.531557e-03	-1.882589e-01
7.282208e-01	1.365969e-03	-1.939956e-01
6.836611e-01	1.264746e-03	-1.964800e-01
6.203154e-01	1.044235e-03	-1.993704e-01
5.380824e-01	8.358568e-04	-1.919413e-01