# vtk DataFile Version 2.0
OUTPUT by 3D-VPM
ASCII
DATASET UNSTRUCTURED_GRID
POINTS 820 double
9.510565e-01	0.000000e+00	-3.090170e-01
9.442611e-01	0.000000e+00	-3.078203e-01
9.267277e-01	0.000000e+00	-3.047010e-01
8.963175e-01	0.000000e+00	-2.991555e-01
8.562911e-01	0.000000e+00	-2.916579e-01
8.054250e-01	0.000000e+00	-2.817457e-01
7.470317e-01	0.000000e+00	-2.699633e-01
6.809074e-01	0.000000e+00	-2.559818e-01
6.100852e-01	0.000000e+00	-2.403847e-01
5.354138e-01	0.000000e+00	-2.229691e-01
4.593635e-01	0.000000e+00	-2.042585e-01
3.837764e-01	0.000000e+00	-1.841224e-01
3.103069e-01	0.000000e+00	-1.630077e-01
2.415927e-01	0.000000e+00	-1.409228e-01
1.782654e-01	0.000000e+00	-1.183331e-01
1.234349e-01	0.000000e+00	-9.558566e-02
7.662509e-02	0.000000e+00	-7.318920e-02
4.106998e-02	0.000000e+00	-5.193053e-02
1.528206e-02	0.000000e+00	-3.215886e-02
2.347037e-03	0.000000e+00	-1.488740e-02
0.000000e+00	0.000000e+00	0.000000e+00
1.064939e-02	0.000000e+00	1.066461e-02
3.126595e-02	0.000000e+00	1.703450e-02
6.375031e-02	0.000000e+00	1.787236e-02
1.050105e-01	0.000000e+00	1.417221e-02
1.560448e-01	0.000000e+00	4.777214e-03
2.137742e-01	0.000000e+00	-9.048270e-03
2.782849e-01	0.000000e+00	-2.799567e-02
3.468570e-01	0.000000e+00	-5.051783e-02
4.187060e-01	0.000000e+00	-7.662000e-02
4.916930e-01	0.000000e+00	-1.047585e-01
5.642168e-01	0.000000e+00	-1.343226e-01
6.348639e-01	0.000000e+00	-1.641238e-01
7.013280e-01	0.000000e+00	-1.931337e-01
7.630418e-01	0.000000e+00	-2.206893e-01
8.172084e-01	0.000000e+00	-2.454799e-01
8.641863e-01	0.000000e+00	-2.673591e-01
9.009752e-01	0.000000e+00	-2.848204e-01
9.288372e-01	0.000000e+00	-2.982085e-01
9.448555e-01	0.000000e+00	-3.059908e-01
9.510565e-01	0.000000e+00	-3.090170e-01
9.510565e-01	1.052632e+00	-3.090170e-01
9.442611e-01	1.052632e+00	-3.078203e-01
9.267277e-01	1.052632e+00	-3.047010e-01
8.963175e-01	1.052632e+00	-2.991555e-01
8.562911e-01	1.052632e+00	-2.916579e-01
8.054250e-01	1.052632e+00	-2.817457e-01
7.470317e-01	1.052632e+00	-2.699633e-01
6.809074e-01	1.052632e+00	-2.559818e-01
6.100852e-01	1.052632e+00	-2.403847e-01
5.354138e-01	1.052632e+00	-2.229691e-01
4.593635e-01	1.052632e+00	-2.042585e-01
3.837764e-01	1.052632e+00	-1.841224e-01
3.103069e-01	1.052632e+00	-1.630077e-01
2.415927e-01	1.052632e+00	-1.409228e-01
1.782654e-01	1.052632e+00	-1.183331e-01
1.234349e-01	1.052632e+00	-9.558566e-02
7.662509e-02	1.052632e+00	-7.318920e-02
4.106998e-02	1.052632e+00	-5.193053e-02
1.528206e-02	1.052632e+00	-3.215886e-02
2.347037e-03	1.052632e+00	-1.488740e-02
0.000000e+00	1.052632e+00	0.000000e+00
1.064939e-02	1.052632e+00	1.066461e-02
3.126595e-02	1.052632e+00	1.703450e-02
6.375031e-02	1.052632e+00	1.787236e-02
1.050105e-01	1.052632e+00	1.417221e-02
1.560448e-01	1.052632e+00	4.777214e-03
2.137742e-01	1.052632e+00	-9.048270e-03
2.782849e-01	1.052632e+00	-2.799567e-02
3.468570e-01	1.052632e+00	-5.051783e-02
4.187060e-01	1.052632e+00	-7.662000e-02
4.916930e-01	1.052632e+00	-1.047585e-01
5.642168e-01	1.052632e+00	-1.343226e-01
6.348639e-01	1.052632e+00	-1.641238e-01
7.013280e-01	1.052632e+00	-1.931337e-01
7.630418e-01	1.052632e+00	-2.206893e-01
8.172084e-01	1.052632e+00	-2.454799e-01
8.641863e-01	1.052632e+00	-2.673591e-01
9.009752e-01	1.052632e+00	-2.848204e-01
9.288372e-01	1.052632e+00	-2.982085e-01
9.448555e-01	1.052632e+00	-3.059908e-01
9.510565e-01	1.052632e+00	-3.090170e-01
9.510565e-01	2.105263e+00	-3.090170e-01
9.442611e-01	2.105263e+00	-3.078203e-01
9.267277e-01	2.105263e+00	-3.047010e-01
8.963175e-01	2.105263e+00	-2.991555e-01
8.562911e-01	2.105263e+00	-2.916579e-01
8.054250e-01	2.105263e+00	-2.817457e-01
7.470317e-01	2.105263e+00	-2.699633e-01
6.809074e-01	2.105263e+00	-2.559818e-01
6.100852e-01	2.105263e+00	-2.403847e-01
5.354138e-01	2.105263e+00	-2.229691e-01
4.593635e-01	2.105263e+00	-2.042585e-01
3.837764e-01	2.105263e+00	-1.841224e-01
3.103069e-01	2.105263e+00	-1.630077e-01
2.415927e-01	2.105263e+00	-1.409228e-01
1.782654e-01	2.105263e+00	-1.183331e-01
1.234349e-01	2.105263e+00	-9.558566e-02
7.662509e-02	2.105263e+00	-7.318920e-02
4.106998e-02	2.105263e+00	-5.193053e-02
1.528206e-02	2.105263e+00	-3.215886e-02
2.347037e-03	2.105263e+00	-1.488740e-02
0.000000e+00	2.105263e+00	0.000000e+00
1.064939e-02	2.105263e+00	1.066461e-02
3.126595e-02	2.105263e+00	1.703450e-02
6.375031e-02	2.105263e+00	1.787236e-02
1.050105e-01	2.105263e+00	1.417221e-02
1.560448e-01	2.105263e+00	4.777214e-03
2.137742e-01	2.105263e+00	-9.048270e-03
2.782849e-01	2.105263e+00	-2.799567e-02
3.468570e-01	2.105263e+00	-5.051783e-02
4.187060e-01	2.105263e+00	-7.662000e-02
4.916930e-01	2.105263e+00	-1.047585e-01
5.642168e-01	2.105263e+00	-1.343226e-01
6.348639e-01	2.105263e+00	-1.641238e-01
7.013280e-01	2.105263e+00	-1.931337e-01
7.630418e-01	2.105263e+00	-2.206893e-01
8.172084e-01	2.105263e+00	-2.454799e-01
8.641863e-01	2.105263e+00	-2.673591e-01
9.009752e-01	2.105263e+00	-2.848204e-01
9.288372e-01	2.105263e+00	-2.982085e-01
9.448555e-01	2.105263e+00	-3.059908e-01
9.510565e-01	2.105263e+00	-3.090170e-01
9.510565e-01	3.157895e+00	-3.090170e-01
9.442611e-01	3.157895e+00	-3.078203e-01
9.267277e-01	3.157895e+00	-3.047010e-01
8.963175e-01	3.157895e+00	-2.991555e-01
8.562911e-01	3.157895e+00	-2.916579e-01
8.054250e-01	3.157895e+00	-2.817457e-01
7.470317e-01	3.157895e+00	-2.699633e-01
6.809074e-01	3.157895e+00	-2.559818e-01
6.100852e-01	3.157895e+00	-2.403847e-01
5.354138e-01	3.157895e+00	-2.229691e-01
4.593635e-01	3.157895e+00	-2.042585e-01
3.837764e-01	3.157895e+00	-1.841224e-01
3.103069e-01	3.157895e+00	-1.630077e-01
2.415927e-01	3.157895e+00	-1.409228e-01
1.782654e-01	3.157895e+00	-1.183331e-01
1.234349e-01	3.157895e+00	-9.558566e-02
7.662509e-02	3.157895e+00	-7.318920e-02
4.106998e-02	3.157895e+00	-5.193053e-02
1.528206e-02	3.157895e+00	-3.215886e-02
2.347037e-03	3.157895e+00	-1.488740e-02
0.000000e+00	3.157895e+00	0.000000e+00
1.064939e-02	3.157895e+00	1.066461e-02
3.126595e-02	3.157895e+00	1.703450e-02
6.375031e-02	3.157895e+00	1.787236e-02
1.050105e-01	3.157895e+00	1.417221e-02
1.560448e-01	3.157895e+00	4.777214e-03
2.137742e-01	3.157895e+00	-9.048270e-03
2.782849e-01	3.157895e+00	-2.799567e-02
3.468570e-01	3.157895e+00	-5.051783e-02
4.187060e-01	3.157895e+00	-7.662000e-02
4.916930e-01	3.157895e+00	-1.047585e-01
5.642168e-01	3.157895e+00	-1.343226e-01
6.348639e-01	3.157895e+00	-1.641238e-01
7.013280e-01	3.157895e+00	-1.931337e-01
7.630418e-01	3.157895e+00	-2.206893e-01
8.172084e-01	3.157895e+00	-2.454799e-01
8.641863e-01	3.157895e+00	-2.673591e-01
9.009752e-01	3.157895e+00	-2.848204e-01
9.288372e-01	3.157895e+00	-2.982085e-01
9.448555e-01	3.157895e+00	-3.059908e-01
9.510565e-01	3.157895e+00	-3.090170e-01
9.510565e-01	4.210526e+00	-3.090170e-01
9.442611e-01	4.210526e+00	-3.078203e-01
9.267277e-01	4.210526e+00	-3.047010e-01
8.963175e-01	4.210526e+00	-2.991555e-01
8.562911e-01	4.210526e+00	-2.916579e-01
8.054250e-01	4.210526e+00	-2.817457e-01
7.470317e-01	4.210526e+00	-2.699633e-01
6.809074e-01	4.210526e+00	-2.559818e-01
6.100852e-01	4.210526e+00	-2.403847e-01
5.354138e-01	4.210526e+00	-2.229691e-01
4.593635e-01	4.210526e+00	-2.042585e-01
3.837764e-01	4.210526e+00	-1.841224e-01
3.103069e-01	4.210526e+00	-1.630077e-01
2.415927e-01	4.210526e+00	-1.409228e-01
1.782654e-01	4.210526e+00	-1.183331e-01
1.234349e-01	4.210526e+00	-9.558566e-02
7.662509e-02	4.210526e+00	-7.318920e-02
4.106998e-02	4.210526e+00	-5.193053e-02
1.528206e-02	4.210526e+00	-3.215886e-02
2.347037e-03	4.210526e+00	-1.488740e-02
0.000000e+00	4.210526e+00	0.000000e+00
1.064939e-02	4.210526e+00	1.066461e-02
3.126595e-02	4.210526e+00	1.703450e-02
6.375031e-02	4.210526e+00	1.787236e-02
1.050105e-01	4.210526e+00	1.417221e-02
1.560448e-01	4.210526e+00	4.777214e-03
2.137742e-01	4.210526e+00	-9.048270e-03
2.782849e-01	4.210526e+00	-2.799567e-02
3.468570e-01	4.210526e+00	-5.051783e-02
4.187060e-01	4.210526e+00	-7.662000e-02
4.916930e-01	4.210526e+00	-1.047585e-01
5.642168e-01	4.210526e+00	-1.343226e-01
6.348639e-01	4.210526e+00	-1.641238e-01
7.013280e-01	4.210526e+00	-1.931337e-01
7.630418e-01	4.210526e+00	-2.206893e-01
8.172084e-01	4.210526e+00	-2.454799e-01
8.641863e-01	4.210526e+00	-2.673591e-01
9.009752e-01	4.210526e+00	-2.848204e-01
9.288372e-01	4.210526e+00	-2.982085e-01
9.448555e-01	4.210526e+00	-3.059908e-01
9.510565e-01	4.210526e+00	-3.090170e-01
9.510565e-01	5.263158e+00	-3.090170e-01
9.442611e-01	5.263158e+00	-3.078203e-01
9.267277e-01	5.263158e+00	-3.047010e-01
8.963175e-01	5.263158e+00	-2.991555e-01
8.562911e-01	5.263158e+00	-2.916579e-01
8.054250e-01	5.263158e+00	-2.817457e-01
7.470317e-01	5.263158e+00	-2.699633e-01
6.809074e-01	5.263158e+00	-2.559818e-01
6.100852e-01	5.263158e+00	-2.403847e-01
5.354138e-01	5.263158e+00	-2.229691e-01
4.593635e-01	5.263158e+00	-2.042585e-01
3.837764e-01	5.263158e+00	-1.841224e-01
3.103069e-01	5.263158e+00	-1.630077e-01
2.415927e-01	5.263158e+00	-1.409228e-01
1.782654e-01	5.263158e+00	-1.183331e-01
1.234349e-01	5.263158e+00	-9.558566e-02
7.662509e-02	5.263158e+00	-7.318920e-02
4.106998e-02	5.263158e+00	-5.193053e-02
1.528206e-02	5.263158e+00	-3.215886e-02
2.347037e-03	5.263158e+00	-1.488740e-02
0.000000e+00	5.263158e+00	0.000000e+00
1.064939e-02	5.263158e+00	1.066461e-02
3.126595e-02	5.263158e+00	1.703450e-02
6.375031e-02	5.263158e+00	1.787236e-02
1.050105e-01	5.263158e+00	1.417221e-02
1.560448e-01	5.263158e+00	4.777214e-03
2.137742e-01	5.263158e+00	-9.048270e-03
2.782849e-01	5.263158e+00	-2.799567e-02
3.468570e-01	5.263158e+00	-5.051783e-02
4.187060e-01	5.263158e+00	-7.662000e-02
4.916930e-01	5.263158e+00	-1.047585e-01
5.642168e-01	5.263158e+00	-1.343226e-01
6.348639e-01	5.263158e+00	-1.641238e-01
7.013280e-01	5.263158e+00	-1.931337e-01
7.630418e-01	5.263158e+00	-2.206893e-01
8.172084e-01	5.263158e+00	-2.454799e-01
8.641863e-01	5.263158e+00	-2.673591e-01
9.009752e-01	5.263158e+00	-2.848204e-01
9.288372e-01	5.263158e+00	-2.982085e-01
9.448555e-01	5.263158e+00	-3.059908e-01
9.510565e-01	5.263158e+00	-3.090170e-01
9.510565e-01	6.315789e+00	-3.090170e-01
9.442611e-01	6.315789e+00	-3.078203e-01
[...]
CELL_DATA 760
VECTORS V double
8.414609e-01	-6.898305e-02	-1.481782e-01
8.655925e-01	-6.880958e-02	-1.539943e-01
8.836212e-01	-6.836016e-02	-1.611367e-01
8.954033e-01	-6.756636e-02	-1.677228e-01
8.978862e-01	-6.640630e-02	-1.749700e-01
8.992181e-01	-6.486234e-02	-1.814410e-01
8.922005e-01	-6.292419e-02	-1.886492e-01
8.849113e-01	-6.056787e-02	-1.948832e-01
8.706001e-01	-5.776498e-02	-2.030503e-01
8.549327e-01	-5.448310e-02	-2.103381e-01
8.297192e-01	-5.069333e-02	-2.210344e-01
7.988909e-01	-4.639225e-02	-2.295963e-01
7.515220e-01	-4.160194e-02	-2.415404e-01
6.895510e-01	-3.637705e-02	-2.459722e-01
6.029657e-01	-3.075547e-02	-2.501514e-01
4.723772e-01	-2.485981e-02	-2.260120e-01
2.707776e-01	-1.869799e-02	-1.618999e-01
-1.663774e-02	-1.243590e-02	1.275621e-02
-4.209402e-01	-5.874983e-03	5.620594e-01
-3.423315e-01	6.988909e-04	2.171429e+00
2.325437e+00	8.404422e-03	2.328760e+00
2.540418e+00	1.516272e-02	7.849116e-01
2.209671e+00	2.210246e-02	5.699341e-02
1.924898e+00	2.894368e-02	-1.726217e-01
1.719717e+00	3.592712e-02	-3.165862e-01
1.570046e+00	4.288779e-02	-3.760068e-01
1.435275e+00	4.981990e-02	-4.215534e-01
1.336516e+00	5.654498e-02	-4.389722e-01
1.250473e+00	6.294482e-02	-4.542868e-01
1.181579e+00	6.882180e-02	-4.555315e-01
1.121785e+00	7.406070e-02	-4.572918e-01
1.071551e+00	7.852432e-02	-4.520148e-01
1.027428e+00	8.215058e-02	-4.484464e-01
9.871674e-01	8.493189e-02	-4.407768e-01
9.499587e-01	8.691971e-02	-4.347693e-01
9.115176e-01	8.821198e-02	-4.245255e-01
8.743603e-01	8.893692e-02	-4.150004e-01
8.341942e-01	8.924348e-02	-4.008455e-01
7.910723e-01	8.928715e-02	-3.843335e-01
7.483254e-01	8.924143e-02	-3.651899e-01
8.269049e-01	-4.831743e-02	-1.456149e-01
8.474072e-01	-4.819324e-02	-1.507590e-01
8.618868e-01	-4.787501e-02	-1.571733e-01
8.705917e-01	-4.731170e-02	-1.630752e-01
8.703632e-01	-4.648069e-02	-1.696066e-01
8.690008e-01	-4.536316e-02	-1.753438e-01
8.590251e-01	-4.394848e-02	-1.816345e-01
8.481814e-01	-4.222169e-02	-1.867942e-01
8.295404e-01	-4.016805e-02	-1.934739e-01
8.085101e-01	-3.777244e-02	-1.989168e-01
7.768478e-01	-3.500982e-02	-2.069497e-01
7.383177e-01	-3.191606e-02	-2.121880e-01
6.819811e-01	-2.848297e-02	-2.191898e-01
6.089964e-01	-2.476105e-02	-2.172373e-01
5.092776e-01	-2.077621e-02	-2.112832e-01
3.613844e-01	-1.661137e-02	-1.729068e-01
1.381111e-01	-1.226824e-02	-8.257765e-02
-1.805826e-01	-7.860160e-03	1.384532e-01
-6.021833e-01	-3.247266e-03	8.040639e-01
-4.194198e-01	1.367711e-03	2.660405e+00
2.680601e+00	6.762668e-03	2.684432e+00
2.842559e+00	1.147424e-02	8.782639e-01
2.432194e+00	1.628389e-02	6.273289e-02
2.096576e+00	2.098891e-02	-1.880175e-01
1.859914e+00	2.574788e-02	-3.423953e-01
1.689201e+00	3.044125e-02	-4.045428e-01
1.538707e+00	3.506320e-02	-4.519323e-01
1.427515e+00	3.949568e-02	-4.688604e-01
1.330484e+00	4.366693e-02	-4.833540e-01
1.251722e+00	4.747079e-02	-4.825735e-01
1.182527e+00	5.079144e-02	-4.820532e-01
1.123224e+00	5.360543e-02	-4.738118e-01
1.070299e+00	5.586207e-02	-4.671585e-01
1.021667e+00	5.756572e-02	-4.561810e-01
9.765338e-01	5.875755e-02	-4.469320e-01
9.307213e-01	5.950838e-02	-4.334693e-01
8.867263e-01	5.990650e-02	-4.208697e-01
8.402845e-01	6.005261e-02	-4.037720e-01
7.917055e-01	6.004891e-02	-3.846411e-01
7.448245e-01	6.000562e-02	-3.634815e-01
8.206182e-01	-2.041395e-02	-1.445079e-01
8.397920e-01	-2.036224e-02	-1.494042e-01
8.527928e-01	-2.023140e-02	-1.555149e-01
8.599710e-01	-1.999597e-02	-1.610858e-01
8.582013e-01	-1.963759e-02	-1.672367e-01
8.552577e-01	-1.914024e-02	-1.725708e-01
8.436593e-01	-1.849405e-02	-1.783855e-01
8.310836e-01	-1.769356e-02	-1.830288e-01
8.105556e-01	-1.671187e-02	-1.890461e-01
7.872094e-01	-1.559855e-02	-1.936762e-01
7.531767e-01	-1.432783e-02	-2.006438e-01
7.119148e-01	-1.291371e-02	-2.045999e-01
6.521502e-01	-1.135884e-02	-2.096021e-01
5.750643e-01	-9.693166e-03	-2.051333e-01
4.703622e-01	-7.926843e-03	-1.951384e-01
3.157248e-01	-6.092335e-03	-1.510606e-01
8.386711e-02	-4.186366e-03	-5.014477e-02
-2.473303e-01	-2.256815e-03	1.896289e-01
-6.756453e-01	-2.428695e-04	9.021539e-01
-4.504357e-01	1.763637e-03	2.857141e+00
2.821588e+00	4.090677e-03	2.825620e+00
2.960189e+00	6.096871e-03	9.146080e-01
2.516750e+00	8.108570e-03	6.491382e-02
2.159825e+00	1.003074e-02	-1.936895e-01
1.909699e+00	1.191957e-02	-3.515604e-01
1.729778e+00	1.372159e-02	-4.142605e-01
1.572383e+00	1.543226e-02	-4.618233e-01
1.455800e+00	1.701106e-02	-4.781502e-01
1.354417e+00	1.844066e-02	-4.920487e-01
1.271487e+00	1.970598e-02	-4.901934e-01
1.198597e+00	2.076494e-02	-4.886041e-01
1.136334e+00	2.162946e-02	-4.793423e-01
1.080434e+00	2.226569e-02	-4.715826e-01
1.029079e+00	2.273668e-02	-4.594908e-01
9.814681e-01	2.303848e-02	-4.491903e-01
9.334441e-01	2.320295e-02	-4.347374e-01
8.875000e-01	2.326517e-02	-4.212369e-01
8.393956e-01	2.326330e-02	-4.033449e-01
7.894859e-01	2.323223e-02	-3.835627e-01
7.416963e-01	2.320552e-02	-3.619548e-01
8.182260e-01	-1.023737e-02	-1.440866e-01
8.367776e-01	-1.021646e-02	-1.488679e-01
8.490608e-01	-1.016065e-02	-1.548343e-01
8.554735e-01	-1.005592e-02	-1.602433e-01
8.529104e-01	-9.904065e-03	-1.662056e-01
8.491316e-01	-9.641279e-03	-1.713347e-01
8.366635e-01	-9.326493e-03	-1.769063e-01
8.227938e-01	-8.927604e-03	-1.812031e-01
8.012750e-01	-8.453394e-03	-1.868816e-01
7.772104e-01	-7.888666e-03	-1.912161e-01
7.417564e-01	-7.248164e-03	-1.976014e-01
6.987495e-01	-6.510628e-03	-2.008163e-01
6.372444e-01	-5.705375e-03	-2.048114e-01
5.580011e-01	-4.830412e-03	-1.990466e-01
4.506766e-01	-3.897001e-03	-1.869714e-01
2.925019e-01	-2.926529e-03	-1.399495e-01
5.617898e-02	-1.908915e-03	-3.358983e-02
-2.814505e-01	-8.891095e-04	2.157889e-01
-7.132019e-01	1.909246e-04	9.523012e-01
-4.662537e-01	1.265587e-03	2.957476e+00
2.893086e+00	2.507037e-03	2.897220e+00
3.019376e+00	3.570367e-03	9.328952e-01
2.558916e+00	4.641964e-03	6.600140e-02
2.191018e+00	5.642987e-03	-1.964869e-01
1.933988e+00	6.620531e-03	-3.560316e-01
1.749362e+00	7.538863e-03	-4.189507e-01
1.588472e+00	8.401822e-03	-4.665488e-01
1.469199e+00	9.190593e-03	-4.825511e-01
1.365597e+00	9.905955e-03	-4.961105e-01
1.281050e+00	1.052284e-02	-4.938800e-01
1.206613e+00	1.106333e-02	-4.918719e-01
1.142413e+00	1.149541e-02	-4.819064e-01
1.085123e+00	1.183494e-02	-4.736289e-01
1.032875e+00	1.207504e-02	-4.611858e-01
9.841297e-01	1.223844e-02	-4.504085e-01
9.351035e-01	1.232484e-02	-4.355102e-01
8.882885e-01	1.236582e-02	-4.216112e-01
8.394512e-01	1.237443e-02	-4.033716e-01
7.889465e-01	1.236724e-02	-3.833007e-01
7.407345e-01	1.235852e-02	-3.614855e-01
8.171083e-01	-5.656825e-03	-1.438898e-01
8.352970e-01	-5.645646e-03	-1.486045e-01
8.471516e-01	-5.614760e-03	-1.544861e-01
8.534574e-01	-5.554973e-03	-1.598657e-01
8.496636e-01	-5.457794e-03	-1.655729e-01
8.452487e-01	-5.333432e-03	-1.705512e-01
8.326220e-01	-5.145996e-03	-1.760518e-01
8.186521e-01	-4.927478e-03	-1.802910e-01
7.965320e-01	-4.663069e-03	-1.857753e-01
7.713864e-01	-4.321790e-03	-1.897832e-01
7.351673e-01	-3.936731e-03	-1.958461e-01
6.913524e-01	-3.500329e-03	-1.986904e-01
6.288155e-01	-3.028314e-03	-2.021023e-01
5.481979e-01	-2.607477e-03	-1.955497e-01
4.393789e-01	-2.041971e-03	-1.822844e-01
2.791283e-01	-1.459683e-03	-1.335508e-01
4.031928e-02	-8.529469e-04	-2.410720e-02
-3.009776e-01	-2.354664e-04	2.307604e-01
-7.351517e-01	3.966381e-04	9.816097e-01
-4.754753e-01	1.040056e-03	3.015969e+00
2.934540e+00	1.780799e-03	2.938734e+00
3.054190e+00	2.427115e-03	9.436515e-01
2.583394e+00	3.051597e-03	6.663276e-02
2.208839e+00	3.638579e-03	-1.980850e-01
1.947723e+00	4.204559e-03	-3.585602e-01
1.760276e+00	4.706193e-03	-4.215644e-01
1.597365e+00	5.210627e-03	-4.691609e-01
1.476641e+00	5.754411e-03	-4.849954e-01
1.371771e+00	6.158386e-03	-4.983533e-01
1.286093e+00	6.496466e-03	-4.958243e-01
1.210776e+00	6.782473e-03	-4.935690e-01
1.146194e+00	7.006584e-03	-4.835016e-01
1.088200e+00	7.204384e-03	-4.749722e-01
1.034924e+00	7.347814e-03	-4.621004e-01
9.855411e-01	7.429796e-03	-4.510544e-01
9.358858e-01	7.494114e-03	-4.358745e-01
8.887247e-01	7.516453e-03	-4.218182e-01
8.395304e-01	7.522441e-03	-4.034097e-01
7.887676e-01	7.519252e-03	-3.832138e-01
7.403602e-01	7.514940e-03	-3.613028e-01
8.163501e-01	-3.265727e-03	-1.437563e-01
8.343035e-01	-3.258554e-03	-1.484277e-01
8.458665e-01	-3.239081e-03	-1.542518e-01
8.514618e-01	-3.199914e-03	-1.594919e-01
8.484084e-01	-3.146591e-03	-1.653283e-01
8.436885e-01	-3.086235e-03	-1.702364e-01
8.303977e-01	-2.972965e-03	-1.755815e-01
8.159158e-01	-2.830449e-03	-1.796884e-01
7.930932e-01	-2.646379e-03	-1.849733e-01
7.676747e-01	-2.413859e-03	-1.888701e-01
7.310203e-01	-2.171650e-03	-1.947414e-01
6.866410e-01	-1.940763e-03	-1.973364e-01
6.248053e-01	-1.622802e-03	-2.008134e-01
5.434285e-01	-1.402638e-03	-1.938483e-01
4.319918e-01	-1.045582e-03	-1.792197e-01
2.706083e-01	-6.730097e-04	-1.294743e-01
3.003598e-02	-2.892499e-04	-1.795874e-02
-3.134627e-01	1.137099e-04	2.403327e-01
-7.483462e-01	4.992463e-04	9.992276e-01
-4.812225e-01	9.050045e-04	3.052424e+00
2.961174e+00	1.370970e-03	2.965406e+00
3.075088e+00	1.790064e-03	9.501086e-01
2.597890e+00	2.166390e-03	6.700664e-02
2.219559e+00	2.531689e-03	-1.990464e-01
1.955345e+00	2.877260e-03	-3.599633e-01
1.766625e+00	3.200124e-03	-4.230850e-01
1.604389e+00	3.491907e-03	-4.712239e-01
1.482289e+00	3.865569e-03	-4.868506e-01
1.375261e+00	4.083882e-03	-4.996211e-01
1.288925e+00	4.327127e-03	-4.969160e-01
1.213002e+00	4.492871e-03	-4.944762e-01
1.147798e+00	4.599563e-03	-4.841782e-01
1.089693e+00	4.693474e-03	-4.756236e-01
1.036153e+00	4.767228e-03	-4.626493e-01
9.864862e-01	4.812056e-03	-4.514870e-01
9.367837e-01	4.845358e-03	-4.362927e-01
8.889819e-01	4.879501e-03	-4.219402e-01
8.395895e-01	4.881402e-03	-4.034381e-01
7.886141e-01	4.878713e-03	-3.831392e-01
7.400741e-01	4.875640e-03	-3.611632e-01
8.159043e-01	-2.037513e-03	-1.436778e-01
8.337329e-01	-2.033476e-03	-1.483262e-01
8.450795e-01	-2.023294e-03	-1.541083e-01
8.511184e-01	-2.004751e-03	-1.594275e-01
8.473663e-01	-1.975614e-03	-1.651253e-01
8.421974e-01	-2.001552e-03	-1.699356e-01
8.286668e-01	-1.921543e-03	-1.752155e-01
8.139960e-01	-1.789514e-03	-1.792656e-01
7.909057e-01	-1.692071e-03	-1.844631e-01
7.651551e-01	-1.551827e-03	-1.882502e-01
7.289810e-01	-1.396501e-03	-1.941981e-01
6.840542e-01	-1.227015e-03	-1.965930e-01
6.212887e-01	-1.029040e-03	-1.996832e-01
5.397074e-01	-7.509540e-04	-1.925210e-01
4.275065e-01	-5.396410e-04	-1.773589e-01
2.651948e-01	-3.085391e-04	-1.268842e-01
2.354953e-02	-9.209973e-05	-1.408044e-02
-3.212873e-01	1.580969e-04	2.463319e-01
-7.568796e-01	4.301287e-04	1.010622e+00
-4.849045e-01	6.855188e-04	3.075779e+00
2.978103e+00	9.804018e-04	2.982359e+00
3.088799e+00	1.217103e-03	9.543448e-01
2.607314e+00	1.464988e-03	6.724973e-02
2.226416e+00	1.691809e-03	-1.996614e-01
1.961126e+00	1.940855e-03	-3.610275e-01
1.770787e+00	2.172601e-03	-4.240815e-01
1.607512e+00	2.349182e-03	-4.721411e-01
1.484787e+00	2.447576e-03	-4.876710e-01
1.377799e+00	2.590611e-03	-5.005431e-01
1.291250e+00	2.725608e-03	-4.978126e-01
1.214190e+00	2.837522e-03	-4.949605e-01
1.148755e+00	2.927582e-03	-4.845817e-01
1.090443e+00	3.026648e-03	-4.759511e-01
1.036646e+00	3.063600e-03	-4.628693e-01
9.868018e-01	3.226182e-03	-4.516314e-01
9.371359e-01	3.199786e-03	-4.364568e-01
8.896401e-01	3.194775e-03	-4.222527e-01
8.395330e-01	3.191853e-03	-4.034109e-01
7.885050e-01	3.188597e-03	-3.830862e-01
7.398897e-01	3.186302e-03	-3.610732e-01
8.156726e-01	-1.151368e-03	-1.436370e-01
8.334759e-01	-1.167217e-03	-1.482805e-01
8.448596e-01	-1.160371e-03	-1.540682e-01
8.502456e-01	-1.150247e-03	-1.592641e-01
8.484464e-01	-1.112010e-03	-1.653357e-01
8.426364e-01	-1.086157e-03	-1.700241e-01
8.270983e-01	-1.075968e-03	-1.748838e-01
8.126727e-01	-1.014472e-03	-1.789742e-01
7.898792e-01	-1.021186e-03	-1.842237e-01
7.637945e-01	-9.408348e-04	-1.879154e-01
7.267747e-01	-8.394519e-04	-1.936103e-01
6.817468e-01	-7.205667e-04	-1.959298e-01
6.182206e-01	-6.151426e-04	-1.986971e-01
5.360982e-01	-3.852627e-04	-1.912335e-01
4.248038e-01	-2.886738e-04	-1.762377e-01
2.623288e-01	-1.528772e-04	-1.255130e-01
2.014474e-02	-1.029196e-05	-1.204469e-02
-3.267764e-01	1.346307e-04	2.505404e-01
-7.629986e-01	3.073473e-04	1.018792e+00
-4.871718e-01	4.568442e-04	3.090160e+00
2.987077e+00	6.306189e-04	2.991345e+00
3.096509e+00	7.567634e-04	9.567268e-01
2.613128e+00	9.044699e-04	6.739968e-02
2.231428e+00	1.042426e-03	-2.001108e-01
1.964983e+00	1.174229e-03	-3.617377e-01
1.773569e+00	1.297432e-03	-4.247480e-01
1.608500e+00	1.445230e-03	-4.724313e-01
1.485660e+00	1.440116e-03	-4.879575e-01
1.378886e+00	1.539780e-03	-5.009381e-01
1.292040e+00	1.605334e-03	-4.981171e-01
1.215531e+00	1.670801e-03	-4.955072e-01
1.150207e+00	1.815572e-03	-4.851944e-01
1.091531e+00	1.840001e-03	-4.764261e-01
1.038930e+00	1.886108e-03	-4.638890e-01
9.888620e-01	1.890929e-03	-4.525743e-01
9.361641e-01	1.895201e-03	-4.360042e-01
8.887949e-01	1.876372e-03	-4.218515e-01
8.394034e-01	1.877101e-03	-4.033486e-01
7.883408e-01	1.874830e-03	-3.830064e-01
7.397227e-01	1.891837e-03	-3.609917e-01
8.185642e-01	-1.356038e-03	-1.441462e-01
8.338136e-01	-1.356077e-03	-1.483406e-01
8.444951e-01	-1.356694e-03	-1.540017e-01
8.498300e-01	-1.338677e-03	-1.591862e-01
8.461015e-01	-1.295160e-03	-1.648788e-01
8.415943e-01	-1.243388e-03	-1.698139e-01
8.275262e-01	-1.124261e-03	-1.749743e-01
8.132485e-01	-1.185480e-03	-1.791010e-01
7.898910e-01	-9.677038e-04	-1.842265e-01
7.627686e-01	-1.016717e-03	-1.876630e-01
7.261025e-01	-6.586057e-04	-1.934313e-01
6.810583e-01	-7.458691e-04	-1.957320e-01
6.166812e-01	-3.125665e-04	-1.982023e-01
5.347537e-01	-3.784750e-04	-1.907539e-01
4.237612e-01	7.860114e-05	-1.758051e-01
2.600706e-01	4.123986e-04	-1.244325e-01
1.740937e-02	6.302796e-04	-1.040919e-02
-3.293255e-01	6.461648e-04	2.524948e-01
-7.659048e-01	6.916051e-04	1.022673e+00
-4.883975e-01	7.505214e-04	3.097935e+00
2.992588e+00	8.285997e-04	2.996864e+00
3.101041e+00	9.039021e-04	9.581272e-01
2.616500e+00	9.919310e-04	6.748664e-02
2.233091e+00	1.103839e-03	-2.002599e-01
1.966239e+00	1.007516e-03	-3.619688e-01
1.775463e+00	7.878890e-04	-4.252015e-01
1.609563e+00	4.371908e-04	-4.727434e-01
1.486146e+00	5.987568e-04	-4.881172e-01
1.379945e+00	2.504126e-04	-5.013229e-01
1.292904e+00	4.090287e-04	-4.984503e-01
1.216816e+00	1.137650e-04	-4.960312e-01
1.150941e+00	2.643879e-04	-4.855041e-01
1.091374e+00	6.316248e-06	-4.763575e-01
1.037405e+00	5.974437e-05	-4.632085e-01
9.869477e-01	-1.811272e-04	-4.516982e-01
9.369054e-01	-9.784426e-05	-4.363494e-01
8.891707e-01	-1.143372e-04	-4.220299e-01
8.395035e-01	-1.204955e-04	-4.033967e-01
7.888979e-01	-1.154431e-04	-3.832770e-01
7.424942e-01	-1.143657e-04	-3.623442e-01
8.156793e-01	4.503787e-05	-1.436381e-01
8.335190e-01	6.341691e-05	-1.482882e-01
8.441638e-01	6.298309e-05	-1.539413e-01
8.486387e-01	6.322911e-05	-1.589631e-01
8.465164e-01	6.405304e-05	-1.649596e-01
8.396157e-01	6.555683e-05	-1.694146e-01
8.263422e-01	9.714950e-05	-1.747239e-01
8.103252e-01	6.687048e-05	-1.784572e-01
7.876736e-01	1.111239e-04	-1.837093e-01
7.597113e-01	9.221177e-05	-1.869108e-01
7.231984e-01	7.746748e-05	-1.926576e-01
6.772696e-01	7.214857e-05	-1.946431e-01
6.128896e-01	9.599016e-06	-1.969837e-01
5.306539e-01	1.139380e-05	-1.892915e-01
4.117876e-01	4.142857e-05	-1.708376e-01
2.519636e-01	7.845923e-06	-1.205537e-01
1.464564e-02	7.843270e-06	-8.756738e-03
-3.282286e-01	6.402676e-06	2.516538e-01
-7.658031e-01	4.004672e-06	1.022537e+00
-4.886350e-01	1.090315e-06	3.099441e+00
2.994673e+00	-2.760569e-06	2.998952e+00
3.103809e+00	-6.482757e-06	9.589824e-01
2.619716e+00	-1.072688e-05	6.756961e-02
2.231214e+00	-1.559663e-05	-2.000916e-01
1.958410e+00	-2.182101e-05	-3.605276e-01
1.763640e+00	7.001772e-06	-4.223700e-01
1.606009e+00	-2.907790e-05	-4.716995e-01
1.482841e+00	1.917036e-05	-4.870319e-01
1.376543e+00	5.016629e-06	-5.000869e-01
1.290280e+00	-1.106132e-05	-4.974387e-01
1.213693e+00	-2.153549e-05	-4.947580e-01
1.148937e+00	-1.067069e-04	-4.846584e-01
1.088674e+00	-7.266211e-05	-4.751789e-01
1.036444e+00	-7.841517e-05	-4.627792e-01
9.860015e-01	-7.225302e-05	-4.512651e-01
9.375747e-01	-6.848467e-05	-4.366611e-01
8.882485e-01	-6.755066e-05	-4.215922e-01
8.393048e-01	-6.736565e-05	-4.033013e-01
7.886870e-01	-6.692015e-05	-3.831746e-01
7.398877e-01	-8.534806e-05	-3.610722e-01
8.154797e-01	1.463200e-03	-1.436030e-01
8.332121e-01	1.463324e-03	-1.482336e-01
8.444970e-01	1.464434e-03	-1.540021e-01
8.498016e-01	1.448082e-03	-1.591809e-01
8.460535e-01	1.406883e-03	-1.648694e-01
8.409899e-01	1.443587e-03	-1.696919e-01
8.275521e-01	1.309346e-03	-1.749798e-01
8.130169e-01	1.347342e-03	-1.790499e-01
7.895658e-01	1.087006e-03	-1.841506e-01
7.632100e-01	1.130656e-03	-1.877716e-01
7.263655e-01	7.721411e-04	-1.935014e-01
6.819484e-01	7.792867e-04	-1.959878e-01
6.175546e-01	3.460567e-04	-1.984831e-01
5.343004e-01	4.051286e-04	-1.905922e-01
4.237521e-01	-5.473447e-05	-1.758013e-01
2.607448e-01	-3.923928e-04	-1.247551e-01
1.743665e-02	-5.868822e-04	-1.042550e-02
-3.292309e-01	-6.091234e-04	2.524223e-01
-7.657611e-01	-6.857164e-04	1.022481e+00
-4.883252e-01	-7.488277e-04	3.097477e+00
2.992213e+00	-8.341105e-04	2.996489e+00
3.100686e+00	-9.175690e-04	9.580175e-01
2.616202e+00	-9.863768e-04	6.747896e-02
2.232811e+00	-1.101348e-03	-2.002349e-01
1.966756e+00	-1.039310e-03	-3.620640e-01
1.775267e+00	-8.261090e-04	-4.251545e-01
1.609809e+00	-4.526647e-04	-4.728157e-01
1.486591e+00	-6.537327e-04	-4.882636e-01
1.379550e+00	-3.227781e-04	-5.011795e-01
1.292570e+00	-4.208034e-04	-4.983212e-01
1.215624e+00	-1.450919e-04	-4.955450e-01
1.150261e+00	-3.134644e-04	-4.852169e-01
1.091768e+00	-4.102494e-05	-4.765293e-01
1.037403e+00	-1.115623e-04	-4.632074e-01
9.871089e-01	-4.080228e-06	-4.517719e-01
9.369975e-01	-6.058909e-05	-4.363923e-01
8.891984e-01	-3.233032e-05	-4.220430e-01
8.395212e-01	-2.337680e-05	-4.034052e-01
7.883475e-01	-2.771850e-05	-3.830097e-01
7.396721e-01	-2.866424e-05	-3.609670e-01
8.156584e-01	1.208005e-03	-1.436345e-01
8.334397e-01	1.204777e-03	-1.482741e-01
8.447805e-01	1.195857e-03	-1.540537e-01
8.501447e-01	1.165013e-03	-1.592452e-01
8.464620e-01	1.083314e-03	-1.649490e-01
8.414905e-01	1.034671e-03	-1.697929e-01
8.276939e-01	1.005497e-03	-1.750097e-01
8.136155e-01	9.809244e-04	-1.791818e-01
7.905155e-01	9.477009e-04	-1.843721e-01
7.638698e-01	8.697665e-04	-1.879340e-01
7.278212e-01	7.803053e-04	-1.938891e-01
6.828359e-01	7.065270e-04	-1.962428e-01
6.183116e-01	6.045929e-04	-1.987264e-01
5.362443e-01	4.786324e-04	-1.912857e-01
4.249110e-01	3.420036e-04	-1.762821e-01
2.620129e-01	2.330218e-04	-1.253618e-01
1.970665e-02	8.447149e-05	-1.178275e-02
-3.259159e-01	-6.561590e-05	2.498807e-01
-7.618706e-01	-2.218290e-04	1.017286e+00
-4.870528e-01	-3.767859e-04	3.089405e+00
2.986305e+00	-5.547956e-04	2.990573e+00
3.097242e+00	-7.058743e-04	9.569533e-01
2.613535e+00	-8.541360e-04	6.741017e-02
2.230411e+00	-9.918593e-04	-2.000196e-01
1.964214e+00	-1.121506e-03	-3.615961e-01
1.773882e+00	-1.275416e-03	-4.248228e-01
1.608201e+00	-1.384052e-03	-4.723433e-01
1.484880e+00	-1.515414e-03	-4.877014e-01
1.379470e+00	-1.573817e-03	-5.011502e-01
1.292552e+00	-1.669570e-03	-4.983145e-01
1.215064e+00	-1.723856e-03	-4.953168e-01
1.150156e+00	-1.763630e-03	-4.851729e-01
1.091508e+00	-1.821926e-03	-4.764159e-01
1.036851e+00	-1.859196e-03	-4.629607e-01
9.869892e-01	-1.835718e-03	-4.517172e-01
9.369051e-01	-1.853998e-03	-4.363493e-01
8.891530e-01	-1.761438e-03	-4.220215e-01
8.395222e-01	-1.779248e-03	-4.034057e-01
7.883889e-01	-1.782100e-03	-3.830298e-01
7.397429e-01	-1.781553e-03	-3.610016e-01
8.160215e-01	2.093191e-03	-1.436984e-01
8.339266e-01	2.092861e-03	-1.483607e-01
8.459563e-01	2.010224e-03	-1.542682e-01
8.527540e-01	1.988719e-03	-1.597339e-01
8.486112e-01	1.948394e-03	-1.653678e-01
8.423083e-01	1.905873e-03	-1.699579e-01
8.283752e-01	1.829642e-03	-1.751538e-01
8.138414e-01	1.732167e-03	-1.792315e-01
7.910752e-01	1.628592e-03	-1.845026e-01
7.654078e-01	1.496197e-03	-1.883123e-01
7.285010e-01	1.340308e-03	-1.940702e-01
6.842849e-01	1.223725e-03	-1.966593e-01
6.207132e-01	1.030634e-03	-1.994982e-01
5.382000e-01	8.533894e-04	-1.919833e-01