# vtk DataFile Version 2.0
OUTPUT by 3D-VPM
ASCII
DATASET UNSTRUCTURED_GRID
POINTS 820 double
9.510565e-01	0.000000e+00	-3.090170e-01
9.442611e-01	0.000000e+00	-3.078203e-01
9.267277e-01	0.000000e+00	-3.047010e-01
8.963175e-01	0.000000e+00	-2.991555e-01
8.562911e-01	0.000000e+00	-2.916579e-01
8.054250e-01	0.000000e+00	-2.817457e-01
7.470317e-01	0.000000e+00	-2.699633e-01
6.809074e-01	0.000000e+00	-2.559818e-01
6.100852e-01	0.000000e+00	-2.403847e-01
5.354138e-01	0.000000e+00	-2.229691e-01
4.593635e-01	0.000000e+00	-2.042585e-01
3.837764e-01	0.000000e+00	-1.841224e-01
3.103069e-01	0.000000e+00	-1.630077e-01
2.415927e-01	0.000000e+00	-1.409228e-01
1.782654e-01	0.000000e+00	-1.183331e-01
1.234349e-01	0.000000e+00	-9.558566e-02
7.662509e-02	0.000000e+00	-7.318920e-02
4.106998e-02	0.000000e+00	-5.193053e-02
1.528206e-02	0.000000e+00	-3.215886e-02
2.347037e-03	0.000000e+00	-1.488740e-02
0.000000e+00	0.000000e+00	0.000000e+00
1.064939e-02	0.000000e+00	1.066461e-02
3.126595e-02	0.000000e+00	1.703450e-02
6.375031e-02	0.000000e+00	1.787236e-02
1.050105e-01	0.000000e+00	1.417221e-02
1.560448e-01	0.000000e+00	4.777214e-03
2.137742e-01	0.000000e+00	-9.048270e-03
2.782849e-01	0.000000e+00	-2.799567e-02
3.468570e-01	0.000000e+00	-5.051783e-02
4.187060e-01	0.000000e+00	-7.662000e-02
4.916930e-01	0.000000e+00	-1.047585e-01
5.642168e-01	0.000000e+00	-1.343226e-01
6.348639e-01	0.000000e+00	-1.641238e-01
7.013280e-01	0.000000e+00	-1.931337e-01
7.630418e-01	0.000000e+00	-2.206893e-01
8.172084e-01	0.000000e+00	-2.454799e-01
8.641863e-01	0.000000e+00	-2.673591e-01
9.009752e-01	0.000000e+00	-2.848204e-01
9.288372e-01	0.000000e+00	-2.982085e-01
9.448555e-01	0.000000e+00	-3.059908e-01
9.510565e-01	0.000000e+00	-3.090170e-01
9.510565e-01	1.052632e+00	-3.090170e-01
9.442611e-01	1.052632e+00	-3.078203e-01
9.267277e-01	1.052632e+00	-3.047010e-01
8.963175e-01	1.052632e+00	-2.991555e-01
8.562911e-01	1.052632e+00	-2.916579e-01
8.054250e-01	1.052632e+00	-2.817457e-01
7.470317e-01	1.052632e+00	-2.699633e-01
6.809074e-01	1.052632e+00	-2.559818e-01
6.100852e-01	1.052632e+00	-2.403847e-01
5.354138e-01	1.052632e+00	-2.229691e-01
4.593635e-01	1.052632e+00	-2.042585e-01
3.837764e-01	1.052632e+00	-1.841224e-01
3.103069e-01	1.052632e+00	-1.630077e-01
2.415927e-01	1.052632e+00	-1.409228e-01
1.782654e-01	1.052632e+00	-1.183331e-01
1.234349e-01	1.052632e+00	-9.558566e-02
7.662509e-02	1.052632e+00	-7.318920e-02
4.106998e-02	1.052632e+00	-5.193053e-02
1.528206e-02	1.052632e+00	-3.215886e-02
2.347037e-03	1.052632e+00	-1.488740e-02
0.000000e+00	1.052632e+00	0.000000e+00
1.064939e-02	1.052632e+00	1.066461e-02
3.126595e-02	1.052632e+00	1.703450e-02
6.375031e-02	1.052632e+00	1.787236e-02
1.050105e-01	1.052632e+00	1.417221e-02
1.560448e-01	1.052632e+00	4.777214e-03
2.137742e-01	1.052632e+00	-9.048270e-03
2.782849e-01	1.052632e+00	-2.799567e-02
3.468570e-01	1.052632e+00	-5.051783e-02
4.187060e-01	1.052632e+00	-7.662000e-02
4.916930e-01	1.052632e+00	-1.047585e-01
5.642168e-01	1.052632e+00	-1.343226e-01
6.348639e-01	1.052632e+00	-1.641238e-01
7.013280e-01	1.052632e+00	-1.931337e-01
7.630418e-01	1.052632e+00	-2.206893e-01
8.172084e-01	1.052632e+00	-2.454799e-01
8.641863e-01	1.052632e+00	-2.673591e-01
9.009752e-01	1.052632e+00	-2.848204e-01
9.288372e-01	1.052632e+00	-2.982085e-01
9.448555e-01	1.052632e+00	-3.059908e-01
9.510565e-01	1.052632e+00	-3.090170e-01
9.510565e-01	2.105263e+00	-3.090170e-01
9.442611e-01	2.105263e+00	-3.078203e-01
9.267277e-01	2.105263e+00	-3.047010e-01
8.963175e-01	2.105263e+00	-2.991555e-01
8.562911e-01	2.105263e+00	-2.916579e-01
8.054250e-01	2.105263e+00	-2.817457e-01
7.470317e-01	2.105263e+00	-2.699633e-01
6.809074e-01	2.105263e+00	-2.559818e-01
6.100852e-01	2.105263e+00	-2.403847e-01
5.354138e-01	2.105263e+00	-2.229691e-01
4.593635e-01	2.105263e+00	-2.042585e-01
3.837764e-01	2.105263e+00	-1.841224e-01
3.103069e-01	2.105263e+00	-1.630077e-01
2.415927e-01	2.105263e+00	-1.409228e-01
1.782654e-01	2.105263e+00	-1.183331e-01
1.234349e-01	2.105263e+00	-9.558566e-02
7.662509e-02	2.105263e+00	-7.318920e-02
4.106998e-02	2.105263e+00	-5.193053e-02
1.528206e-02	2.105263e+00	-3.215886e-02
2.347037e-03	2.105263e+00	-1.488740e-02
0.000000e+00	2.105263e+00	0.000000e+00
1.064939e-02	2.105263e+00	1.066461e-02
3.126595e-02	2.105263e+00	1.703450e-02
6.375031e-02	2.105263e+00	1.787236e-02
1.050105e-01	2.105263e+00	1.417221e-02
1.560448e-01	2.105263e+00	4.777214e-03
2.137742e-01	2.105263e+00	-9.048270e-03
2.782849e-01	2.105263e+00	-2.799567e-02
3.468570e-01	2.105263e+00	-5.051783e-02
4.187060e-01	2.105263e+00	-7.662000e-02
4.916930e-01	2.105263e+00	-1.047585e-01
5.642168e-01	2.105263e+00	-1.343226e-01
6.348639e-01	2.105263e+00	-1.641238e-01
7.013280e-01	2.105263e+00	-1.931337e-01
7.630418e-01	2.105263e+00	-2.206893e-01
8.172084e-01	2.105263e+00	-2.454799e-01
8.641863e-01	2.105263e+00	-2.673591e-01
9.009752e-01	2.105263e+00	-2.848204e-01
9.288372e-01	2.105263e+00	-2.982085e-01
9.448555e-01	2.105263e+00	-3.059908e-01
9.510565e-01	2.105263e+00	-3.090170e-01
9.510565e-01	3.157895e+00	-3.090170e-01
9.442611e-01	3.157895e+00	-3.078203e-01
9.267277e-01	3.157895e+00	-3.047010e-01
8.963175e-01	3.157895e+00	-2.991555e-01
8.562911e-01	3.157895e+00	-2.916579e-01
8.054250e-01	3.157895e+00	-2.817457e-01
7.470317e-01	3.157895e+00	-2.699633e-01
6.809074e-01	3.157895e+00	-2.559818e-01
6.100852e-01	3.157895e+00	-2.403847e-01
5.354138e-01	3.157895e+00	-2.229691e-01
4.593635e-01	3.157895e+00	-2.042585e-01
3.837764e-01	3.157895e+00	-1.841224e-01
3.103069e-01	3.157895e+00	-1.630077e-01
2.415927e-01	3.157895e+00	-1.409228e-01
1.782654e-01	3.157895e+00	-1.183331e-01
1.234349e-01	3.157895e+00	-9.558566e-02
7.662509e-02	3.157895e+00	-7.318920e-02
4.106998e-02	3.157895e+00	-5.193053e-02
1.528206e-02	3.157895e+00	-3.215886e-02
2.347037e-03	3.157895e+00	-1.488740e-02
0.000000e+00	3.157895e+00	0.000000e+00
1.064939e-02	3.157895e+00	1.066461e-02
3.126595e-02	3.157895e+00	1.703450e-02
6.375031e-02	3.157895e+00	1.787236e-02
1.050105e-01	3.157895e+00	1.417221e-02
1.560448e-01	3.157895e+00	4.777214e-03
2.137742e-01	3.157895e+00	-9.048270e-03
2.782849e-01	3.157895e+00	-2.799567e-02
3.468570e-01	3.157895e+00	-5.051783e-02
4.187060e-01	3.157895e+00	-7.662000e-02
4.916930e-01	3.157895e+00	-1.047585e-01
5.642168e-01	3.157895e+00	-1.343226e-01
6.348639e-01	3.157895e+00	-1.641238e-01
7.013280e-01	3.157895e+00	-1.931337e-01
7.630418e-01	3.157895e+00	-2.206893e-01
8.172084e-01	3.157895e+00	-2.454799e-01
8.641863e-01	3.157895e+00	-2.673591e-01
9.009752e-01	3.157895e+00	-2.848204e-01
9.288372e-01	3.157895e+00	-2.982085e-01
9.448555e-01	3.157895e+00	-3.059908e-01
9.510565e-01	3.157895e+00	-3.090170e-01
9.510565e-01	4.210526e+00	-3.090170e-01
9.442611e-01	4.210526e+00	-3.078203e-01
9.267277e-01	4.210526e+00	-3.047010e-01
8.963175e-01	4.210526e+00	-2.991555e-01
8.562911e-01	4.210526e+00	-2.916579e-01
8.054250e-01	4.210526e+00	-2.817457e-01
7.470317e-01	4.210526e+00	-2.699633e-01
6.809074e-01	4.210526e+00	-2.559818e-01
6.100852e-01	4.210526e+00	-2.403847e-01
5.354138e-01	4.210526e+00	-2.229691e-01
4.593635e-01	4.210526e+00	-2.042585e-01
3.837764e-01	4.210526e+00	-1.841224e-01
3.103069e-01	4.210526e+00	-1.630077e-01
2.415927e-01	4.210526e+00	-1.409228e-01
1.782654e-01	4.210526e+00	-1.183331e-01
1.234349e-01	4.210526e+00	-9.558566e-02
7.662509e-02	4.210526e+00	-7.318920e-02
4.106998e-02	4.210526e+00	-5.193053e-02
1.528206e-02	4.210526e+00	-3.215886e-02
2.347037e-03	4.210526e+00	-1.488740e-02
0.000000e+00	4.210526e+00	0.000000e+00
1.064939e-02	4.210526e+00	1.066461e-02
3.126595e-02	4.210526e+00	1.703450e-02
6.375031e-02	4.210526e+00	1.787236e-02
1.050105e-01	4.210526e+00	1.417221e-02
1.560448e-01	4.210526e+00	4.777214e-03
2.137742e-01	4.210526e+00	-9.048270e-03
2.782849e-01	4.210526e+00	-2.799567e-02
3.468570e-01	4.210526e+00	-5.051783e-02
4.187060e-01	4.210526e+00	-7.662000e-02
4.916930e-01	4.210526e+00	-1.047585e-01
5.642168e-01	4.210526e+00	-1.343226e-01
6.348639e-01	4.210526e+00	-1.641238e-01
7.013280e-01	4.210526e+00	-1.931337e-01
7.630418e-01	4.210526e+00	-2.206893e-01
8.172084e-01	4.210526e+00	-2.454799e-01
8.641863e-01	4.210526e+00	-2.673591e-01
9.009752e-01	4.210526e+00	-2.848204e-01
9.288372e-01	4.210526e+00	-2.982085e-01
9.448555e-01	4.210526e+00	-3.059908e-01
9.510565e-01	4.210526e+00	-3.090170e-01
9.510565e-01	5.263158e+00	-3.090170e-01
9.442611e-01	5.263158e+00	-3.078203e-01
9.267277e-01	5.263158e+00	-3.047010e-01
8.963175e-01	5.263158e+00	-2.991555e-01
8.562911e-01	5.263158e+00	-2.916579e-01
8.054250e-01	5.263158e+00	-2.817457e-01
7.470317e-01	5.263158e+00	-2.699633e-01
6.809074e-01	5.263158e+00	-2.559818e-01
6.100852e-01	5.263158e+00	-2.403847e-01
5.354138e-01	5.263158e+00	-2.229691e-01
4.593635e-01	5.263158e+00	-2.042585e-01
3.837764e-01	5.263158e+00	-1.841224e-01
3.103069e-01	5.263158e+00	-1.630077e-01
2.415927e-01	5.263158e+00	-1.409228e-01
1.782654e-01	5.263158e+00	-1.183331e-01
1.234349e-01	5.263158e+00	-9.558566e-02
7.662509e-02	5.263158e+00	-7.318920e-02
4.106998e-02	5.263158e+00	-5.193053e-02
1.528206e-02	5.263158e+00	-3.215886e-02
2.347037e-03	5.263158e+00	-1.488740e-02
0.000000e+00	5.263158e+00	0.000000e+00
1.064939e-02	5.263158e+00	1.066461e-02
3.126595e-02	5.263158e+00	1.703450e-02
6.375031e-02	5.263158e+00	1.787236e-02
1.050105e-01	5.263158e+00	1.417221e-02
1.560448e-01	5.263158e+00	4.777214e-03
2.137742e-01	5.263158e+00	-9.048270e-03
2.782849e-01	5.263158e+00	-2.799567e-02
3.468570e-01	5.263158e+00	-5.051783e-02
4.187060e-01	5.263158e+00	-7.662000e-02
4.916930e-01	5.263158e+00	-1.047585e-01
5.642168e-01	5.263158e+00	-1.343226e-01
6.348639e-01	5.263158e+00	-1.641238e-01
7.013280e-01	5.263158e+00	-1.931337e-01
7.630418e-01	5.263158e+00	-2.206893e-01
8.172084e-01	5.263158e+00	-2.454799e-01
8.641863e-01	5.263158e+00	-2.673591e-01
9.009752e-01	5.263158e+00	-2.848204e-01
9.288372e-01	5.263158e+00	-2.982085e-01
9.448555e-01	5.263158e+00	-3.059908e-01
9.510565e-01	5.263158e+00	-3.090170e-01
9.510565e-01	6.315789e+00	-3.090170e-01
9.442611e-01	6.315789e+00	-3.078203e-01
[...]
CELL_DATA 760
VECTORS V double
8.416785e-01	-6.859765e-02	-1.482165e-01
8.658683e-01	-6.842529e-02	-1.540433e-01
8.839894e-01	-6.797922e-02	-1.612039e-01
8.958720e-01	-6.719085e-02	-1.678106e-01
8.984570e-01	-6.603878e-02	-1.750812e-01
8.998936e-01	-6.450561e-02	-1.815773e-01
8.929983e-01	-6.257908e-02	-1.888179e-01
8.858205e-01	-6.023917e-02	-1.950834e-01
8.716137e-01	-5.745755e-02	-2.032867e-01
8.561254e-01	-5.420204e-02	-2.106315e-01
8.310911e-01	-5.044458e-02	-2.213999e-01
8.004021e-01	-4.618514e-02	-2.300306e-01
7.532397e-01	-4.143162e-02	-2.420925e-01
6.915735e-01	-3.624647e-02	-2.466937e-01
6.053576e-01	-3.066761e-02	-2.511437e-01
4.752652e-01	-2.481649e-02	-2.273938e-01
2.742849e-01	-1.869987e-02	-1.639970e-01
-1.227732e-02	-1.248402e-02	9.413056e-03
-4.161245e-01	-5.971890e-03	5.556293e-01
-3.403042e-01	5.530896e-04	2.158570e+00
2.316331e+00	8.203033e-03	2.319641e+00
2.533045e+00	1.491403e-02	7.826337e-01
2.204576e+00	2.180487e-02	5.686200e-02
1.921263e+00	2.859814e-02	-1.722957e-01
1.717000e+00	3.553316e-02	-3.160859e-01
1.567953e+00	4.244637e-02	-3.755054e-01
1.433636e+00	4.933134e-02	-4.210721e-01
1.335211e+00	5.600966e-02	-4.385434e-01
1.249531e+00	6.236498e-02	-4.539446e-01
1.180826e+00	6.821037e-02	-4.552410e-01
1.121081e+00	7.340942e-02	-4.570051e-01
1.070974e+00	7.784042e-02	-4.517714e-01
1.026973e+00	8.143838e-02	-4.482478e-01
9.868080e-01	8.419236e-02	-4.406164e-01
9.496722e-01	8.616365e-02	-4.346382e-01
9.113169e-01	8.744458e-02	-4.244320e-01
8.742412e-01	8.816237e-02	-4.149438e-01
8.341460e-01	8.846524e-02	-4.008223e-01
7.910817e-01	8.850809e-02	-3.843380e-01
7.483926e-01	8.846237e-02	-3.652227e-01
8.272155e-01	-4.810425e-02	-1.456696e-01
8.478155e-01	-4.798142e-02	-1.508316e-01
8.624074e-01	-4.766606e-02	-1.572682e-01
8.712308e-01	-4.710752e-02	-1.631949e-01
8.711253e-01	-4.628369e-02	-1.697551e-01
8.698697e-01	-4.517339e-02	-1.755192e-01
8.600402e-01	-4.377050e-02	-1.818491e-01
8.493593e-01	-4.205692e-02	-1.870536e-01
8.308757e-01	-4.001944e-02	-1.937853e-01
8.100880e-01	-3.764222e-02	-1.993050e-01
7.787028e-01	-3.491522e-02	-2.074438e-01
7.403526e-01	-3.184429e-02	-2.127728e-01
6.842303e-01	-2.844021e-02	-2.199127e-01
6.116314e-01	-2.474944e-02	-2.181773e-01
5.123794e-01	-2.079746e-02	-2.125700e-01
3.650996e-01	-1.666688e-02	-1.746843e-01
1.425945e-01	-1.235842e-02	-8.525831e-02
-1.750080e-01	-7.986180e-03	1.341791e-01
-5.960199e-01	-3.410989e-03	7.958343e-01
-4.168270e-01	1.166151e-03	2.643959e+00
2.668975e+00	6.517611e-03	2.672789e+00
2.833063e+00	1.119184e-02	8.753300e-01
2.425535e+00	1.596315e-02	6.256116e-02
2.091744e+00	2.063084e-02	-1.875842e-01
1.856233e+00	2.535201e-02	-3.417177e-01
1.686296e+00	3.000889e-02	-4.038471e-01
1.536356e+00	3.459506e-02	-4.512419e-01
1.425577e+00	3.899326e-02	-4.682237e-01
1.329047e+00	4.313191e-02	-4.828321e-01
1.250518e+00	4.689705e-02	-4.821090e-01
1.181370e+00	5.020980e-02	-4.815815e-01
1.122258e+00	5.300022e-02	-4.734044e-01
1.069473e+00	5.523792e-02	-4.667980e-01
1.020989e+00	5.692628e-02	-4.558783e-01
9.760219e-01	5.810794e-02	-4.466977e-01
9.303455e-01	5.884918e-02	-4.332942e-01
8.864787e-01	5.924361e-02	-4.207522e-01
8.401593e-01	5.938811e-02	-4.037118e-01
7.916895e-01	5.938440e-02	-3.846333e-01
7.448918e-01	5.934173e-02	-3.635143e-01
8.210647e-01	-2.039352e-02	-1.445865e-01
8.403088e-01	-2.034264e-02	-1.494961e-01
8.534267e-01	-2.021372e-02	-1.556305e-01
8.607437e-01	-1.998157e-02	-1.612305e-01
8.590617e-01	-1.962850e-02	-1.674043e-01
8.562661e-01	-1.913793e-02	-1.727743e-01
8.448426e-01	-1.850149e-02	-1.786357e-01
8.324112e-01	-1.771131e-02	-1.833211e-01
8.120355e-01	-1.673793e-02	-1.893912e-01
7.891119e-01	-1.563321e-02	-1.941442e-01
7.553137e-01	-1.437431e-02	-2.012130e-01
7.141159e-01	-1.297226e-02	-2.052325e-01
6.547037e-01	-1.143753e-02	-2.104228e-01
5.780381e-01	-9.792831e-03	-2.061941e-01
4.738464e-01	-8.048001e-03	-1.965839e-01
3.198836e-01	-6.235944e-03	-1.530505e-01
8.887874e-02	-4.353351e-03	-5.314126e-02
-2.410900e-01	-2.447640e-03	1.848444e-01
-6.687453e-01	-4.587546e-04	8.929407e-01
-4.475287e-01	1.522765e-03	2.838702e+00
2.808519e+00	3.820692e-03	2.812532e+00
2.949478e+00	5.801849e-03	9.112988e-01
2.509214e+00	7.788268e-03	6.471944e-02
2.154324e+00	9.686329e-03	-1.931962e-01
1.905490e+00	1.155151e-02	-3.507855e-01
1.726446e+00	1.333077e-02	-4.134625e-01
1.569683e+00	1.502028e-02	-4.610303e-01
1.453566e+00	1.658010e-02	-4.774167e-01
1.352543e+00	1.799275e-02	-4.913679e-01
1.270147e+00	1.923027e-02	-4.896769e-01
1.197501e+00	2.027886e-02	-4.881572e-01
1.135214e+00	2.112908e-02	-4.788699e-01
1.079522e+00	2.175524e-02	-4.711842e-01
1.028351e+00	2.222299e-02	-4.591655e-01
9.808652e-01	2.252134e-02	-4.489144e-01
9.329869e-01	2.268368e-02	-4.345244e-01
8.872540e-01	2.274532e-02	-4.211201e-01
8.392890e-01	2.274330e-02	-4.032937e-01
7.895145e-01	2.271262e-02	-3.835766e-01
7.418574e-01	2.268637e-02	-3.620335e-01
8.186766e-01	-1.022039e-02	-1.441660e-01
8.373440e-01	-1.019952e-02	-1.489687e-01
8.497623e-01	-1.014449e-02	-1.549622e-01
8.563322e-01	-1.004090e-02	-1.604042e-01
8.539182e-01	-9.877890e-03	-1.664020e-01
8.502889e-01	-9.648543e-03	-1.715682e-01
8.379875e-01	-9.341509e-03	-1.771863e-01
8.242350e-01	-8.954842e-03	-1.815205e-01
8.028383e-01	-8.483032e-03	-1.872462e-01
7.790565e-01	-7.926314e-03	-1.916703e-01
7.439238e-01	-7.285269e-03	-1.981788e-01
7.012121e-01	-6.565724e-03	-2.015240e-01
6.400648e-01	-5.773090e-03	-2.057179e-01
5.612676e-01	-4.916732e-03	-2.002118e-01
4.544934e-01	-4.002872e-03	-1.885549e-01
2.970609e-01	-3.044406e-03	-1.421308e-01
6.167056e-02	-2.048314e-03	-3.687328e-02
-2.746257e-01	-1.037558e-03	2.105564e-01
-7.056566e-01	1.946876e-05	9.422265e-01
-4.630765e-01	1.071714e-03	2.937322e+00
2.878805e+00	2.288059e-03	2.882919e+00
3.007664e+00	3.330806e-03	9.292766e-01
2.550667e+00	4.368715e-03	6.578865e-02
2.185004e+00	5.352459e-03	-1.959475e-01
1.929375e+00	6.308382e-03	-3.551825e-01
1.745706e+00	7.204573e-03	-4.180750e-01
1.585515e+00	8.052168e-03	-4.656802e-01
1.466762e+00	8.827037e-03	-4.817508e-01
1.363574e+00	9.524755e-03	-4.953755e-01
1.279365e+00	1.013194e-02	-4.932304e-01
1.205148e+00	1.064544e-02	-4.912744e-01
1.141135e+00	1.106328e-02	-4.813675e-01
1.084117e+00	1.138656e-02	-4.731897e-01
1.032102e+00	1.162312e-02	-4.608402e-01
9.835272e-01	1.177931e-02	-4.501327e-01
9.346747e-01	1.187331e-02	-4.353105e-01
8.880229e-01	1.191496e-02	-4.214851e-01
8.393304e-01	1.192473e-02	-4.033136e-01
7.889693e-01	1.191798e-02	-3.833117e-01
7.408707e-01	1.190918e-02	-3.615519e-01
8.175618e-01	-5.666021e-03	-1.439696e-01
8.358684e-01	-5.655212e-03	-1.487062e-01
8.478516e-01	-5.625531e-03	-1.546138e-01
8.539429e-01	-5.568055e-03	-1.599566e-01
8.510546e-01	-5.474920e-03	-1.658440e-01
8.469375e-01	-5.341258e-03	-1.708920e-01
8.341157e-01	-5.162426e-03	-1.763676e-01
8.201829e-01	-4.935765e-03	-1.806281e-01
7.981536e-01	-4.685178e-03	-1.861535e-01
7.733863e-01	-4.358981e-03	-1.902753e-01
7.375310e-01	-3.983828e-03	-1.964758e-01
6.939633e-01	-3.561456e-03	-1.994408e-01
6.318005e-01	-3.088863e-03	-2.030617e-01
5.517388e-01	-2.680977e-03	-1.968127e-01
4.433852e-01	-2.133948e-03	-1.839465e-01
2.838901e-01	-1.567886e-03	-1.358291e-01
4.601543e-02	-9.757839e-04	-2.751297e-02
-2.939720e-01	-3.742571e-04	2.253892e-01
-7.269945e-01	2.544656e-04	9.707178e-01
-4.720532e-01	8.797624e-04	2.994262e+00
2.919241e+00	1.600931e-03	2.923413e+00
3.040973e+00	2.216509e-03	9.395680e-01
2.574295e+00	2.825910e-03	6.639807e-02
2.202361e+00	3.398762e-03	-1.975041e-01
1.942633e+00	3.950515e-03	-3.576231e-01
1.756308e+00	4.466191e-03	-4.206141e-01
1.594223e+00	4.938586e-03	-4.682379e-01
1.473968e+00	5.468619e-03	-4.841176e-01
1.369542e+00	5.846320e-03	-4.975437e-01
1.284289e+00	6.172684e-03	-4.951287e-01
1.209163e+00	6.450911e-03	-4.929114e-01
1.144686e+00	6.673316e-03	-4.828655e-01
1.087019e+00	6.870522e-03	-4.744564e-01
1.034043e+00	6.994424e-03	-4.617073e-01
9.849289e-01	7.076887e-03	-4.507742e-01
9.355941e-01	7.125477e-03	-4.357387e-01
8.885187e-01	7.148344e-03	-4.217204e-01
8.394764e-01	7.154608e-03	-4.033837e-01
7.888213e-01	7.151769e-03	-3.832398e-01
7.405098e-01	7.147608e-03	-3.613758e-01
8.168627e-01	-3.292154e-03	-1.438465e-01
8.349642e-01	-3.285359e-03	-1.485453e-01
8.466918e-01	-3.267496e-03	-1.544023e-01
8.524836e-01	-3.233148e-03	-1.596833e-01
8.492858e-01	-3.178399e-03	-1.654993e-01
8.448541e-01	-3.096703e-03	-1.704716e-01
8.317163e-01	-2.986645e-03	-1.758603e-01
8.174474e-01	-2.844744e-03	-1.800257e-01
7.950463e-01	-2.673635e-03	-1.854288e-01
7.698484e-01	-2.472239e-03	-1.894049e-01
7.335003e-01	-2.239024e-03	-1.954020e-01
6.892869e-01	-1.974269e-03	-1.980968e-01
6.277918e-01	-1.674880e-03	-2.017733e-01
5.471587e-01	-1.461888e-03	-1.951790e-01
4.363765e-01	-1.116513e-03	-1.810388e-01
2.757392e-01	-7.639131e-04	-1.319292e-01
3.617815e-02	-3.929013e-04	-2.163118e-02
-3.060898e-01	-1.571309e-05	2.346800e-01
-7.402907e-01	3.775809e-04	9.884715e-01
-4.776353e-01	7.684624e-04	3.029669e+00
2.944296e+00	1.218412e-03	2.948504e+00
3.061502e+00	1.601440e-03	9.459108e-01
2.588701e+00	1.979060e-03	6.676965e-02
2.212841e+00	2.331154e-03	-1.984439e-01
1.950779e+00	2.668646e-03	-3.591227e-01
1.762609e+00	2.985499e-03	-4.221231e-01
1.600752e+00	3.266872e-03	-4.701554e-01
1.479292e+00	3.627658e-03	-4.858661e-01
1.372746e+00	3.846726e-03	-4.987074e-01
1.286994e+00	4.039345e-03	-4.961716e-01
1.211417e+00	4.201125e-03	-4.938301e-01
1.146491e+00	4.331556e-03	-4.836268e-01
1.088426e+00	4.430584e-03	-4.750709e-01
1.035092e+00	4.499337e-03	-4.621755e-01
9.856572e-01	4.545785e-03	-4.511076e-01
9.360449e-01	4.572097e-03	-4.359487e-01
8.887353e-01	4.584018e-03	-4.218232e-01
8.394873e-01	4.586061e-03	-4.033890e-01
7.886632e-01	4.583327e-03	-3.831631e-01
7.402334e-01	4.580249e-03	-3.612410e-01
8.164214e-01	-1.998297e-03	-1.437688e-01
8.344263e-01	-1.994083e-03	-1.484496e-01
8.460133e-01	-1.982880e-03	-1.542786e-01
8.516684e-01	-1.961205e-03	-1.595306e-01
8.482629e-01	-1.920147e-03	-1.653000e-01
8.436019e-01	-1.942064e-03	-1.702189e-01
8.302174e-01	-1.868429e-03	-1.755433e-01
8.157251e-01	-1.780071e-03	-1.796464e-01
7.931260e-01	-1.671046e-03	-1.849810e-01
7.676801e-01	-1.547792e-03	-1.888714e-01
7.310228e-01	-1.406851e-03	-1.947420e-01
6.864470e-01	-1.248619e-03	-1.972806e-01
6.246368e-01	-1.090569e-03	-2.007593e-01
5.435256e-01	-8.009328e-04	-1.938830e-01
4.320199e-01	-5.864238e-04	-1.792314e-01
2.705719e-01	-3.701672e-04	-1.294569e-01
3.003674e-02	-1.426970e-04	-1.795919e-02
-3.136812e-01	9.039578e-05	2.405003e-01
-7.486538e-01	3.351401e-04	9.996383e-01
-4.811463e-01	5.788335e-04	3.051940e+00
2.960041e+00	8.594361e-04	2.964271e+00
3.074389e+00	1.098249e-03	9.498926e-01
2.597755e+00	1.333666e-03	6.700318e-02
2.219425e+00	1.553933e-03	-1.990344e-01
1.955756e+00	1.765920e-03	-3.600390e-01
1.766532e+00	1.948185e-03	-4.230625e-01
1.604015e+00	2.137121e-03	-4.711140e-01
1.481952e+00	2.213004e-03	-4.867399e-01
1.374906e+00	2.362249e-03	-4.994923e-01
1.288760e+00	2.488726e-03	-4.968527e-01
1.212822e+00	2.588503e-03	-4.944031e-01
1.147619e+00	2.663962e-03	-4.841027e-01
1.089267e+00	2.724692e-03	-4.754378e-01
1.035712e+00	2.765467e-03	-4.624525e-01
9.861129e-01	2.786825e-03	-4.513161e-01
9.363283e-01	2.873542e-03	-4.360806e-01
8.888658e-01	2.872215e-03	-4.218852e-01
8.394830e-01	2.872000e-03	-4.033869e-01
7.885557e-01	2.869672e-03	-3.831108e-01
7.400384e-01	2.867633e-03	-3.611458e-01
8.161555e-01	-1.161641e-03	-1.437220e-01
8.340613e-01	-1.159161e-03	-1.483847e-01
8.455336e-01	-1.151631e-03	-1.541911e-01
8.508662e-01	-1.151010e-03	-1.593803e-01
8.490181e-01	-1.129329e-03	-1.654472e-01
8.438544e-01	-1.100099e-03	-1.702699e-01
8.292142e-01	-1.059388e-03	-1.753312e-01
8.146354e-01	-1.002509e-03	-1.794064e-01
7.919125e-01	-1.004231e-03	-1.846980e-01
7.663798e-01	-9.240604e-04	-1.885515e-01
7.295902e-01	-8.266284e-04	-1.943604e-01
6.850677e-01	-7.370112e-04	-1.968842e-01
6.216246e-01	-6.426786e-04	-1.997912e-01
5.396030e-01	-4.290375e-04	-1.924837e-01
4.293593e-01	-3.158672e-04	-1.781276e-01
2.675722e-01	-1.910892e-04	-1.280217e-01
2.634681e-02	-5.769917e-05	-1.575295e-02
-3.183062e-01	7.904361e-05	2.440463e-01
-7.537790e-01	2.270659e-04	1.006482e+00
-4.833051e-01	3.699135e-04	3.065633e+00
2.969738e+00	5.346226e-04	2.973981e+00
3.082335e+00	6.749286e-04	9.523476e-01
2.603356e+00	8.083369e-04	6.714763e-02
2.223539e+00	9.374259e-04	-1.994034e-01
1.958655e+00	1.061421e-03	-3.605727e-01
1.768985e+00	1.178317e-03	-4.236500e-01
1.604683e+00	1.290978e-03	-4.713101e-01
1.482449e+00	1.283332e-03	-4.869029e-01
1.376337e+00	1.373864e-03	-5.000120e-01
1.289848e+00	1.432966e-03	-4.972720e-01
1.213612e+00	1.491378e-03	-4.947248e-01
1.148231e+00	1.530473e-03	-4.843608e-01
1.089787e+00	1.627460e-03	-4.756649e-01
1.035997e+00	1.644840e-03	-4.625797e-01
9.873152e-01	1.658382e-03	-4.518664e-01
9.377805e-01	1.666063e-03	-4.367570e-01
8.886969e-01	1.667576e-03	-4.218050e-01
8.394222e-01	1.678522e-03	-4.033577e-01
7.884554e-01	1.675872e-03	-3.830621e-01
7.399212e-01	1.674587e-03	-3.610886e-01
8.160053e-01	-1.443791e-03	-1.436955e-01
8.338315e-01	-1.444265e-03	-1.483438e-01
8.457863e-01	-1.446619e-03	-1.542372e-01
8.510486e-01	-1.433018e-03	-1.594145e-01
8.472259e-01	-1.404571e-03	-1.650979e-01
8.423840e-01	-1.341625e-03	-1.699732e-01
8.287047e-01	-1.196095e-03	-1.752235e-01
8.149680e-01	-1.235343e-03	-1.794796e-01
7.920478e-01	-1.053601e-03	-1.847295e-01
7.653481e-01	-1.094612e-03	-1.882977e-01
7.285766e-01	-7.356824e-04	-1.940904e-01
6.839944e-01	-7.932863e-04	-1.965758e-01
6.204070e-01	-3.511726e-04	-1.993998e-01
5.385904e-01	-4.196119e-04	-1.921225e-01
4.281549e-01	5.225548e-05	-1.776279e-01
2.658236e-01	3.847353e-04	-1.271851e-01
2.427053e-02	5.748199e-04	-1.451153e-02
-3.209436e-01	5.929286e-04	2.460684e-01
-7.567119e-01	6.373827e-04	1.010398e+00
-4.844719e-01	6.947507e-04	3.073034e+00
2.974982e+00	7.707234e-04	2.979233e+00
3.086369e+00	8.440106e-04	9.535941e-01
2.606220e+00	9.296786e-04	6.722150e-02
2.225689e+00	1.034690e-03	-1.995961e-01
1.960588e+00	9.641135e-04	-3.609285e-01
1.770465e+00	7.585257e-04	-4.240046e-01
1.605519e+00	3.759413e-04	-4.715556e-01
1.483146e+00	5.292735e-04	-4.871320e-01
1.376850e+00	1.875568e-04	-5.001985e-01
1.290244e+00	3.240302e-04	-4.974246e-01
1.214044e+00	3.476103e-05	-4.949011e-01
1.149340e+00	1.733451e-04	-4.848287e-01
1.090824e+00	-1.625545e-05	-4.761176e-01
1.036159e+00	4.520796e-05	-4.626518e-01
9.864582e-01	-9.805124e-05	-4.514742e-01
9.365095e-01	-1.318834e-04	-4.361650e-01
8.891224e-01	-1.496307e-04	-4.220070e-01
8.398143e-01	-1.579510e-04	-4.035461e-01
7.883515e-01	-1.536089e-04	-3.830116e-01
7.398416e-01	-1.525963e-04	-3.610498e-01
8.162351e-01	5.597028e-06	-1.437360e-01
8.342369e-01	5.457730e-06	-1.484159e-01
8.450591e-01	4.325318e-06	-1.541046e-01
8.497763e-01	1.565785e-05	-1.591761e-01
8.471177e-01	1.416122e-05	-1.650768e-01
8.401690e-01	1.505547e-05	-1.695263e-01
8.277175e-01	-1.386798e-05	-1.750147e-01
8.125134e-01	-1.954605e-05	-1.789391e-01
7.900733e-01	4.446639e-05	-1.842690e-01
7.621813e-01	4.221786e-05	-1.875185e-01
7.256177e-01	-2.418108e-05	-1.933021e-01
6.800718e-01	-1.868335e-05	-1.954485e-01
6.162013e-01	-1.763141e-05	-1.980481e-01
5.339887e-01	-4.441029e-06	-1.904810e-01
4.161067e-01	-1.812153e-06	-1.726295e-01
2.577009e-01	-3.228748e-06	-1.232987e-01
2.146898e-02	-4.386011e-06	-1.283646e-02
-3.198034e-01	-5.399690e-06	2.451942e-01
-7.565166e-01	-1.114927e-05	1.010137e+00
-4.847293e-01	-1.258868e-05	3.074668e+00
2.977130e+00	-1.480816e-05	2.981384e+00
3.089440e+00	-1.716782e-05	9.545428e-01
2.609621e+00	-1.492576e-05	6.730923e-02
2.223887e+00	-1.729551e-05	-1.994345e-01
1.952861e+00	-1.933106e-05	-3.595061e-01
1.758698e+00	-2.084287e-05	-4.211866e-01
1.601601e+00	-2.646510e-05	-4.704048e-01
1.479615e+00	-4.184309e-05	-4.859721e-01
1.373784e+00	-4.411395e-05	-4.990846e-01
1.287887e+00	-3.710034e-05	-4.965159e-01
1.211699e+00	1.044646e-05	-4.939452e-01
1.147660e+00	8.588936e-06	-4.841200e-01
1.087975e+00	-5.811490e-05	-4.748737e-01
1.034966e+00	-5.594364e-05	-4.621191e-01
9.843698e-01	-3.124247e-05	-4.505183e-01
9.367958e-01	-3.470057e-05	-4.362984e-01
8.880752e-01	-3.490175e-05	-4.215099e-01
8.392278e-01	-4.683113e-05	-4.032642e-01
7.887556e-01	-4.617626e-05	-3.832079e-01
7.400762e-01	-4.617461e-05	-3.611642e-01
8.160287e-01	1.447000e-03	-1.436997e-01
8.339129e-01	1.447246e-03	-1.483583e-01
8.453687e-01	1.448798e-03	-1.541610e-01
8.508452e-01	1.433152e-03	-1.593764e-01
8.472336e-01	1.395559e-03	-1.650994e-01
8.429007e-01	1.401263e-03	-1.700775e-01
8.292194e-01	1.250002e-03	-1.753323e-01
8.141086e-01	1.287335e-03	-1.792904e-01
7.912326e-01	1.107105e-03	-1.845394e-01
7.662532e-01	1.079869e-03	-1.885203e-01
7.293785e-01	7.275505e-04	-1.943040e-01
6.839059e-01	7.866831e-04	-1.965503e-01
6.202143e-01	3.565656e-04	-1.993379e-01
5.383474e-01	4.232052e-04	-1.920359e-01
4.281309e-01	-6.446050e-05	-1.776180e-01
2.658715e-01	-3.972345e-04	-1.272080e-01
2.431729e-02	-5.874215e-04	-1.453949e-02
-3.207895e-01	-6.316059e-04	2.459503e-01
-7.564891e-01	-6.776357e-04	1.010100e+00
-4.844333e-01	-7.382512e-04	3.072790e+00
2.974753e+00	-8.194582e-04	2.979004e+00
3.086406e+00	-8.984720e-04	9.536053e-01
2.606192e+00	-9.914000e-04	6.722077e-02
2.225580e+00	-1.080005e-03	-1.995864e-01
1.960517e+00	-1.017227e-03	-3.609156e-01
1.770338e+00	-8.040496e-04	-4.239742e-01
1.605193e+00	-4.283149e-04	-4.714600e-01
1.482907e+00	-5.972693e-04	-4.870535e-01
1.376914e+00	-2.598030e-04	-5.002219e-01
1.290936e+00	-4.014267e-04	-4.976914e-01
1.214619e+00	-1.222085e-04	-4.951354e-01
1.148482e+00	-1.929546e-04	-4.844666e-01
1.089936e+00	-1.377015e-05	-4.757296e-01
1.036529e+00	-7.851677e-05	-4.628170e-01
9.868274e-01	6.546782e-05	-4.516431e-01
9.364360e-01	2.681464e-05	-4.361308e-01
8.888799e-01	5.042922e-05	-4.218919e-01
8.393983e-01	5.859624e-05	-4.033462e-01
7.883921e-01	5.397059e-05	-3.830313e-01
7.398419e-01	5.288890e-05	-3.610499e-01
8.161937e-01	1.184002e-03	-1.437287e-01
8.341234e-01	1.181150e-03	-1.483957e-01
8.456360e-01	1.173798e-03	-1.542098e-01
8.511662e-01	1.159711e-03	-1.594365e-01
8.476780e-01	1.137293e-03	-1.651860e-01
8.428552e-01	1.103100e-03	-1.700683e-01
8.293290e-01	1.086869e-03	-1.753555e-01
8.146396e-01	1.031431e-03	-1.794073e-01
7.928298e-01	9.641515e-04	-1.849119e-01
7.671839e-01	8.834970e-04	-1.887493e-01
7.294834e-01	8.389317e-04	-1.943319e-01
6.848901e-01	7.383630e-04	-1.968332e-01
6.214767e-01	6.312118e-04	-1.997436e-01
5.398548e-01	5.014387e-04	-1.925736e-01
4.296379e-01	3.728708e-04	-1.782432e-01
2.675798e-01	2.416150e-04	-1.280253e-01
2.684187e-02	1.040072e-04	-1.604895e-02
-3.174955e-01	-3.482160e-05	2.434247e-01
-7.536553e-01	-1.762589e-04	1.006317e+00
-4.832160e-01	-4.346436e-04	3.065069e+00
2.969189e+00	-6.057876e-04	2.973432e+00
3.081750e+00	-6.418322e-04	9.521668e-01
2.603774e+00	-7.931639e-04	6.715842e-02
2.223683e+00	-9.307198e-04	-1.994162e-01
1.958678e+00	-1.060587e-03	-3.605769e-01
1.768981e+00	-1.180396e-03	-4.236492e-01
1.604336e+00	-1.285989e-03	-4.712082e-01
1.482178e+00	-1.370023e-03	-4.868140e-01
1.376214e+00	-1.455519e-03	-4.999673e-01
1.289656e+00	-1.517128e-03	-4.971979e-01
1.214330e+00	-1.628417e-03	-4.950177e-01
1.148982e+00	-1.672026e-03	-4.846776e-01
1.089602e+00	-1.705672e-03	-4.755839e-01
1.035958e+00	-1.729189e-03	-4.625621e-01
9.862458e-01	-1.770843e-03	-4.513769e-01
9.364099e-01	-1.777938e-03	-4.361186e-01
8.888447e-01	-1.781934e-03	-4.218751e-01
8.394097e-01	-1.782576e-03	-4.033516e-01
7.884357e-01	-1.781528e-03	-3.830525e-01
7.399106e-01	-1.780259e-03	-3.610834e-01
8.165072e-01	2.047123e-03	-1.437839e-01
8.345084e-01	2.042432e-03	-1.484642e-01
8.461233e-01	2.029802e-03	-1.542986e-01
8.517770e-01	2.006256e-03	-1.595509e-01
8.483930e-01	1.968819e-03	-1.653253e-01
8.437489e-01	1.916362e-03	-1.702486e-01
8.303508e-01	1.842624e-03	-1.755715e-01
8.158564e-01	1.750836e-03	-1.796753e-01
7.932295e-01	1.635661e-03	-1.850051e-01
7.678943e-01	1.576201e-03	-1.889241e-01
7.312717e-01	1.421942e-03	-1.948083e-01
6.866750e-01	1.254012e-03	-1.973462e-01
6.234990e-01	1.069619e-03	-2.003936e-01
5.421924e-01	8.708728e-04	-1.934074e-01