# vtk DataFile Version 2.0
OUTPUT by 3D-VPM
ASCII
DATASET UNSTRUCTURED_GRID
POINTS 820 double
9.510565e-01	0.000000e+00	-3.090170e-01
9.442611e-01	0.000000e+00	-3.078203e-01
9.267277e-01	0.000000e+00	-3.047010e-01
8.963175e-01	0.000000e+00	-2.991555e-01
8.562911e-01	0.000000e+00	-2.916579e-01
8.054250e-01	0.000000e+00	-2.817457e-01
7.470317e-01	0.000000e+00	-2.699633e-01
6.809074e-01	0.000000e+00	-2.559818e-01
6.100852e-01	0.000000e+00	-2.403847e-01
5.354138e-01	0.000000e+00	-2.229691e-01
4.593635e-01	0.000000e+00	-2.042585e-01
3.837764e-01	0.000000e+00	-1.841224e-01
3.103069e-01	0.000000e+00	-1.630077e-01
2.415927e-01	0.000000e+00	-1.409228e-01
1.782654e-01	0.000000e+00	-1.183331e-01
1.234349e-01	0.000000e+00	-9.558566e-02
7.662509e-02	0.000000e+00	-7.318920e-02
4.106998e-02	0.000000e+00	-5.193053e-02
1.528206e-02	0.000000e+00	-3.215886e-02
2.347037e-03	0.000000e+00	-1.488740e-02
0.000000e+00	0.000000e+00	0.000000e+00
1.064939e-02	0.000000e+00	1.066461e-02
3.126595e-02	0.000000e+00	1.703450e-02
6.375031e-02	0.000000e+00	1.787236e-02
1.050105e-01	0.000000e+00	1.417221e-02
1.560448e-01	0.000000e+00	4.777214e-03
2.137742e-01	0.000000e+00	-9.048270e-03
2.782849e-01	0.000000e+00	-2.799567e-02
3.468570e-01	0.000000e+00	-5.051783e-02
4.187060e-01	0.000000e+00	-7.662000e-02
4.916930e-01	0.000000e+00	-1.047585e-01
5.642168e-01	0.000000e+00	-1.343226e-01
6.348639e-01	0.000000e+00	-1.641238e-01
7.013280e-01	0.000000e+00	-1.931337e-01
7.630418e-01	0.000000e+00	-2.206893e-01
8.172084e-01	0.000000e+00	-2.454799e-01
8.641863e-01	0.000000e+00	-2.673591e-01
9.009752e-01	0.000000e+00	-2.848204e-01
9.288372e-01	0.000000e+00	-2.982085e-01
9.448555e-01	0.000000e+00	-3.059908e-01
9.510565e-01	0.000000e+00	-3.090170e-01
9.510565e-01	1.052632e+00	-3.090170e-01
9.442611e-01	1.052632e+00	-3.078203e-01
9.267277e-01	1.052632e+00	-3.047010e-01
8.963175e-01	1.052632e+00	-2.991555e-01
8.562911e-01	1.052632e+00	-2.916579e-01
8.054250e-01	1.052632e+00	-2.817457e-01
7.470317e-01	1.052632e+00	-2.699633e-01
6.809074e-01	1.052632e+00	-2.559818e-01
6.100852e-01	1.052632e+00	-2.403847e-01
5.354138e-01	1.052632e+00	-2.229691e-01
4.593635e-01	1.052632e+00	-2.042585e-01
3.837764e-01	1.052632e+00	-1.841224e-01
3.103069e-01	1.052632e+00	-1.630077e-01
2.415927e-01	1.052632e+00	-1.409228e-01
1.782654e-01	1.052632e+00	-1.183331e-01
1.234349e-01	1.052632e+00	-9.558566e-02
7.662509e-02	1.052632e+00	-7.318920e-02
4.106998e-02	1.052632e+00	-5.193053e-02
1.528206e-02	1.052632e+00	-3.215886e-02
2.347037e-03	1.052632e+00	-1.488740e-02
0.000000e+00	1.052632e+00	0.000000e+00
1.064939e-02	1.052632e+00	1.066461e-02
3.126595e-02	1.052632e+00	1.703450e-02
6.375031e-02	1.052632e+00	1.787236e-02
1.050105e-01	1.052632e+00	1.417221e-02
1.560448e-01	1.052632e+00	4.777214e-03
2.137742e-01	1.052632e+00	-9.048270e-03
2.782849e-01	1.052632e+00	-2.799567e-02
3.468570e-01	1.052632e+00	-5.051783e-02
4.187060e-01	1.052632e+00	-7.662000e-02
4.916930e-01	1.052632e+00	-1.047585e-01
5.642168e-01	1.052632e+00	-1.343226e-01
6.348639e-01	1.052632e+00	-1.641238e-01
7.013280e-01	1.052632e+00	-1.931337e-01
7.630418e-01	1.052632e+00	-2.206893e-01
8.172084e-01	1.052632e+00	-2.454799e-01
8.641863e-01	1.052632e+00	-2.673591e-01
9.009752e-01	1.052632e+00	-2.848204e-01
9.288372e-01	1.052632e+00	-2.982085e-01
9.448555e-01	1.052632e+00	-3.059908e-01
9.510565e-01	1.052632e+00	-3.090170e-01
9.510565e-01	2.105263e+00	-3.090170e-01
9.442611e-01	2.105263e+00	-3.078203e-01
9.267277e-01	2.105263e+00	-3.047010e-01
8.963175e-01	2.105263e+00	-2.991555e-01
8.562911e-01	2.105263e+00	-2.916579e-01
8.054250e-01	2.105263e+00	-2.817457e-01
7.470317e-01	2.105263e+00	-2.699633e-01
6.809074e-01	2.105263e+00	-2.559818e-01
6.100852e-01	2.105263e+00	-2.403847e-01
5.354138e-01	2.105263e+00	-2.229691e-01
4.593635e-01	2.105263e+00	-2.042585e-01
3.837764e-01	2.105263e+00	-1.841224e-01
3.103069e-01	2.105263e+00	-1.630077e-01
2.415927e-01	2.105263e+00	-1.409228e-01
1.782654e-01	2.105263e+00	-1.183331e-01
1.234349e-01	2.105263e+00	-9.558566e-02
7.662509e-02	2.105263e+00	-7.318920e-02
4.106998e-02	2.105263e+00	-5.193053e-02
1.528206e-02	2.105263e+00	-3.215886e-02
2.347037e-03	2.105263e+00	-1.488740e-02
0.000000e+00	2.105263e+00	0.000000e+00
1.064939e-02	2.105263e+00	1.066461e-02
3.126595e-02	2.105263e+00	1.703450e-02
6.375031e-02	2.105263e+00	1.787236e-02
1.050105e-01	2.105263e+00	1.417221e-02
1.560448e-01	2.105263e+00	4.777214e-03
2.137742e-01	2.105263e+00	-9.048270e-03
2.782849e-01	2.105263e+00	-2.799567e-02
3.468570e-01	2.105263e+00	-5.051783e-02
4.187060e-01	2.105263e+00	-7.662000e-02
4.916930e-01	2.105263e+00	-1.047585e-01
5.642168e-01	2.105263e+00	-1.343226e-01
6.348639e-01	2.105263e+00	-1.641238e-01
7.013280e-01	2.105263e+00	-1.931337e-01
7.630418e-01	2.105263e+00	-2.206893e-01
8.172084e-01	2.105263e+00	-2.454799e-01
8.641863e-01	2.105263e+00	-2.673591e-01
9.009752e-01	2.105263e+00	-2.848204e-01
9.288372e-01	2.105263e+00	-2.982085e-01
9.448555e-01	2.105263e+00	-3.059908e-01
9.510565e-01	2.105263e+00	-3.090170e-01
9.510565e-01	3.157895e+00	-3.090170e-01
9.442611e-01	3.157895e+00	-3.078203e-01
9.267277e-01	3.157895e+00	-3.047010e-01
8.963175e-01	3.157895e+00	-2.991555e-01
8.562911e-01	3.157895e+00	-2.916579e-01
8.054250e-01	3.157895e+00	-2.817457e-01
7.470317e-01	3.157895e+00	-2.699633e-01
6.809074e-01	3.157895e+00	-2.559818e-01
6.100852e-01	3.157895e+00	-2.403847e-01
5.354138e-01	3.157895e+00	-2.229691e-01
4.593635e-01	3.157895e+00	-2.042585e-01
3.837764e-01	3.157895e+00	-1.841224e-01
3.103069e-01	3.157895e+00	-1.630077e-01
2.415927e-01	3.157895e+00	-1.409228e-01
1.782654e-01	3.157895e+00	-1.183331e-01
1.234349e-01	3.157895e+00	-9.558566e-02
7.662509e-02	3.157895e+00	-7.318920e-02
4.106998e-02	3.157895e+00	-5.193053e-02
1.528206e-02	3.157895e+00	-3.215886e-02
2.347037e-03	3.157895e+00	-1.488740e-02
0.000000e+00	3.157895e+00	0.000000e+00
1.064939e-02	3.157895e+00	1.066461e-02
3.126595e-02	3.157895e+00	1.703450e-02
6.375031e-02	3.157895e+00	1.787236e-02
1.050105e-01	3.157895e+00	1.417221e-02
1.560448e-01	3.157895e+00	4.777214e-03
2.137742e-01	3.157895e+00	-9.048270e-03
2.782849e-01	3.157895e+00	-2.799567e-02
3.468570e-01	3.157895e+00	-5.051783e-02
4.187060e-01	3.157895e+00	-7.662000e-02
4.916930e-01	3.157895e+00	-1.047585e-01
5.642168e-01	3.157895e+00	-1.343226e-01
6.348639e-01	3.157895e+00	-1.641238e-01
7.013280e-01	3.157895e+00	-1.931337e-01
7.630418e-01	3.157895e+00	-2.206893e-01
8.172084e-01	3.157895e+00	-2.454799e-01
8.641863e-01	3.157895e+00	-2.673591e-01
9.009752e-01	3.157895e+00	-2.848204e-01
9.288372e-01	3.157895e+00	-2.982085e-01
9.448555e-01	3.157895e+00	-3.059908e-01
9.510565e-01	3.157895e+00	-3.090170e-01
9.510565e-01	4.210526e+00	-3.090170e-01
9.442611e-01	4.210526e+00	-3.078203e-01
9.267277e-01	4.210526e+00	-3.047010e-01
8.963175e-01	4.210526e+00	-2.991555e-01
8.562911e-01	4.210526e+00	-2.916579e-01
8.054250e-01	4.210526e+00	-2.817457e-01
7.470317e-01	4.210526e+00	-2.699633e-01
6.809074e-01	4.210526e+00	-2.559818e-01
6.100852e-01	4.210526e+00	-2.403847e-01
5.354138e-01	4.210526e+00	-2.229691e-01
4.593635e-01	4.210526e+00	-2.042585e-01
3.837764e-01	4.210526e+00	-1.841224e-01
3.103069e-01	4.210526e+00	-1.630077e-01
2.415927e-01	4.210526e+00	-1.409228e-01
1.782654e-01	4.210526e+00	-1.183331e-01
1.234349e-01	4.210526e+00	-9.558566e-02
7.662509e-02	4.210526e+00	-7.318920e-02
4.106998e-02	4.210526e+00	-5.193053e-02
1.528206e-02	4.210526e+00	-3.215886e-02
2.347037e-03	4.210526e+00	-1.488740e-02
0.000000e+00	4.210526e+00	0.000000e+00
1.064939e-02	4.210526e+00	1.066461e-02
3.126595e-02	4.210526e+00	1.703450e-02
6.375031e-02	4.210526e+00	1.787236e-02
1.050105e-01	4.210526e+00	1.417221e-02
1.560448e-01	4.210526e+00	4.777214e-03
2.137742e-01	4.210526e+00	-9.048270e-03
2.782849e-01	4.210526e+00	-2.799567e-02
3.468570e-01	4.210526e+00	-5.051783e-02
4.187060e-01	4.210526e+00	-7.662000e-02
4.916930e-01	4.210526e+00	-1.047585e-01
5.642168e-01	4.210526e+00	-1.343226e-01
6.348639e-01	4.210526e+00	-1.641238e-01
7.013280e-01	4.210526e+00	-1.931337e-01
7.630418e-01	4.210526e+00	-2.206893e-01
8.172084e-01	4.210526e+00	-2.454799e-01
8.641863e-01	4.210526e+00	-2.673591e-01
9.009752e-01	4.210526e+00	-2.848204e-01
9.288372e-01	4.210526e+00	-2.982085e-01
9.448555e-01	4.210526e+00	-3.059908e-01
9.510565e-01	4.210526e+00	-3.090170e-01
9.510565e-01	5.263158e+00	-3.090170e-01
9.442611e-01	5.263158e+00	-3.078203e-01
9.267277e-01	5.263158e+00	-3.047010e-01
8.963175e-01	5.263158e+00	-2.991555e-01
8.562911e-01	5.263158e+00	-2.916579e-01
8.054250e-01	5.263158e+00	-2.817457e-01
7.470317e-01	5.263158e+00	-2.699633e-01
6.809074e-01	5.263158e+00	-2.559818e-01
6.100852e-01	5.263158e+00	-2.403847e-01
5.354138e-01	5.263158e+00	-2.229691e-01
4.593635e-01	5.263158e+00	-2.042585e-01
3.837764e-01	5.263158e+00	-1.841224e-01
3.103069e-01	5.263158e+00	-1.630077e-01
2.415927e-01	5.263158e+00	-1.409228e-01
1.782654e-01	5.263158e+00	-1.183331e-01
1.234349e-01	5.263158e+00	-9.558566e-02
7.662509e-02	5.263158e+00	-7.318920e-02
4.106998e-02	5.263158e+00	-5.193053e-02
1.528206e-02	5.263158e+00	-3.215886e-02
2.347037e-03	5.263158e+00	-1.488740e-02
0.000000e+00	5.263158e+00	0.000000e+00
1.064939e-02	5.263158e+00	1.066461e-02
3.126595e-02	5.263158e+00	1.703450e-02
6.375031e-02	5.263158e+00	1.787236e-02
1.050105e-01	5.263158e+00	1.417221e-02
1.560448e-01	5.263158e+00	4.777214e-03
2.137742e-01	5.263158e+00	-9.048270e-03
2.782849e-01	5.263158e+00	-2.799567e-02
3.468570e-01	5.263158e+00	-5.051783e-02
4.187060e-01	5.263158e+00	-7.662000e-02
4.916930e-01	5.263158e+00	-1.047585e-01
5.642168e-01	5.263158e+00	-1.343226e-01
6.348639e-01	5.263158e+00	-1.641238e-01
7.013280e-01	5.263158e+00	-1.931337e-01
7.630418e-01	5.263158e+00	-2.206893e-01
8.172084e-01	5.263158e+00	-2.454799e-01
8.641863e-01	5.263158e+00	-2.673591e-01
9.009752e-01	5.263158e+00	-2.848204e-01
9.288372e-01	5.263158e+00	-2.982085e-01
9.448555e-01	5.263158e+00	-3.059908e-01
9.510565e-01	5.263158e+00	-3.090170e-01
9.510565e-01	6.315789e+00	-3.090170e-01
9.442611e-01	6.315789e+00	-3.078203e-01
[...]
CELL_DATA 760
VECTORS V double
8.414222e-01	-6.903765e-02	-1.481714e-01
8.655428e-01	-6.886406e-02	-1.539854e-01
8.835572e-01	-6.841428e-02	-1.611251e-01
8.953223e-01	-6.761985e-02	-1.677076e-01
8.977864e-01	-6.645888e-02	-1.749506e-01
8.990980e-01	-6.491373e-02	-1.814167e-01
8.920591e-01	-6.297407e-02	-1.886193e-01
8.847475e-01	-6.061585e-02	-1.948471e-01
8.704121e-01	-5.781058e-02	-2.030064e-01
8.547706e-01	-5.452567e-02	-2.102982e-01
8.294640e-01	-5.073564e-02	-2.209664e-01
7.985402e-01	-4.642628e-02	-2.294955e-01
7.511887e-01	-4.163057e-02	-2.414333e-01
6.891614e-01	-3.639966e-02	-2.458333e-01
6.025070e-01	-3.077152e-02	-2.499611e-01
4.718251e-01	-2.486896e-02	-2.257478e-01
2.701082e-01	-1.869998e-02	-1.614997e-01
-1.747375e-02	-1.243064e-02	1.339717e-02
-4.218685e-01	-5.862359e-03	5.632990e-01
-3.427220e-01	7.187115e-04	2.173906e+00
2.327178e+00	8.432450e-03	2.330504e+00
2.541825e+00	1.519775e-02	7.853463e-01
2.210643e+00	2.214449e-02	5.701850e-02
1.925591e+00	2.899239e-02	-1.726839e-01
1.720233e+00	3.598246e-02	-3.166811e-01
1.570441e+00	4.294958e-02	-3.761014e-01
1.435582e+00	4.988811e-02	-4.216437e-01
1.336760e+00	5.661955e-02	-4.390522e-01
1.250658e+00	6.302572e-02	-4.543539e-01
1.181713e+00	6.890879e-02	-4.555830e-01
1.121881e+00	7.415323e-02	-4.573311e-01
1.071622e+00	7.862195e-02	-4.520445e-01
1.027480e+00	8.225272e-02	-4.484695e-01
9.872048e-01	8.503780e-02	-4.407935e-01
9.499826e-01	8.702857e-02	-4.347803e-01
9.115297e-01	8.832296e-02	-4.245311e-01
8.743620e-01	8.904927e-02	-4.150012e-01
8.341871e-01	8.935659e-02	-4.008421e-01
7.910582e-01	8.940055e-02	-3.843266e-01
7.483068e-01	8.935488e-02	-3.651809e-01
8.268559e-01	-4.834680e-02	-1.456063e-01
8.473434e-01	-4.822249e-02	-1.507476e-01
8.618055e-01	-4.790395e-02	-1.571584e-01
8.704912e-01	-4.734012e-02	-1.630564e-01
8.702420e-01	-4.650835e-02	-1.695830e-01
8.688572e-01	-4.538983e-02	-1.753149e-01
8.588574e-01	-4.397388e-02	-1.815990e-01
8.479871e-01	-4.224549e-02	-1.867514e-01
8.293159e-01	-4.018985e-02	-1.934215e-01
8.083265e-01	-3.779178e-02	-1.988716e-01
7.765371e-01	-3.502152e-02	-2.068669e-01
7.378753e-01	-3.192953e-02	-2.120608e-01
6.815685e-01	-2.849316e-02	-2.190572e-01
6.085135e-01	-2.476751e-02	-2.170651e-01
5.087094e-01	-2.077852e-02	-2.110474e-01
3.607029e-01	-1.660927e-02	-1.725807e-01
1.372878e-01	-1.226152e-02	-8.208539e-02
-1.816061e-01	-7.848703e-03	1.392379e-01
-6.033131e-01	-3.230949e-03	8.055725e-01
-4.198937e-01	1.388819e-03	2.663411e+00
2.682715e+00	6.789277e-03	2.686549e+00
2.844274e+00	1.150556e-02	8.787938e-01
2.433387e+00	1.631991e-02	6.276366e-02
2.097434e+00	2.102940e-02	-1.880944e-01
1.860561e+00	2.579278e-02	-3.425144e-01
1.689706e+00	3.049035e-02	-4.046638e-01
1.539111e+00	3.511633e-02	-4.520510e-01
1.427847e+00	3.955258e-02	-4.689693e-01
1.330749e+00	4.372726e-02	-4.834505e-01
1.251929e+00	4.753271e-02	-4.826533e-01
1.182690e+00	5.085859e-02	-4.821197e-01
1.123355e+00	5.367615e-02	-4.738674e-01
1.070407e+00	5.593565e-02	-4.672057e-01
1.021753e+00	5.764152e-02	-4.562193e-01
9.765987e-01	5.883498e-02	-4.469618e-01
9.307665e-01	5.958690e-02	-4.334903e-01
8.867532e-01	5.998567e-02	-4.208825e-01
8.402946e-01	6.013209e-02	-4.037769e-01
7.917011e-01	6.012845e-02	-3.846390e-01
7.448095e-01	6.008515e-02	-3.634741e-01
8.205596e-01	-2.041300e-02	-1.444975e-01
8.397176e-01	-2.036116e-02	-1.493909e-01
8.526998e-01	-2.023079e-02	-1.554979e-01
8.598576e-01	-1.999474e-02	-1.610645e-01
8.580658e-01	-1.963610e-02	-1.672103e-01
8.550982e-01	-1.913821e-02	-1.725386e-01
8.434736e-01	-1.849129e-02	-1.783462e-01
8.308685e-01	-1.769004e-02	-1.829814e-01
8.103075e-01	-1.670731e-02	-1.889882e-01
7.869143e-01	-1.558700e-02	-1.936036e-01
7.528438e-01	-1.431483e-02	-2.005551e-01
7.115454e-01	-1.290562e-02	-2.044938e-01
6.517197e-01	-1.134937e-02	-2.094638e-01
5.745578e-01	-9.682272e-03	-2.049526e-01
4.697644e-01	-7.914421e-03	-1.948904e-01
3.150064e-01	-6.078272e-03	-1.507169e-01
8.299809e-02	-4.170560e-03	-4.962517e-02
-2.484121e-01	-2.239205e-03	1.904582e-01
-6.768404e-01	-2.233524e-04	9.037497e-01
-4.509375e-01	1.785074e-03	2.860324e+00
2.823829e+00	4.114351e-03	2.827865e+00
2.962010e+00	6.122474e-03	9.151707e-01
2.518018e+00	8.136094e-03	6.494653e-02
2.160738e+00	1.006006e-02	-1.937714e-01
1.910388e+00	1.195064e-02	-3.516871e-01
1.730314e+00	1.375425e-02	-4.143889e-01
1.572808e+00	1.546631e-02	-4.619482e-01
1.456143e+00	1.704619e-02	-4.782629e-01
1.354667e+00	1.847637e-02	-4.921394e-01
1.271707e+00	1.974245e-02	-4.902782e-01
1.198804e+00	2.080772e-02	-4.886884e-01
1.136487e+00	2.166804e-02	-4.794067e-01
1.080555e+00	2.230505e-02	-4.716353e-01
1.029172e+00	2.277664e-02	-4.595323e-01
9.815362e-01	2.307869e-02	-4.492215e-01
9.334893e-01	2.324333e-02	-4.347584e-01
8.875243e-01	2.330578e-02	-4.212485e-01
8.394012e-01	2.330353e-02	-4.033476e-01
7.894756e-01	2.327306e-02	-3.835577e-01
7.416746e-01	2.324626e-02	-3.619443e-01
8.181557e-01	-1.022143e-02	-1.440742e-01
8.367405e-01	-1.020039e-02	-1.488613e-01
8.489673e-01	-1.014410e-02	-1.548172e-01
8.553525e-01	-1.003828e-02	-1.602207e-01
8.527726e-01	-9.873080e-03	-1.661788e-01
8.489660e-01	-9.625170e-03	-1.713013e-01
8.364730e-01	-9.312466e-03	-1.768660e-01
8.225737e-01	-8.914978e-03	-1.811546e-01
8.009407e-01	-8.441618e-03	-1.868036e-01
7.769164e-01	-7.877701e-03	-1.911438e-01
7.414904e-01	-7.238277e-03	-1.975306e-01
6.983560e-01	-6.500665e-03	-2.007032e-01
6.367928e-01	-5.695110e-03	-2.046662e-01
5.574743e-01	-4.818878e-03	-1.988587e-01
4.500569e-01	-3.884025e-03	-1.867144e-01
2.917581e-01	-2.907993e-03	-1.395936e-01
5.528002e-02	-1.894139e-03	-3.305233e-02
-2.825687e-01	-8.605883e-04	2.166462e-01
-7.144372e-01	2.191532e-04	9.539507e-01
-4.667725e-01	1.293851e-03	2.960766e+00
2.895404e+00	2.536029e-03	2.899542e+00
3.021260e+00	3.600807e-03	9.334774e-01
2.560229e+00	4.660469e-03	6.603527e-02
2.191964e+00	5.663897e-03	-1.965717e-01
1.934702e+00	6.643707e-03	-3.561631e-01
1.749919e+00	7.563927e-03	-4.190840e-01
1.588913e+00	8.428426e-03	-4.666784e-01
1.469553e+00	9.225549e-03	-4.826675e-01
1.365881e+00	9.934323e-03	-4.962134e-01
1.281347e+00	1.055346e-02	-4.939944e-01
1.206803e+00	1.109202e-02	-4.919494e-01
1.142500e+00	1.152342e-02	-4.819431e-01
1.085249e+00	1.186155e-02	-4.736841e-01
1.032974e+00	1.209975e-02	-4.612297e-01
9.842015e-01	1.225985e-02	-4.504413e-01
9.351559e-01	1.234084e-02	-4.355346e-01
8.883137e-01	1.238481e-02	-4.216231e-01
8.394624e-01	1.239501e-02	-4.033770e-01
7.889768e-01	1.238818e-02	-3.833154e-01
7.407051e-01	1.237952e-02	-3.614711e-01
8.170281e-01	-5.653497e-03	-1.438757e-01
8.351855e-01	-5.642377e-03	-1.485847e-01
8.470023e-01	-5.610873e-03	-1.544589e-01
8.529473e-01	-5.551500e-03	-1.597701e-01
8.496115e-01	-5.455314e-03	-1.655628e-01
8.453668e-01	-5.315027e-03	-1.705751e-01
8.324893e-01	-5.143679e-03	-1.760237e-01
8.184687e-01	-4.923993e-03	-1.802506e-01
7.963062e-01	-4.659082e-03	-1.857227e-01
7.711161e-01	-4.323295e-03	-1.897168e-01
7.348477e-01	-3.932390e-03	-1.957610e-01
6.909780e-01	-3.496077e-03	-1.985828e-01
6.283636e-01	-3.024565e-03	-2.019571e-01
5.476512e-01	-2.604226e-03	-1.953546e-01
4.386713e-01	-2.060919e-03	-1.819908e-01
2.783615e-01	-1.453337e-03	-1.331839e-01
3.928030e-02	-8.439364e-04	-2.348598e-02
-3.024624e-01	-2.243705e-04	2.318988e-01
-7.363379e-01	4.234050e-04	9.831936e-01
-4.759842e-01	1.068039e-03	3.019196e+00
2.936896e+00	1.811241e-03	2.941093e+00
3.055429e+00	2.445976e-03	9.440343e-01
2.584429e+00	3.074355e-03	6.665944e-02
2.209867e+00	3.665105e-03	-1.981773e-01
1.948494e+00	4.234695e-03	-3.587022e-01
1.760871e+00	4.757937e-03	-4.217068e-01
1.597946e+00	5.243646e-03	-4.693313e-01
1.477002e+00	5.787480e-03	-4.851140e-01
1.371966e+00	6.191794e-03	-4.984244e-01
1.286317e+00	6.530199e-03	-4.959106e-01
1.210950e+00	6.811105e-03	-4.936399e-01
1.146321e+00	7.040548e-03	-4.835549e-01
1.088277e+00	7.238041e-03	-4.750058e-01
1.034943e+00	7.380470e-03	-4.621090e-01
9.854725e-01	7.478598e-03	-4.510230e-01
9.358718e-01	7.527066e-03	-4.358680e-01
8.888574e-01	7.550399e-03	-4.218812e-01
8.396025e-01	7.556821e-03	-4.034443e-01
7.887816e-01	7.552976e-03	-3.832205e-01
7.403473e-01	7.548716e-03	-3.612966e-01
8.162896e-01	-3.264632e-03	-1.437456e-01
8.342266e-01	-3.271611e-03	-1.484141e-01
8.457727e-01	-3.252356e-03	-1.542347e-01
8.513775e-01	-3.215894e-03	-1.594761e-01
8.479392e-01	-3.154230e-03	-1.652369e-01
8.435621e-01	-3.101681e-03	-1.702109e-01
8.304237e-01	-2.984602e-03	-1.755870e-01
8.156722e-01	-2.840778e-03	-1.796347e-01
7.928277e-01	-2.656644e-03	-1.849114e-01
7.673753e-01	-2.424368e-03	-1.887964e-01
7.306786e-01	-2.185059e-03	-1.946503e-01
6.862552e-01	-1.959418e-03	-1.972255e-01
6.243677e-01	-1.645377e-03	-2.006728e-01
5.432238e-01	-1.427284e-03	-1.937753e-01
4.313716e-01	-1.062852e-03	-1.789624e-01
2.693120e-01	-6.852046e-04	-1.288541e-01
2.903404e-02	-2.894884e-04	-1.735967e-02
-3.149806e-01	1.054764e-04	2.414966e-01
-7.501293e-01	5.175728e-04	1.001609e+00
-4.817791e-01	9.268605e-04	3.055954e+00
2.962916e+00	1.397927e-03	2.967150e+00
3.076774e+00	1.799048e-03	9.506294e-01
2.599450e+00	2.194772e-03	6.704688e-02
2.220687e+00	2.564630e-03	-1.991476e-01
1.956598e+00	2.914503e-03	-3.601939e-01
1.767186e+00	3.240986e-03	-4.232194e-01
1.604561e+00	3.654549e-03	-4.712744e-01
1.482649e+00	3.904202e-03	-4.869688e-01
1.375553e+00	4.154518e-03	-4.997272e-01
1.289161e+00	4.373285e-03	-4.970070e-01
1.213194e+00	4.538299e-03	-4.945546e-01
1.147951e+00	4.643939e-03	-4.842424e-01
1.089802e+00	4.738474e-03	-4.756714e-01
1.036457e+00	4.813394e-03	-4.627850e-01
9.865966e-01	4.859402e-03	-4.515375e-01
9.365315e-01	4.920915e-03	-4.361753e-01
8.890412e-01	4.929999e-03	-4.219684e-01
8.396003e-01	4.931837e-03	-4.034433e-01
7.886055e-01	4.928499e-03	-3.831350e-01
7.400528e-01	4.939393e-03	-3.611528e-01
8.181992e-01	-2.033213e-03	-1.440819e-01
8.341219e-01	-2.029181e-03	-1.483954e-01
8.450430e-01	-2.019002e-03	-1.541016e-01
8.504336e-01	-2.000408e-03	-1.592993e-01
8.473334e-01	-1.970295e-03	-1.651189e-01
8.423712e-01	-2.014267e-03	-1.699706e-01
8.284573e-01	-1.892058e-03	-1.751712e-01
8.137937e-01	-1.787266e-03	-1.792210e-01
7.906824e-01	-1.688296e-03	-1.844111e-01
7.649263e-01	-1.547243e-03	-1.881939e-01
7.287676e-01	-1.391459e-03	-1.941413e-01
6.838023e-01	-1.221909e-03	-1.965206e-01
6.209209e-01	-1.023815e-03	-1.995650e-01
5.390886e-01	-7.456800e-04	-1.923002e-01
4.265936e-01	-5.098325e-04	-1.769802e-01
2.641250e-01	-3.018911e-04	-1.263724e-01
2.237629e-02	-5.782095e-05	-1.337895e-02
-3.231063e-01	1.650849e-04	2.477265e-01
-7.590264e-01	4.267006e-04	1.013488e+00
-4.855048e-01	6.859385e-04	3.079587e+00
2.979618e+00	9.832743e-04	2.983876e+00
3.090438e+00	1.234542e-03	9.548510e-01
2.609047e+00	1.506849e-03	6.729441e-02
2.227664e+00	1.736295e-03	-1.997732e-01
1.962055e+00	1.956787e-03	-3.611986e-01
1.773663e+00	2.170549e-03	-4.247704e-01
1.607879e+00	2.397052e-03	-4.722487e-01
1.483941e+00	2.469473e-03	-4.873930e-01
1.378078e+00	2.613340e-03	-5.006445e-01
1.291158e+00	2.749023e-03	-4.977769e-01
1.214341e+00	2.861301e-03	-4.950223e-01
1.148875e+00	2.951271e-03	-4.846326e-01
1.090544e+00	3.049438e-03	-4.759950e-01
1.036699e+00	3.114598e-03	-4.628929e-01
9.871743e-01	3.235111e-03	-4.518019e-01
9.372718e-01	3.226544e-03	-4.365201e-01
8.891275e-01	3.220559e-03	-4.220094e-01
8.395868e-01	3.217590e-03	-4.034368e-01
7.889168e-01	3.214337e-03	-3.832862e-01
7.420157e-01	3.212047e-03	-3.621107e-01
8.156129e-01	-1.154748e-03	-1.436264e-01
8.333994e-01	-1.137857e-03	-1.482669e-01
8.447639e-01	-1.129407e-03	-1.540507e-01
8.501330e-01	-1.138429e-03	-1.592430e-01
8.483552e-01	-1.118228e-03	-1.653180e-01
8.420252e-01	-1.066686e-03	-1.699008e-01
8.269460e-01	-1.025247e-03	-1.748516e-01
8.127814e-01	-9.963909e-04	-1.789981e-01
7.895824e-01	-1.002993e-03	-1.841545e-01
7.634785e-01	-9.223462e-04	-1.878377e-01
7.264261e-01	-8.187113e-04	-1.935175e-01
6.813585e-01	-6.630192e-04	-1.958182e-01
6.177806e-01	-5.823643e-04	-1.985557e-01
5.355454e-01	-3.470777e-04	-1.910363e-01
4.241111e-01	-2.561948e-04	-1.759503e-01
2.610327e-01	-1.272244e-04	-1.248928e-01
1.899905e-02	1.092881e-05	-1.135967e-02
-3.272571e-01	1.538816e-04	2.509089e-01
-7.645199e-01	3.042766e-04	1.020823e+00
-4.878001e-01	4.541379e-04	3.094146e+00
2.989770e+00	6.266188e-04	2.994043e+00
3.099998e+00	7.731528e-04	9.578050e-01
2.615450e+00	9.172005e-04	6.745956e-02
2.231823e+00	1.051709e-03	-2.001462e-01
1.965319e+00	1.180105e-03	-3.617995e-01
1.774754e+00	1.300565e-03	-4.250316e-01
1.608980e+00	1.327832e-03	-4.725721e-01
1.485682e+00	1.438860e-03	-4.879651e-01
1.379197e+00	1.546069e-03	-5.010513e-01
1.292289e+00	1.606616e-03	-4.982132e-01
1.215727e+00	1.674884e-03	-4.955870e-01
1.150347e+00	1.820519e-03	-4.852534e-01
1.091993e+00	1.841228e-03	-4.766274e-01
1.039083e+00	1.883069e-03	-4.639576e-01
9.885218e-01	1.894943e-03	-4.524186e-01
9.362570e-01	1.880128e-03	-4.360474e-01
8.888283e-01	1.883117e-03	-4.218674e-01
8.394126e-01	1.904825e-03	-4.033531e-01
7.883325e-01	1.901627e-03	-3.830024e-01
7.397021e-01	1.886023e-03	-3.609817e-01
8.153645e-01	-1.387293e-03	-1.435827e-01
8.329703e-01	-1.387349e-03	-1.481906e-01
8.451724e-01	-1.387999e-03	-1.541252e-01
8.500640e-01	-1.370068e-03	-1.592300e-01
8.458337e-01	-1.328292e-03	-1.648266e-01
8.407809e-01	-1.250393e-03	-1.696497e-01
8.273857e-01	-1.153195e-03	-1.749446e-01
8.134935e-01	-1.215515e-03	-1.791549e-01
7.896622e-01	-9.950150e-04	-1.841731e-01
7.625062e-01	-1.043022e-03	-1.875985e-01
7.253812e-01	-6.848570e-04	-1.932391e-01
6.806295e-01	-7.711391e-04	-1.956087e-01
6.165961e-01	-3.340248e-04	-1.981750e-01
5.341313e-01	-3.960217e-04	-1.905319e-01
4.230513e-01	6.500021e-05	-1.755106e-01
2.592125e-01	4.064296e-04	-1.240219e-01
1.637910e-02	6.037553e-04	-9.793186e-03
-3.306048e-01	6.534778e-04	2.534756e-01
-7.673174e-01	7.018600e-04	1.024559e+00
-4.889908e-01	7.634796e-04	3.101699e+00
2.995241e+00	8.454806e-04	2.999521e+00
3.103199e+00	9.254397e-04	9.587940e-01
2.618003e+00	9.929554e-04	6.752542e-02
2.234168e+00	1.106124e-03	-2.003565e-01
1.967046e+00	1.042307e-03	-3.621174e-01
1.776094e+00	8.611386e-04	-4.253527e-01
1.610036e+00	4.824392e-04	-4.728824e-01
1.486967e+00	6.454164e-04	-4.883871e-01
1.380254e+00	3.299761e-04	-5.014351e-01
1.292785e+00	4.612814e-04	-4.984041e-01
1.217014e+00	1.679147e-04	-4.961117e-01
1.151027e+00	3.197861e-04	-4.855400e-01
1.091368e+00	6.160632e-05	-4.763549e-01
1.037491e+00	1.180362e-04	-4.632464e-01
9.871555e-01	-9.931645e-05	-4.517933e-01
9.370218e-01	-4.139677e-05	-4.364036e-01
8.896362e-01	-5.586085e-05	-4.222508e-01
8.402944e-01	-6.191767e-05	-4.037768e-01
7.882297e-01	-5.688967e-05	-3.829524e-01
7.396260e-01	-5.582219e-05	-3.609445e-01
8.156223e-01	-2.071725e-04	-1.436281e-01
8.334452e-01	-2.352848e-04	-1.482750e-01
8.440725e-01	-1.808120e-04	-1.539246e-01
8.485766e-01	-1.279616e-04	-1.589514e-01
8.458834e-01	-1.052994e-04	-1.648363e-01
8.389868e-01	-8.504079e-05	-1.692877e-01
8.265285e-01	-6.806881e-05	-1.747633e-01
8.104092e-01	-5.136302e-05	-1.784756e-01
7.873269e-01	4.703442e-06	-1.836284e-01
7.593815e-01	4.493749e-06	-1.868297e-01
7.228364e-01	6.011788e-06	-1.925612e-01
6.768182e-01	-1.871162e-05	-1.945134e-01
6.123423e-01	-3.824663e-05	-1.968078e-01
5.299841e-01	-2.786737e-05	-1.890526e-01
4.109101e-01	1.003528e-05	-1.704736e-01
2.508600e-01	-1.683809e-05	-1.200256e-01
1.335119e-02	-8.250369e-06	-7.982776e-03
-3.297806e-01	-8.887800e-07	2.528437e-01
-7.674815e-01	5.048021e-06	1.024778e+00
-4.893335e-01	9.859245e-06	3.103872e+00
2.997799e+00	1.476295e-05	3.002083e+00
3.106374e+00	1.873388e-05	9.597750e-01
2.621528e+00	2.256885e-05	6.761635e-02
2.232537e+00	2.580524e-05	-2.002102e-01
1.960184e+00	6.433659e-05	-3.608541e-01
1.764930e+00	6.737110e-05	-4.226790e-01
1.606107e+00	4.153844e-05	-4.717283e-01
1.483354e+00	1.029758e-04	-4.872004e-01
1.376912e+00	1.007006e-04	-5.002210e-01
1.290211e+00	1.008140e-04	-4.974120e-01
1.213928e+00	1.059130e-04	-4.948539e-01
1.149092e+00	7.727631e-05	-4.847237e-01
1.089172e+00	9.818984e-05	-4.753964e-01
1.036964e+00	1.173462e-04	-4.630114e-01
9.856834e-01	1.413995e-04	-4.511195e-01
9.371876e-01	1.671003e-04	-4.364808e-01
8.883360e-01	1.970639e-04	-4.216337e-01
8.393171e-01	2.083158e-04	-4.033072e-01
7.886769e-01	2.868496e-04	-3.831697e-01
7.398656e-01	2.763018e-04	-3.610615e-01
8.200825e-01	1.463485e-03	-1.444135e-01
8.302485e-01	1.463845e-03	-1.477063e-01
8.416181e-01	1.465535e-03	-1.534771e-01
8.482863e-01	1.450182e-03	-1.588970e-01
8.449757e-01	1.412041e-03	-1.646594e-01
8.401433e-01	1.425904e-03	-1.695211e-01
8.268680e-01	1.287986e-03	-1.748351e-01
8.124426e-01	1.350633e-03	-1.789235e-01
7.889240e-01	1.109430e-03	-1.840009e-01
7.624889e-01	1.134354e-03	-1.875942e-01
7.256825e-01	7.853005e-04	-1.933194e-01
6.812213e-01	7.982313e-04	-1.957788e-01
6.167367e-01	3.670222e-04	-1.982202e-01
5.334327e-01	4.573190e-04	-1.902827e-01
4.228035e-01	-3.792448e-05	-1.754078e-01
2.596075e-01	-3.789927e-04	-1.242109e-01
1.603511e-02	-5.767827e-04	-9.587512e-03
-3.309520e-01	-6.024845e-04	2.537418e-01
-7.676205e-01	-6.541486e-04	1.024964e+00
-4.890970e-01	-7.483567e-04	3.102372e+00
2.995673e+00	-8.356749e-04	2.999954e+00
3.103542e+00	-8.914794e-04	9.588997e-01
2.618229e+00	-9.893257e-04	6.753124e-02
2.235306e+00	-1.105195e-03	-2.004586e-01
1.967819e+00	-1.045123e-03	-3.622597e-01
1.775671e+00	-8.352422e-04	-4.252514e-01
1.610640e+00	-4.920191e-04	-4.730597e-01
1.487760e+00	-6.618359e-04	-4.886475e-01
1.380226e+00	-3.574908e-04	-5.014251e-01
1.292851e+00	-4.222830e-04	-4.984296e-01
1.216721e+00	-1.440149e-04	-4.959925e-01
1.150916e+00	-2.456914e-04	-4.854934e-01
1.091903e+00	-3.034525e-05	-4.765883e-01
1.038107e+00	-1.279036e-04	-4.635218e-01
9.879488e-01	-1.657174e-05	-4.521564e-01
9.380475e-01	-4.874434e-05	-4.368813e-01
8.906302e-01	-2.206589e-05	-4.227226e-01
8.426368e-01	-1.291680e-05	-4.049023e-01
7.927548e-01	-1.717913e-05	-3.851509e-01
7.380107e-01	-1.816835e-05	-3.601562e-01
8.155620e-01	1.520957e-03	-1.436175e-01
8.333185e-01	1.546225e-03	-1.482525e-01
8.446340e-01	1.483092e-03	-1.540270e-01
8.499755e-01	1.446264e-03	-1.592135e-01
8.462747e-01	1.310251e-03	-1.649125e-01
8.412967e-01	1.264962e-03	-1.697538e-01
8.275365e-01	1.206096e-03	-1.749765e-01
8.130801e-01	1.131248e-03	-1.790639e-01
7.901731e-01	1.085442e-03	-1.842922e-01
7.636598e-01	9.878504e-04	-1.878823e-01
7.272595e-01	8.823245e-04	-1.937395e-01
6.822794e-01	7.967197e-04	-1.960829e-01
6.173149e-01	7.022960e-04	-1.984060e-01
5.355885e-01	5.403878e-04	-1.910517e-01
4.246992e-01	3.938155e-04	-1.761942e-01
2.610333e-01	2.755631e-04	-1.248931e-01
1.855633e-02	1.161888e-04	-1.109497e-02
-3.279019e-01	-4.475584e-05	2.514033e-01
-7.636953e-01	-2.113109e-04	1.019722e+00
-4.873326e-01	-3.759210e-04	3.091180e+00
2.990963e+00	-5.648897e-04	2.995237e+00
3.099236e+00	-7.255834e-04	9.575695e-01
2.614525e+00	-8.839265e-04	6.743571e-02
2.231660e+00	-1.031802e-03	-2.001316e-01
1.965879e+00	-1.208336e-03	-3.619025e-01
1.774567e+00	-1.338894e-03	-4.249868e-01
1.608359e+00	-1.461285e-03	-4.723899e-01
1.485432e+00	-1.606768e-03	-4.878827e-01
1.379941e+00	-1.707741e-03	-5.013213e-01
1.292932e+00	-1.790230e-03	-4.984611e-01
1.216162e+00	-1.863558e-03	-4.957644e-01
1.150464e+00	-1.963112e-03	-4.853026e-01
1.090873e+00	-2.011938e-03	-4.761387e-01
1.037017e+00	-2.048137e-03	-4.630348e-01
9.870998e-01	-2.089662e-03	-4.517678e-01
9.369847e-01	-2.133572e-03	-4.363863e-01
8.892037e-01	-2.078852e-03	-4.220456e-01
8.395435e-01	-2.122394e-03	-4.034159e-01
7.883823e-01	-2.199301e-03	-3.830266e-01
7.397141e-01	-2.187689e-03	-3.609875e-01
8.158419e-01	2.165422e-03	-1.436668e-01
8.336540e-01	2.160951e-03	-1.483122e-01
8.447718e-01	2.153987e-03	-1.540522e-01
8.528870e-01	2.054138e-03	-1.597588e-01
8.484502e-01	2.020854e-03	-1.653365e-01
8.419530e-01	1.982666e-03	-1.698862e-01
8.289361e-01	1.901217e-03	-1.752724e-01
8.141429e-01	1.803883e-03	-1.792979e-01
7.908697e-01	1.676560e-03	-1.844547e-01
7.651552e-01	1.558298e-03	-1.882502e-01
7.281830e-01	1.389904e-03	-1.939855e-01
6.836205e-01	1.285813e-03	-1.964683e-01
6.202713e-01	1.062408e-03	-1.993562e-01
5.380339e-01	8.511480e-04	-1.919240e-01