# vtk DataFile Version 2.0
OUTPUT by 3D-VPM
ASCII
DATASET UNSTRUCTURED_GRID
POINTS 820 double
9.510565e-01	0.000000e+00	-3.090170e-01
9.442611e-01	0.000000e+00	-3.078203e-01
9.267277e-01	0.000000e+00	-3.047010e-01
8.963175e-01	0.000000e+00	-2.991555e-01
8.562911e-01	0.000000e+00	-2.916579e-01
8.054250e-01	0.000000e+00	-2.817457e-01
7.470317e-01	0.000000e+00	-2.699633e-01
6.809074e-01	0.000000e+00	-2.559818e-01
6.100852e-01	0.000000e+00	-2.403847e-01
5.354138e-01	0.000000e+00	-2.229691e-01
4.593635e-01	0.000000e+00	-2.042585e-01
3.837764e-01	0.000000e+00	-1.841224e-01
3.103069e-01	0.000000e+00	-1.630077e-01
2.415927e-01	0.000000e+00	-1.409228e-01
1.782654e-01	0.000000e+00	-1.183331e-01
1.234349e-01	0.000000e+00	-9.558566e-02
7.662509e-02	0.000000e+00	-7.318920e-02
4.106998e-02	0.000000e+00	-5.193053e-02
1.528206e-02	0.000000e+00	-3.215886e-02
2.347037e-03	0.000000e+00	-1.488740e-02
0.000000e+00	0.000000e+00	0.000000e+00
1.064939e-02	0.000000e+00	1.066461e-02
3.126595e-02	0.000000e+00	1.703450e-02
6.375031e-02	0.000000e+00	1.787236e-02
1.050105e-01	0.000000e+00	1.417221e-02
1.560448e-01	0.000000e+00	4.777214e-03
2.137742e-01	0.000000e+00	-9.048270e-03
2.782849e-01	0.000000e+00	-2.799567e-02
3.468570e-01	0.000000e+00	-5.051783e-02
4.187060e-01	0.000000e+00	-7.662000e-02
4.916930e-01	0.000000e+00	-1.047585e-01
5.642168e-01	0.000000e+00	-1.343226e-01
6.348639e-01	0.000000e+00	-1.641238e-01
7.013280e-01	0.000000e+00	-1.931337e-01
7.630418e-01	0.000000e+00	-2.206893e-01
8.172084e-01	0.000000e+00	-2.454799e-01
8.641863e-01	0.000000e+00	-2.673591e-01
9.009752e-01	0.000000e+00	-2.848204e-01
9.288372e-01	0.000000e+00	-2.982085e-01
9.448555e-01	0.000000e+00	-3.059908e-01
9.510565e-01	0.000000e+00	-3.090170e-01
9.510565e-01	1.052632e+00	-3.090170e-01
9.442611e-01	1.052632e+00	-3.078203e-01
9.267277e-01	1.052632e+00	-3.047010e-01
8.963175e-01	1.052632e+00	-2.991555e-01
8.562911e-01	1.052632e+00	-2.916579e-01
8.054250e-01	1.052632e+00	-2.817457e-01
7.470317e-01	1.052632e+00	-2.699633e-01
6.809074e-01	1.052632e+00	-2.559818e-01
6.100852e-01	1.052632e+00	-2.403847e-01
5.354138e-01	1.052632e+00	-2.229691e-01
4.593635e-01	1.052632e+00	-2.042585e-01
3.837764e-01	1.052632e+00	-1.841224e-01
3.103069e-01	1.052632e+00	-1.630077e-01
2.415927e-01	1.052632e+00	-1.409228e-01
1.782654e-01	1.052632e+00	-1.183331e-01
1.234349e-01	1.052632e+00	-9.558566e-02
7.662509e-02	1.052632e+00	-7.318920e-02
4.106998e-02	1.052632e+00	-5.193053e-02
1.528206e-02	1.052632e+00	-3.215886e-02
2.347037e-03	1.052632e+00	-1.488740e-02
0.000000e+00	1.052632e+00	0.000000e+00
1.064939e-02	1.052632e+00	1.066461e-02
3.126595e-02	1.052632e+00	1.703450e-02
6.375031e-02	1.052632e+00	1.787236e-02
1.050105e-01	1.052632e+00	1.417221e-02
1.560448e-01	1.052632e+00	4.777214e-03
2.137742e-01	1.052632e+00	-9.048270e-03
2.782849e-01	1.052632e+00	-2.799567e-02
3.468570e-01	1.052632e+00	-5.051783e-02
4.187060e-01	1.052632e+00	-7.662000e-02
4.916930e-01	1.052632e+00	-1.047585e-01
5.642168e-01	1.052632e+00	-1.343226e-01
6.348639e-01	1.052632e+00	-1.641238e-01
7.013280e-01	1.052632e+00	-1.931337e-01
7.630418e-01	1.052632e+00	-2.206893e-01
8.172084e-01	1.052632e+00	-2.454799e-01
8.641863e-01	1.052632e+00	-2.673591e-01
9.009752e-01	1.052632e+00	-2.848204e-01
9.288372e-01	1.052632e+00	-2.982085e-01
9.448555e-01	1.052632e+00	-3.059908e-01
9.510565e-01	1.052632e+00	-3.090170e-01
9.510565e-01	2.105263e+00	-3.090170e-01
9.442611e-01	2.105263e+00	-3.078203e-01
9.267277e-01	2.105263e+00	-3.047010e-01
8.963175e-01	2.105263e+00	-2.991555e-01
8.562911e-01	2.105263e+00	-2.916579e-01
8.054250e-01	2.105263e+00	-2.817457e-01
7.470317e-01	2.105263e+00	-2.699633e-01
6.809074e-01	2.105263e+00	-2.559818e-01
6.100852e-01	2.105263e+00	-2.403847e-01
5.354138e-01	2.105263e+00	-2.229691e-01
4.593635e-01	2.105263e+00	-2.042585e-01
3.837764e-01	2.105263e+00	-1.841224e-01
3.103069e-01	2.105263e+00	-1.630077e-01
2.415927e-01	2.105263e+00	-1.409228e-01
1.782654e-01	2.105263e+00	-1.183331e-01
1.234349e-01	2.105263e+00	-9.558566e-02
7.662509e-02	2.105263e+00	-7.318920e-02
4.106998e-02	2.105263e+00	-5.193053e-02
1.528206e-02	2.105263e+00	-3.215886e-02
2.347037e-03	2.105263e+00	-1.488740e-02
0.000000e+00	2.105263e+00	0.000000e+00
1.064939e-02	2.105263e+00	1.066461e-02
3.126595e-02	2.105263e+00	1.703450e-02
6.375031e-02	2.105263e+00	1.787236e-02
1.050105e-01	2.105263e+00	1.417221e-02
1.560448e-01	2.105263e+00	4.777214e-03
2.137742e-01	2.105263e+00	-9.048270e-03
2.782849e-01	2.105263e+00	-2.799567e-02
3.468570e-01	2.105263e+00	-5.051783e-02
4.187060e-01	2.105263e+00	-7.662000e-02
4.916930e-01	2.105263e+00	-1.047585e-01
5.642168e-01	2.105263e+00	-1.343226e-01
6.348639e-01	2.105263e+00	-1.641238e-01
7.013280e-01	2.105263e+00	-1.931337e-01
7.630418e-01	2.105263e+00	-2.206893e-01
8.172084e-01	2.105263e+00	-2.454799e-01
8.641863e-01	2.105263e+00	-2.673591e-01
9.009752e-01	2.105263e+00	-2.848204e-01
9.288372e-01	2.105263e+00	-2.982085e-01
9.448555e-01	2.105263e+00	-3.059908e-01
9.510565e-01	2.105263e+00	-3.090170e-01
9.510565e-01	3.157895e+00	-3.090170e-01
9.442611e-01	3.157895e+00	-3.078203e-01
9.267277e-01	3.157895e+00	-3.047010e-01
8.963175e-01	3.157895e+00	-2.991555e-01
8.562911e-01	3.157895e+00	-2.916579e-01
8.054250e-01	3.157895e+00	-2.817457e-01
7.470317e-01	3.157895e+00	-2.699633e-01
6.809074e-01	3.157895e+00	-2.559818e-01
6.100852e-01	3.157895e+00	-2.403847e-01
5.354138e-01	3.157895e+00	-2.229691e-01
4.593635e-01	3.157895e+00	-2.042585e-01
3.837764e-01	3.157895e+00	-1.841224e-01
3.103069e-01	3.157895e+00	-1.630077e-01
2.415927e-01	3.157895e+00	-1.409228e-01
1.782654e-01	3.157895e+00	-1.183331e-01
1.234349e-01	3.157895e+00	-9.558566e-02
7.662509e-02	3.157895e+00	-7.318920e-02
4.106998e-02	3.157895e+00	-5.193053e-02
1.528206e-02	3.157895e+00	-3.215886e-02
2.347037e-03	3.157895e+00	-1.488740e-02
0.000000e+00	3.157895e+00	0.000000e+00
1.064939e-02	3.157895e+00	1.066461e-02
3.126595e-02	3.157895e+00	1.703450e-02
6.375031e-02	3.157895e+00	1.787236e-02
1.050105e-01	3.157895e+00	1.417221e-02
1.560448e-01	3.157895e+00	4.777214e-03
2.137742e-01	3.157895e+00	-9.048270e-03
2.782849e-01	3.157895e+00	-2.799567e-02
3.468570e-01	3.157895e+00	-5.051783e-02
4.187060e-01	3.157895e+00	-7.662000e-02
4.916930e-01	3.157895e+00	-1.047585e-01
5.642168e-01	3.157895e+00	-1.343226e-01
6.348639e-01	3.157895e+00	-1.641238e-01
7.013280e-01	3.157895e+00	-1.931337e-01
7.630418e-01	3.157895e+00	-2.206893e-01
8.172084e-01	3.157895e+00	-2.454799e-01
8.641863e-01	3.157895e+00	-2.673591e-01
9.009752e-01	3.157895e+00	-2.848204e-01
9.288372e-01	3.157895e+00	-2.982085e-01
9.448555e-01	3.157895e+00	-3.059908e-01
9.510565e-01	3.157895e+00	-3.090170e-01
9.510565e-01	4.210526e+00	-3.090170e-01
9.442611e-01	4.210526e+00	-3.078203e-01
9.267277e-01	4.210526e+00	-3.047010e-01
8.963175e-01	4.210526e+00	-2.991555e-01
8.562911e-01	4.210526e+00	-2.916579e-01
8.054250e-01	4.210526e+00	-2.817457e-01
7.470317e-01	4.210526e+00	-2.699633e-01
6.809074e-01	4.210526e+00	-2.559818e-01
6.100852e-01	4.210526e+00	-2.403847e-01
5.354138e-01	4.210526e+00	-2.229691e-01
4.593635e-01	4.210526e+00	-2.042585e-01
3.837764e-01	4.210526e+00	-1.841224e-01
3.103069e-01	4.210526e+00	-1.630077e-01
2.415927e-01	4.210526e+00	-1.409228e-01
1.782654e-01	4.210526e+00	-1.183331e-01
1.234349e-01	4.210526e+00	-9.558566e-02
7.662509e-02	4.210526e+00	-7.318920e-02
4.106998e-02	4.210526e+00	-5.193053e-02
1.528206e-02	4.210526e+00	-3.215886e-02
2.347037e-03	4.210526e+00	-1.488740e-02
0.000000e+00	4.210526e+00	0.000000e+00
1.064939e-02	4.210526e+00	1.066461e-02
3.126595e-02	4.210526e+00	1.703450e-02
6.375031e-02	4.210526e+00	1.787236e-02
1.050105e-01	4.210526e+00	1.417221e-02
1.560448e-01	4.210526e+00	4.777214e-03
2.137742e-01	4.210526e+00	-9.048270e-03
2.782849e-01	4.210526e+00	-2.799567e-02
3.468570e-01	4.210526e+00	-5.051783e-02
4.187060e-01	4.210526e+00	-7.662000e-02
4.916930e-01	4.210526e+00	-1.047585e-01
5.642168e-01	4.210526e+00	-1.343226e-01
6.348639e-01	4.210526e+00	-1.641238e-01
7.013280e-01	4.210526e+00	-1.931337e-01
7.630418e-01	4.210526e+00	-2.206893e-01
8.172084e-01	4.210526e+00	-2.454799e-01
8.641863e-01	4.210526e+00	-2.673591e-01
9.009752e-01	4.210526e+00	-2.848204e-01
9.288372e-01	4.210526e+00	-2.982085e-01
9.448555e-01	4.210526e+00	-3.059908e-01
9.510565e-01	4.210526e+00	-3.090170e-01
9.510565e-01	5.263158e+00	-3.090170e-01
9.442611e-01	5.263158e+00	-3.078203e-01
9.267277e-01	5.263158e+00	-3.047010e-01
8.963175e-01	5.263158e+00	-2.991555e-01
8.562911e-01	5.263158e+00	-2.916579e-01
8.054250e-01	5.263158e+00	-2.817457e-01
7.470317e-01	5.263158e+00	-2.699633e-01
6.809074e-01	5.263158e+00	-2.559818e-01
6.100852e-01	5.263158e+00	-2.403847e-01
5.354138e-01	5.263158e+00	-2.229691e-01
4.593635e-01	5.263158e+00	-2.042585e-01
3.837764e-01	5.263158e+00	-1.841224e-01
3.103069e-01	5.263158e+00	-1.630077e-01
2.415927e-01	5.263158e+00	-1.409228e-01
1.782654e-01	5.263158e+00	-1.183331e-01
1.234349e-01	5.263158e+00	-9.558566e-02
7.662509e-02	5.263158e+00	-7.318920e-02
4.106998e-02	5.263158e+00	-5.193053e-02
1.528206e-02	5.263158e+00	-3.215886e-02
2.347037e-03	5.263158e+00	-1.488740e-02
0.000000e+00	5.263158e+00	0.000000e+00
1.064939e-02	5.263158e+00	1.066461e-02
3.126595e-02	5.263158e+00	1.703450e-02
6.375031e-02	5.263158e+00	1.787236e-02
1.050105e-01	5.263158e+00	1.417221e-02
1.560448e-01	5.263158e+00	4.777214e-03
2.137742e-01	5.263158e+00	-9.048270e-03
2.782849e-01	5.263158e+00	-2.799567e-02
3.468570e-01	5.263158e+00	-5.051783e-02
4.187060e-01	5.263158e+00	-7.662000e-02
4.916930e-01	5.263158e+00	-1.047585e-01
5.642168e-01	5.263158e+00	-1.343226e-01
6.348639e-01	5.263158e+00	-1.641238e-01
7.013280e-01	5.263158e+00	-1.931337e-01
7.630418e-01	5.263158e+00	-2.206893e-01
8.172084e-01	5.263158e+00	-2.454799e-01
8.641863e-01	5.263158e+00	-2.673591e-01
9.009752e-01	5.263158e+00	-2.848204e-01
9.288372e-01	5.263158e+00	-2.982085e-01
9.448555e-01	5.263158e+00	-3.059908e-01
9.510565e-01	5.263158e+00	-3.090170e-01
9.510565e-01	6.315789e+00	-3.090170e-01
9.442611e-01	6.315789e+00	-3.078203e-01
[...]
CELL_DATA 760
VECTORS V double
8.417060e-01	-6.854879e-02	-1.482214e-01
8.659050e-01	-6.837655e-02	-1.540498e-01
8.840373e-01	-6.793081e-02	-1.612126e-01
8.959326e-01	-6.714302e-02	-1.678219e-01
8.985315e-01	-6.599206e-02	-1.750958e-01
8.999834e-01	-6.446003e-02	-1.815954e-01
8.930935e-01	-6.253669e-02	-1.888380e-01
8.859332e-01	-6.019857e-02	-1.951082e-01
8.717496e-01	-5.741807e-02	-2.033184e-01
8.562778e-01	-5.416394e-02	-2.106690e-01
8.312625e-01	-5.040877e-02	-2.214456e-01
8.005934e-01	-4.615223e-02	-2.300856e-01
7.534533e-01	-4.140233e-02	-2.421611e-01
6.918187e-01	-3.622165e-02	-2.467812e-01
6.056376e-01	-3.064749e-02	-2.512599e-01
4.755870e-01	-2.480235e-02	-2.275478e-01
2.746688e-01	-1.869233e-02	-1.642265e-01
-1.179980e-02	-1.248323e-02	9.046939e-03
-4.155918e-01	-5.978662e-03	5.549181e-01
-3.400767e-01	5.396242e-04	2.157127e+00
2.315304e+00	8.182032e-03	2.318612e+00
2.532209e+00	1.488653e-02	7.823754e-01
2.203995e+00	2.177134e-02	5.684702e-02
1.920844e+00	2.855813e-02	-1.722581e-01
1.716690e+00	3.548688e-02	-3.160288e-01
1.567710e+00	4.239335e-02	-3.754472e-01
1.433428e+00	4.927251e-02	-4.210110e-01
1.335032e+00	5.594652e-02	-4.384845e-01
1.249380e+00	6.229808e-02	-4.538898e-01
1.180700e+00	6.814030e-02	-4.551926e-01
1.120979e+00	7.333694e-02	-4.569634e-01
1.070892e+00	7.776409e-02	-4.517368e-01
1.026899e+00	8.135952e-02	-4.482157e-01
9.867475e-01	8.411562e-02	-4.405893e-01
9.496344e-01	8.608361e-02	-4.346210e-01
9.112900e-01	8.736276e-02	-4.244195e-01
8.742250e-01	8.807973e-02	-4.149361e-01
8.341396e-01	8.838203e-02	-4.008193e-01
7.910836e-01	8.842469e-02	-3.843390e-01
7.484006e-01	8.837895e-02	-3.652266e-01
8.272530e-01	-4.806610e-02	-1.456762e-01
8.478654e-01	-4.794310e-02	-1.508405e-01
8.624712e-01	-4.762813e-02	-1.572798e-01
8.713132e-01	-4.707017e-02	-1.632103e-01
8.712223e-01	-4.624693e-02	-1.697740e-01
8.699980e-01	-4.513956e-02	-1.755451e-01
8.601733e-01	-4.373760e-02	-1.818773e-01
8.494924e-01	-4.202619e-02	-1.870829e-01
8.310285e-01	-3.999037e-02	-1.938210e-01
8.102645e-01	-3.761530e-02	-1.993484e-01
7.789081e-01	-3.489045e-02	-2.074985e-01
7.405874e-01	-3.182263e-02	-2.128403e-01
6.845000e-01	-2.842188e-02	-2.199994e-01
6.119448e-01	-2.473496e-02	-2.182890e-01
5.127458e-01	-2.078706e-02	-2.127220e-01
3.655369e-01	-1.666124e-02	-1.748936e-01
1.431209e-01	-1.235796e-02	-8.557303e-02
-1.743485e-01	-7.991067e-03	1.336735e-01
-5.952880e-01	-3.421418e-03	7.948570e-01
-4.165224e-01	1.150345e-03	2.642027e+00
2.667604e+00	6.495707e-03	2.671416e+00
2.831953e+00	1.116470e-02	8.749871e-01
2.424751e+00	1.593075e-02	6.254093e-02
2.091168e+00	2.059333e-02	-1.875325e-01
1.855792e+00	2.530944e-02	-3.416364e-01
1.685946e+00	2.996128e-02	-4.037633e-01
1.536072e+00	3.454293e-02	-4.511586e-01
1.425342e+00	3.893748e-02	-4.681465e-01
1.328851e+00	4.307321e-02	-4.827609e-01
1.250357e+00	4.683557e-02	-4.820470e-01
1.181228e+00	5.014553e-02	-4.815238e-01
1.122135e+00	5.293379e-02	-4.733526e-01
1.069395e+00	5.516976e-02	-4.667643e-01
1.020922e+00	5.685720e-02	-4.558483e-01
9.759427e-01	5.803750e-02	-4.466615e-01
9.302936e-01	5.878054e-02	-4.332701e-01
8.864462e-01	5.917388e-02	-4.207368e-01
8.401402e-01	5.931814e-02	-4.037027e-01
7.916851e-01	5.931446e-02	-3.846312e-01
7.448983e-01	5.927152e-02	-3.635175e-01
8.210623e-01	-2.036245e-02	-1.445861e-01
8.403662e-01	-2.031159e-02	-1.495063e-01
8.535083e-01	-2.018267e-02	-1.556454e-01
8.608333e-01	-1.995044e-02	-1.612473e-01
8.592111e-01	-1.959669e-02	-1.674334e-01
8.564200e-01	-1.910579e-02	-1.728053e-01
8.449864e-01	-1.844944e-02	-1.786661e-01
8.325780e-01	-1.766399e-02	-1.833579e-01
8.122228e-01	-1.671923e-02	-1.894349e-01
7.893207e-01	-1.561607e-02	-1.941956e-01
7.555539e-01	-1.435961e-02	-2.012770e-01
7.143932e-01	-1.296043e-02	-2.053122e-01
6.550169e-01	-1.142889e-02	-2.105235e-01
5.784009e-01	-9.787256e-03	-2.063235e-01
4.742698e-01	-8.045587e-03	-1.967595e-01
3.203883e-01	-6.236788e-03	-1.532919e-01
8.948719e-02	-4.357562e-03	-5.350506e-02
-2.403338e-01	-2.455276e-03	1.842646e-01
-6.679103e-01	-4.696268e-04	8.918257e-01
-4.471770e-01	1.508354e-03	2.836471e+00
2.806936e+00	3.802212e-03	2.810948e+00
2.948179e+00	5.779841e-03	9.108975e-01
2.508298e+00	7.762513e-03	6.469583e-02
2.153653e+00	9.657273e-03	-1.931361e-01
1.904977e+00	1.151920e-02	-3.506910e-01
1.726039e+00	1.329534e-02	-4.133651e-01
1.569352e+00	1.498176e-02	-4.609332e-01
1.453297e+00	1.653886e-02	-4.773281e-01
1.352318e+00	1.794865e-02	-4.912861e-01
1.269952e+00	1.918319e-02	-4.896014e-01
1.197336e+00	2.022820e-02	-4.880903e-01
1.135083e+00	2.107398e-02	-4.788143e-01
1.079413e+00	2.172157e-02	-4.711365e-01
1.028258e+00	2.216299e-02	-4.591240e-01
9.808312e-01	2.246617e-02	-4.488988e-01
9.329782e-01	2.263128e-02	-4.345204e-01
8.872048e-01	2.269356e-02	-4.210968e-01
8.392747e-01	2.269204e-02	-4.032868e-01
7.895097e-01	2.266157e-02	-3.835743e-01
7.418234e-01	2.263538e-02	-3.620169e-01
8.187173e-01	-1.020155e-02	-1.441731e-01
8.373943e-01	-1.018104e-02	-1.489776e-01
8.498231e-01	-1.012611e-02	-1.549733e-01
8.563940e-01	-1.002278e-02	-1.604157e-01
8.539957e-01	-9.860360e-03	-1.664171e-01
8.500461e-01	-9.630479e-03	-1.715192e-01
8.379055e-01	-9.324745e-03	-1.771689e-01
8.248523e-01	-8.937817e-03	-1.816565e-01
8.033906e-01	-8.467445e-03	-1.873750e-01
7.792855e-01	-7.911992e-03	-1.917267e-01
7.441984e-01	-7.273803e-03	-1.982520e-01
7.015277e-01	-6.555513e-03	-2.016147e-01
6.404217e-01	-5.763529e-03	-2.058326e-01
5.616735e-01	-4.909154e-03	-2.003566e-01
4.549643e-01	-3.996410e-03	-1.887503e-01
2.976203e-01	-3.044018e-03	-1.423984e-01
6.234196e-02	-2.049654e-03	-3.727472e-02
-2.737945e-01	-1.040137e-03	2.099190e-01
-7.047394e-01	1.470610e-05	9.410017e-01
-4.626896e-01	1.064750e-03	2.934868e+00
2.877061e+00	2.278543e-03	2.881173e+00
3.006232e+00	3.319105e-03	9.288342e-01
2.549658e+00	4.354841e-03	6.576261e-02
2.184264e+00	5.335592e-03	-1.958812e-01
1.928806e+00	6.289376e-03	-3.550777e-01
1.745249e+00	7.189926e-03	-4.179657e-01
1.585143e+00	8.033152e-03	-4.655710e-01
1.466450e+00	8.806525e-03	-4.816482e-01
1.363302e+00	9.501271e-03	-4.952767e-01
1.279121e+00	1.010841e-02	-4.931364e-01
1.204906e+00	1.062112e-02	-4.911758e-01
1.141223e+00	1.103802e-02	-4.814045e-01
1.083994e+00	1.136062e-02	-4.731362e-01
1.031704e+00	1.159503e-02	-4.606628e-01
9.835717e-01	1.175114e-02	-4.501531e-01
9.346898e-01	1.184313e-02	-4.353175e-01
8.880169e-01	1.188525e-02	-4.214822e-01
8.393346e-01	1.189504e-02	-4.033156e-01
7.889799e-01	1.188826e-02	-3.833169e-01
7.408876e-01	1.187980e-02	-3.615602e-01
8.176212e-01	-5.659733e-03	-1.439801e-01
8.359445e-01	-5.649088e-03	-1.487197e-01
8.479460e-01	-5.619845e-03	-1.546310e-01
8.540547e-01	-5.563247e-03	-1.599775e-01
8.512031e-01	-5.471899e-03	-1.658729e-01
8.471066e-01	-5.340120e-03	-1.709261e-01
8.342744e-01	-5.182232e-03	-1.764011e-01
8.203672e-01	-4.952225e-03	-1.806687e-01
7.983773e-01	-4.676111e-03	-1.862057e-01
7.736493e-01	-4.354213e-03	-1.903400e-01
7.378250e-01	-3.980737e-03	-1.965541e-01
6.942662e-01	-3.559747e-03	-1.995278e-01
6.321498e-01	-3.087397e-03	-2.031740e-01
5.521484e-01	-2.679818e-03	-1.969588e-01
4.439206e-01	-2.134016e-03	-1.841686e-01
2.845457e-01	-1.567402e-03	-1.361428e-01
4.668849e-02	-9.767567e-04	-2.791540e-02
-2.931318e-01	-3.766532e-04	2.247450e-01
-7.260386e-01	2.504594e-04	9.694414e-01
-4.716500e-01	8.743100e-04	2.991705e+00
2.917426e+00	1.593810e-03	2.921595e+00
3.039483e+00	2.208054e-03	9.391076e-01
2.573209e+00	2.816279e-03	6.637005e-02
2.201565e+00	3.387817e-03	-1.974327e-01
1.942176e+00	3.938528e-03	-3.575390e-01
1.755892e+00	4.451168e-03	-4.205144e-01
1.593805e+00	4.922969e-03	-4.681153e-01
1.473636e+00	5.451942e-03	-4.840084e-01
1.369279e+00	5.830685e-03	-4.974478e-01
1.284082e+00	6.160570e-03	-4.950491e-01
1.208977e+00	6.438773e-03	-4.928356e-01
1.144534e+00	6.664283e-03	-4.828011e-01
1.086872e+00	6.838112e-03	-4.743925e-01
1.033917e+00	6.983895e-03	-4.616509e-01
9.848636e-01	7.061440e-03	-4.507444e-01
9.355524e-01	7.107302e-03	-4.357193e-01
8.884821e-01	7.129119e-03	-4.217030e-01
8.394623e-01	7.134906e-03	-4.033769e-01
7.888257e-01	7.131958e-03	-3.832420e-01
7.405278e-01	7.127826e-03	-3.613846e-01
8.169309e-01	-3.282830e-03	-1.438585e-01
8.350498e-01	-3.278888e-03	-1.485605e-01
8.467991e-01	-3.261095e-03	-1.544219e-01
8.526144e-01	-3.226945e-03	-1.597078e-01
8.494372e-01	-3.171596e-03	-1.655288e-01
8.450263e-01	-3.089742e-03	-1.705064e-01
8.318868e-01	-2.980030e-03	-1.758963e-01
8.176449e-01	-2.840599e-03	-1.800692e-01
7.953203e-01	-2.670125e-03	-1.854927e-01
7.701557e-01	-2.468944e-03	-1.894805e-01
7.338150e-01	-2.236041e-03	-1.954859e-01
6.896244e-01	-1.972579e-03	-1.981938e-01
6.281563e-01	-1.675469e-03	-2.018905e-01
5.475867e-01	-1.462706e-03	-1.953316e-01
4.368602e-01	-1.120330e-03	-1.812395e-01
2.763119e-01	-7.649682e-04	-1.322033e-01
3.691120e-02	-3.957404e-04	-2.206948e-02
-3.051815e-01	-2.082450e-05	2.339835e-01
-7.392882e-01	3.709594e-04	9.871329e-01
-4.772147e-01	7.603678e-04	3.027002e+00
2.942406e+00	1.208633e-03	2.946611e+00
3.059961e+00	1.590229e-03	9.454346e-01
2.587611e+00	1.966440e-03	6.674152e-02
2.212043e+00	2.318143e-03	-1.983724e-01
1.950124e+00	2.654618e-03	-3.590022e-01
1.762093e+00	2.964001e-03	-4.219995e-01
1.600354e+00	3.247840e-03	-4.700388e-01
1.478980e+00	3.606657e-03	-4.857637e-01
1.372534e+00	3.826182e-03	-4.986305e-01
1.286794e+00	4.016948e-03	-4.960945e-01
1.211213e+00	4.178173e-03	-4.937472e-01
1.146327e+00	4.307076e-03	-4.835574e-01
1.088265e+00	4.405555e-03	-4.750004e-01
1.034957e+00	4.475990e-03	-4.621152e-01
9.855772e-01	4.522042e-03	-4.510709e-01
9.359870e-01	4.547722e-03	-4.359217e-01
8.886928e-01	4.559441e-03	-4.218030e-01
8.394716e-01	4.561514e-03	-4.033814e-01
7.886681e-01	4.558693e-03	-3.831654e-01
7.402548e-01	4.558305e-03	-3.612514e-01
8.169596e-01	-1.992066e-03	-1.438636e-01
8.346051e-01	-1.987901e-03	-1.484814e-01
8.461174e-01	-1.976837e-03	-1.542976e-01
8.517676e-01	-1.955337e-03	-1.595491e-01
8.483970e-01	-1.915003e-03	-1.653261e-01
8.437748e-01	-1.936545e-03	-1.702538e-01
8.304210e-01	-1.863384e-03	-1.755864e-01
8.159527e-01	-1.777106e-03	-1.796965e-01
7.933611e-01	-1.672100e-03	-1.850358e-01
7.679501e-01	-1.546947e-03	-1.889378e-01
7.313377e-01	-1.405229e-03	-1.948259e-01
6.867973e-01	-1.258509e-03	-1.973813e-01
6.250218e-01	-1.088040e-03	-2.008830e-01
5.439812e-01	-7.998350e-04	-1.940455e-01
4.325651e-01	-6.000672e-04	-1.794576e-01
2.712021e-01	-3.850626e-04	-1.297585e-01
3.079530e-02	-1.572306e-04	-1.841274e-02
-3.127408e-01	7.561032e-05	2.397793e-01
-7.476152e-01	3.198350e-04	9.982516e-01
-4.807090e-01	5.627278e-04	3.049166e+00
2.958074e+00	8.423079e-04	2.962301e+00
3.072774e+00	1.080167e-03	9.493936e-01
2.596616e+00	1.314410e-03	6.697379e-02
2.218592e+00	1.533694e-03	-1.989597e-01
1.955117e+00	1.744210e-03	-3.599213e-01
1.766040e+00	1.941389e-03	-4.229449e-01
1.603602e+00	2.127871e-03	-4.709925e-01
1.481600e+00	2.192275e-03	-4.866242e-01
1.374624e+00	2.348811e-03	-4.993896e-01
1.288524e+00	2.470587e-03	-4.967614e-01
1.212610e+00	2.570172e-03	-4.943167e-01
1.147440e+00	2.648678e-03	-4.840271e-01
1.089135e+00	2.708074e-03	-4.753801e-01
1.035606e+00	2.749644e-03	-4.624050e-01
9.860314e-01	2.770376e-03	-4.512788e-01
9.362704e-01	2.855683e-03	-4.360537e-01
8.888245e-01	2.854855e-03	-4.218656e-01
8.394679e-01	2.854569e-03	-4.033796e-01
7.886391e-01	2.852259e-03	-3.831513e-01
7.404684e-01	2.850237e-03	-3.613556e-01
8.162320e-01	-1.173366e-03	-1.437355e-01
8.341580e-01	-1.168200e-03	-1.484019e-01
8.456515e-01	-1.161893e-03	-1.542126e-01
8.510211e-01	-1.149691e-03	-1.594093e-01
8.491745e-01	-1.130214e-03	-1.654776e-01
8.440293e-01	-1.101537e-03	-1.703052e-01
8.294253e-01	-1.062373e-03	-1.753758e-01
8.149203e-01	-9.994827e-04	-1.794691e-01
7.922135e-01	-1.001847e-03	-1.847682e-01
7.666521e-01	-9.232699e-04	-1.886185e-01
7.300442e-01	-8.383974e-04	-1.944813e-01
6.853995e-01	-7.469620e-04	-1.969796e-01
6.218302e-01	-6.515846e-04	-1.998572e-01
5.402621e-01	-4.386456e-04	-1.927189e-01
4.301179e-01	-3.248010e-04	-1.784423e-01
2.681640e-01	-2.005873e-04	-1.283049e-01
2.707599e-02	-6.794654e-05	-1.618894e-02
-3.173792e-01	6.773349e-05	2.433355e-01
-7.527416e-01	2.208044e-04	1.005097e+00
-4.828650e-01	3.625649e-04	3.062842e+00
2.967750e+00	5.265273e-04	2.971991e+00
3.080699e+00	6.666480e-04	9.518420e-01
2.602196e+00	7.938542e-04	6.711771e-02
2.222680e+00	9.229304e-04	-1.993263e-01
1.958299e+00	1.046714e-03	-3.605072e-01
1.768663e+00	1.163299e-03	-4.235730e-01
1.604068e+00	1.274782e-03	-4.711294e-01
1.482087e+00	1.267815e-03	-4.867842e-01
1.376156e+00	1.357863e-03	-4.999462e-01
1.289587e+00	1.429579e-03	-4.971713e-01
1.213444e+00	1.485418e-03	-4.946563e-01
1.148090e+00	1.524590e-03	-4.843010e-01
1.089618e+00	1.620514e-03	-4.755909e-01
1.035866e+00	1.630224e-03	-4.625209e-01
9.872035e-01	1.644470e-03	-4.518152e-01
9.377024e-01	1.652014e-03	-4.367206e-01
8.886658e-01	1.654774e-03	-4.217902e-01
8.394043e-01	1.654477e-03	-4.033491e-01
7.884619e-01	1.653116e-03	-3.830652e-01
7.399452e-01	1.649278e-03	-3.611003e-01
8.160928e-01	-1.440997e-03	-1.437110e-01
8.340009e-01	-1.441456e-03	-1.483739e-01
8.454654e-01	-1.443727e-03	-1.541786e-01
8.509588e-01	-1.430076e-03	-1.593977e-01
8.474123e-01	-1.401173e-03	-1.651342e-01
8.425942e-01	-1.349219e-03	-1.700156e-01
8.288339e-01	-1.197246e-03	-1.752508e-01
8.151223e-01	-1.228307e-03	-1.795136e-01
7.923133e-01	-1.048355e-03	-1.847914e-01
7.658045e-01	-1.092186e-03	-1.884100e-01
7.290331e-01	-7.376116e-04	-1.942120e-01
6.843063e-01	-7.780063e-04	-1.966654e-01
6.207865e-01	-3.533132e-04	-1.995218e-01
5.390474e-01	-4.156810e-04	-1.922856e-01
4.286970e-01	6.754490e-05	-1.778528e-01
2.664778e-01	3.968755e-04	-1.274981e-01
2.506704e-02	5.844520e-04	-1.498777e-02
-3.200803e-01	6.007998e-04	2.454065e-01
-7.558174e-01	6.438724e-04	1.009203e+00
-4.840138e-01	7.001175e-04	3.070129e+00
2.972973e+00	7.749518e-04	2.977222e+00
3.084419e+00	8.473428e-04	9.529915e-01
2.604911e+00	9.321804e-04	6.718775e-02
2.224850e+00	1.036528e-03	-1.995209e-01
1.959938e+00	9.656701e-04	-3.608089e-01
1.769947e+00	7.457327e-04	-4.238806e-01
1.605099e+00	3.644253e-04	-4.714324e-01
1.482796e+00	5.191464e-04	-4.870170e-01
1.376729e+00	1.591253e-04	-5.001545e-01
1.290133e+00	2.967342e-04	-4.973818e-01
1.213801e+00	7.677630e-06	-4.948019e-01
1.149149e+00	1.061401e-04	-4.847478e-01
1.090579e+00	-3.321388e-05	-4.760103e-01
1.035947e+00	3.070468e-05	-4.625571e-01
9.863867e-01	-9.735969e-05	-4.514414e-01
9.364698e-01	-1.328905e-04	-4.361465e-01
8.888896e-01	-1.520326e-04	-4.218964e-01
8.394236e-01	-1.605742e-04	-4.033583e-01
7.884345e-01	-1.562406e-04	-3.830519e-01
7.398805e-01	-1.552822e-04	-3.610687e-01
8.163090e-01	1.585952e-05	-1.437490e-01
8.343274e-01	1.589246e-05	-1.484320e-01
8.451729e-01	1.592913e-05	-1.541253e-01
8.499174e-01	1.596463e-05	-1.592026e-01
8.475070e-01	1.610223e-05	-1.651527e-01
8.404024e-01	2.505826e-05	-1.695734e-01
8.277023e-01	-5.440553e-06	-1.750115e-01
8.127119e-01	-1.854020e-05	-1.789828e-01
7.904367e-01	4.512814e-05	-1.843537e-01
7.625479e-01	4.278870e-05	-1.876087e-01
7.259054e-01	-1.021929e-05	-1.933788e-01
6.803972e-01	-6.357919e-06	-1.955420e-01
6.165751e-01	-5.345289e-06	-1.981682e-01
5.343922e-01	-5.330759e-06	-1.906250e-01
4.167162e-01	-5.731616e-06	-1.728824e-01
2.583981e-01	-6.352078e-06	-1.236323e-01
2.229127e-02	-7.037996e-06	-1.332812e-02
-3.187941e-01	-7.535850e-06	2.444204e-01
-7.554086e-01	-1.901928e-05	1.008658e+00
-4.842645e-01	-2.011074e-05	3.071719e+00
2.975043e+00	-2.247397e-05	2.979294e+00
3.087728e+00	-2.543159e-05	9.540138e-01
2.608414e+00	-1.779219e-05	6.727809e-02
2.223006e+00	-2.096326e-05	-1.993555e-01
1.952187e+00	-2.377753e-05	-3.593819e-01
1.758170e+00	-2.639784e-05	-4.210600e-01
1.601026e+00	-2.901288e-05	-4.702360e-01
1.479010e+00	-3.183558e-05	-4.857735e-01
1.373384e+00	-3.557117e-05	-4.989393e-01
1.287642e+00	-4.225172e-05	-4.964216e-01
1.211034e+00	6.419903e-06	-4.936741e-01
1.147626e+00	5.353665e-06	-4.841055e-01
1.088528e+00	-6.068467e-05	-4.751150e-01
1.035078e+00	-5.214521e-05	-4.621694e-01
9.844915e-01	-3.611590e-05	-4.505741e-01
9.366597e-01	-3.752283e-05	-4.362350e-01
8.880039e-01	-3.758814e-05	-4.214761e-01
8.392016e-01	-3.792025e-05	-4.032517e-01
7.887599e-01	-3.817148e-05	-3.832100e-01
7.400920e-01	-3.827084e-05	-3.611720e-01
8.160873e-01	1.433904e-03	-1.437100e-01
8.339973e-01	1.434015e-03	-1.483733e-01
8.454630e-01	1.435141e-03	-1.541782e-01
8.509542e-01	1.418779e-03	-1.593968e-01
8.472132e-01	1.379672e-03	-1.650954e-01
8.430102e-01	1.393972e-03	-1.700996e-01
8.294914e-01	1.230386e-03	-1.753898e-01
8.143700e-01	1.256758e-03	-1.793479e-01
7.915038e-01	1.000818e-03	-1.846026e-01
7.665342e-01	1.059252e-03	-1.885895e-01
7.296802e-01	7.169875e-04	-1.943844e-01
6.842405e-01	7.734655e-04	-1.966465e-01
6.207718e-01	3.495818e-04	-1.995171e-01
5.390529e-01	4.118802e-04	-1.922875e-01
4.287135e-01	-7.179555e-05	-1.778597e-01
2.665018e-01	-4.017306e-04	-1.275095e-01
2.509282e-02	-5.896260e-04	-1.500318e-02
-3.198181e-01	-6.325995e-04	2.452055e-01
-7.554115e-01	-6.768591e-04	1.008662e+00
-4.839784e-01	-7.358712e-04	3.069905e+00
2.972704e+00	-8.153007e-04	2.976952e+00
3.084721e+00	-8.927866e-04	9.530846e-01
2.605000e+00	-9.841325e-04	6.719003e-02
2.224702e+00	-1.070309e-03	-1.995076e-01
1.959829e+00	-1.005732e-03	-3.607888e-01
1.769858e+00	-7.906226e-04	-4.238591e-01
1.605017e+00	-4.129341e-04	-4.714081e-01
1.482705e+00	-5.699140e-04	-4.869870e-01
1.376592e+00	-2.200736e-04	-5.001049e-01
1.290667e+00	-3.566609e-04	-4.975878e-01
1.214400e+00	-7.007244e-05	-4.950460e-01
1.148309e+00	-9.510404e-05	-4.843936e-01
1.089781e+00	2.718572e-05	-4.756622e-01
1.036294e+00	-4.791507e-05	-4.627122e-01
9.866388e-01	8.092217e-05	-4.515568e-01
9.364402e-01	4.283912e-05	-4.361327e-01
8.888813e-01	6.687361e-05	-4.218925e-01
8.394054e-01	7.485473e-05	-4.033496e-01
7.884159e-01	7.013272e-05	-3.830429e-01
7.398653e-01	6.911442e-05	-3.610613e-01
8.162903e-01	1.184354e-03	-1.437457e-01
8.342474e-01	1.181444e-03	-1.484178e-01
8.457895e-01	1.173910e-03	-1.542378e-01
8.513652e-01	1.159474e-03	-1.594738e-01
8.479063e-01	1.136597e-03	-1.652305e-01
8.431766e-01	1.094893e-03	-1.701331e-01
8.296708e-01	1.081838e-03	-1.754277e-01
8.160977e-01	1.027893e-03	-1.797284e-01
7.930175e-01	9.630222e-04	-1.849557e-01
7.662990e-01	8.840515e-04	-1.885316e-01
7.296733e-01	8.378641e-04	-1.943825e-01
6.851701e-01	7.370098e-04	-1.969137e-01
6.218195e-01	6.287056e-04	-1.998538e-01
5.402696e-01	5.112755e-04	-1.927215e-01
4.301349e-01	3.865272e-04	-1.784494e-01
2.681815e-01	2.562463e-04	-1.283132e-01
2.758661e-02	1.215538e-04	-1.649424e-02
-3.165605e-01	-1.148611e-05	2.427078e-01
-7.526414e-01	-2.621289e-04	1.004963e+00
-4.827879e-01	-4.019964e-04	3.062353e+00
2.967264e+00	-5.721857e-04	2.971504e+00
3.080175e+00	-7.248999e-04	9.516803e-01
2.602701e+00	-7.656368e-04	6.713074e-02
2.222904e+00	-9.075093e-04	-1.993464e-01
1.958079e+00	-1.039002e-03	-3.604666e-01
1.768520e+00	-1.158639e-03	-4.235386e-01
1.603980e+00	-1.267681e-03	-4.711036e-01
1.481911e+00	-1.363529e-03	-4.867264e-01
1.376039e+00	-1.447415e-03	-4.999038e-01
1.289568e+00	-1.515738e-03	-4.971641e-01
1.214327e+00	-1.616164e-03	-4.950165e-01
1.148830e+00	-1.659448e-03	-4.846135e-01
1.089239e+00	-1.693548e-03	-4.754255e-01
1.035708e+00	-1.715478e-03	-4.624505e-01
9.861180e-01	-1.749097e-03	-4.513185e-01
9.362925e-01	-1.758227e-03	-4.360640e-01
8.887804e-01	-1.763351e-03	-4.218446e-01
8.393744e-01	-1.764338e-03	-4.033347e-01
7.884360e-01	-1.763379e-03	-3.830526e-01
7.399361e-01	-1.762115e-03	-3.610959e-01
8.165757e-01	2.063684e-03	-1.437960e-01
8.346070e-01	2.059187e-03	-1.484817e-01
8.462363e-01	2.047219e-03	-1.543192e-01
8.519065e-01	2.024985e-03	-1.595752e-01
8.485458e-01	1.990430e-03	-1.653551e-01
8.439209e-01	1.943972e-03	-1.702833e-01
8.305522e-01	1.851713e-03	-1.756141e-01
8.160621e-01	1.768568e-03	-1.797206e-01
7.934458e-01	1.736126e-03	-1.850556e-01
7.681747e-01	1.594592e-03	-1.889931e-01
7.315983e-01	1.435222e-03	-1.948954e-01
6.870286e-01	1.263860e-03	-1.974478e-01
6.239069e-01	1.077882e-03	-2.005247e-01
5.426512e-01	8.781064e-04	-1.935711e-01