# vtk DataFile Version 2.0
OUTPUT by 3D-VPM
ASCII
DATASET UNSTRUCTURED_GRID
POINTS 820 double
9.510565e-01	0.000000e+00	-3.090170e-01
9.442611e-01	0.000000e+00	-3.078203e-01
9.267277e-01	0.000000e+00	-3.047010e-01
8.963175e-01	0.000000e+00	-2.991555e-01
8.562911e-01	0.000000e+00	-2.916579e-01
8.054250e-01	0.000000e+00	-2.817457e-01
7.470317e-01	0.000000e+00	-2.699633e-01
6.809074e-01	0.000000e+00	-2.559818e-01
6.100852e-01	0.000000e+00	-2.403847e-01
5.354138e-01	0.000000e+00	-2.229691e-01
4.593635e-01	0.000000e+00	-2.042585e-01
3.837764e-01	0.000000e+00	-1.841224e-01
3.103069e-01	0.000000e+00	-1.630077e-01
2.415927e-01	0.000000e+00	-1.409228e-01
1.782654e-01	0.000000e+00	-1.183331e-01
1.234349e-01	0.000000e+00	-9.558566e-02
7.662509e-02	0.000000e+00	-7.318920e-02
4.106998e-02	0.000000e+00	-5.193053e-02
1.528206e-02	0.000000e+00	-3.215886e-02
2.347037e-03	0.000000e+00	-1.488740e-02
0.000000e+00	0.000000e+00	0.000000e+00
1.064939e-02	0.000000e+00	1.066461e-02
3.126595e-02	0.000000e+00	1.703450e-02
6.375031e-02	0.000000e+00	1.787236e-02
1.050105e-01	0.000000e+00	1.417221e-02
1.560448e-01	0.000000e+00	4.777214e-03
2.137742e-01	0.000000e+00	-9.048270e-03
2.782849e-01	0.000000e+00	-2.799567e-02
3.468570e-01	0.000000e+00	-5.051783e-02
4.187060e-01	0.000000e+00	-7.662000e-02
4.916930e-01	0.000000e+00	-1.047585e-01
5.642168e-01	0.000000e+00	-1.343226e-01
6.348639e-01	0.000000e+00	-1.641238e-01
7.013280e-01	0.000000e+00	-1.931337e-01
7.630418e-01	0.000000e+00	-2.206893e-01
8.172084e-01	0.000000e+00	-2.454799e-01
8.641863e-01	0.000000e+00	-2.673591e-01
9.009752e-01	0.000000e+00	-2.848204e-01
9.288372e-01	0.000000e+00	-2.982085e-01
9.448555e-01	0.000000e+00	-3.059908e-01
9.510565e-01	0.000000e+00	-3.090170e-01
9.510565e-01	1.052632e+00	-3.090170e-01
9.442611e-01	1.052632e+00	-3.078203e-01
9.267277e-01	1.052632e+00	-3.047010e-01
8.963175e-01	1.052632e+00	-2.991555e-01
8.562911e-01	1.052632e+00	-2.916579e-01
8.054250e-01	1.052632e+00	-2.817457e-01
7.470317e-01	1.052632e+00	-2.699633e-01
6.809074e-01	1.052632e+00	-2.559818e-01
6.100852e-01	1.052632e+00	-2.403847e-01
5.354138e-01	1.052632e+00	-2.229691e-01
4.593635e-01	1.052632e+00	-2.042585e-01
3.837764e-01	1.052632e+00	-1.841224e-01
3.103069e-01	1.052632e+00	-1.630077e-01
2.415927e-01	1.052632e+00	-1.409228e-01
1.782654e-01	1.052632e+00	-1.183331e-01
1.234349e-01	1.052632e+00	-9.558566e-02
7.662509e-02	1.052632e+00	-7.318920e-02
4.106998e-02	1.052632e+00	-5.193053e-02
1.528206e-02	1.052632e+00	-3.215886e-02
2.347037e-03	1.052632e+00	-1.488740e-02
0.000000e+00	1.052632e+00	0.000000e+00
1.064939e-02	1.052632e+00	1.066461e-02
3.126595e-02	1.052632e+00	1.703450e-02
6.375031e-02	1.052632e+00	1.787236e-02
1.050105e-01	1.052632e+00	1.417221e-02
1.560448e-01	1.052632e+00	4.777214e-03
2.137742e-01	1.052632e+00	-9.048270e-03
2.782849e-01	1.052632e+00	-2.799567e-02
3.468570e-01	1.052632e+00	-5.051783e-02
4.187060e-01	1.052632e+00	-7.662000e-02
4.916930e-01	1.052632e+00	-1.047585e-01
5.642168e-01	1.052632e+00	-1.343226e-01
6.348639e-01	1.052632e+00	-1.641238e-01
7.013280e-01	1.052632e+00	-1.931337e-01
7.630418e-01	1.052632e+00	-2.206893e-01
8.172084e-01	1.052632e+00	-2.454799e-01
8.641863e-01	1.052632e+00	-2.673591e-01
9.009752e-01	1.052632e+00	-2.848204e-01
9.288372e-01	1.052632e+00	-2.982085e-01
9.448555e-01	1.052632e+00	-3.059908e-01
9.510565e-01	1.052632e+00	-3.090170e-01
9.510565e-01	2.105263e+00	-3.090170e-01
9.442611e-01	2.105263e+00	-3.078203e-01
9.267277e-01	2.105263e+00	-3.047010e-01
8.963175e-01	2.105263e+00	-2.991555e-01
8.562911e-01	2.105263e+00	-2.916579e-01
8.054250e-01	2.105263e+00	-2.817457e-01
7.470317e-01	2.105263e+00	-2.699633e-01
6.809074e-01	2.105263e+00	-2.559818e-01
6.100852e-01	2.105263e+00	-2.403847e-01
5.354138e-01	2.105263e+00	-2.229691e-01
4.593635e-01	2.105263e+00	-2.042585e-01
3.837764e-01	2.105263e+00	-1.841224e-01
3.103069e-01	2.105263e+00	-1.630077e-01
2.415927e-01	2.105263e+00	-1.409228e-01
1.782654e-01	2.105263e+00	-1.183331e-01
1.234349e-01	2.105263e+00	-9.558566e-02
7.662509e-02	2.105263e+00	-7.318920e-02
4.106998e-02	2.105263e+00	-5.193053e-02
1.528206e-02	2.105263e+00	-3.215886e-02
2.347037e-03	2.105263e+00	-1.488740e-02
0.000000e+00	2.105263e+00	0.000000e+00
1.064939e-02	2.105263e+00	1.066461e-02
3.126595e-02	2.105263e+00	1.703450e-02
6.375031e-02	2.105263e+00	1.787236e-02
1.050105e-01	2.105263e+00	1.417221e-02
1.560448e-01	2.105263e+00	4.777214e-03
2.137742e-01	2.105263e+00	-9.048270e-03
2.782849e-01	2.105263e+00	-2.799567e-02
3.468570e-01	2.105263e+00	-5.051783e-02
4.187060e-01	2.105263e+00	-7.662000e-02
4.916930e-01	2.105263e+00	-1.047585e-01
5.642168e-01	2.105263e+00	-1.343226e-01
6.348639e-01	2.105263e+00	-1.641238e-01
7.013280e-01	2.105263e+00	-1.931337e-01
7.630418e-01	2.105263e+00	-2.206893e-01
8.172084e-01	2.105263e+00	-2.454799e-01
8.641863e-01	2.105263e+00	-2.673591e-01
9.009752e-01	2.105263e+00	-2.848204e-01
9.288372e-01	2.105263e+00	-2.982085e-01
9.448555e-01	2.105263e+00	-3.059908e-01
9.510565e-01	2.105263e+00	-3.090170e-01
9.510565e-01	3.157895e+00	-3.090170e-01
9.442611e-01	3.157895e+00	-3.078203e-01
9.267277e-01	3.157895e+00	-3.047010e-01
8.963175e-01	3.157895e+00	-2.991555e-01
8.562911e-01	3.157895e+00	-2.916579e-01
8.054250e-01	3.157895e+00	-2.817457e-01
7.470317e-01	3.157895e+00	-2.699633e-01
6.809074e-01	3.157895e+00	-2.559818e-01
6.100852e-01	3.157895e+00	-2.403847e-01
5.354138e-01	3.157895e+00	-2.229691e-01
4.593635e-01	3.157895e+00	-2.042585e-01
3.837764e-01	3.157895e+00	-1.841224e-01
3.103069e-01	3.157895e+00	-1.630077e-01
2.415927e-01	3.157895e+00	-1.409228e-01
1.782654e-01	3.157895e+00	-1.183331e-01
1.234349e-01	3.157895e+00	-9.558566e-02
7.662509e-02	3.157895e+00	-7.318920e-02
4.106998e-02	3.157895e+00	-5.193053e-02
1.528206e-02	3.157895e+00	-3.215886e-02
2.347037e-03	3.157895e+00	-1.488740e-02
0.000000e+00	3.157895e+00	0.000000e+00
1.064939e-02	3.157895e+00	1.066461e-02
3.126595e-02	3.157895e+00	1.703450e-02
6.375031e-02	3.157895e+00	1.787236e-02
1.050105e-01	3.157895e+00	1.417221e-02
1.560448e-01	3.157895e+00	4.777214e-03
2.137742e-01	3.157895e+00	-9.048270e-03
2.782849e-01	3.157895e+00	-2.799567e-02
3.468570e-01	3.157895e+00	-5.051783e-02
4.187060e-01	3.157895e+00	-7.662000e-02
4.916930e-01	3.157895e+00	-1.047585e-01
5.642168e-01	3.157895e+00	-1.343226e-01
6.348639e-01	3.157895e+00	-1.641238e-01
7.013280e-01	3.157895e+00	-1.931337e-01
7.630418e-01	3.157895e+00	-2.206893e-01
8.172084e-01	3.157895e+00	-2.454799e-01
8.641863e-01	3.157895e+00	-2.673591e-01
9.009752e-01	3.157895e+00	-2.848204e-01
9.288372e-01	3.157895e+00	-2.982085e-01
9.448555e-01	3.157895e+00	-3.059908e-01
9.510565e-01	3.157895e+00	-3.090170e-01
9.510565e-01	4.210526e+00	-3.090170e-01
9.442611e-01	4.210526e+00	-3.078203e-01
9.267277e-01	4.210526e+00	-3.047010e-01
8.963175e-01	4.210526e+00	-2.991555e-01
8.562911e-01	4.210526e+00	-2.916579e-01
8.054250e-01	4.210526e+00	-2.817457e-01
7.470317e-01	4.210526e+00	-2.699633e-01
6.809074e-01	4.210526e+00	-2.559818e-01
6.100852e-01	4.210526e+00	-2.403847e-01
5.354138e-01	4.210526e+00	-2.229691e-01
4.593635e-01	4.210526e+00	-2.042585e-01
3.837764e-01	4.210526e+00	-1.841224e-01
3.103069e-01	4.210526e+00	-1.630077e-01
2.415927e-01	4.210526e+00	-1.409228e-01
1.782654e-01	4.210526e+00	-1.183331e-01
1.234349e-01	4.210526e+00	-9.558566e-02
7.662509e-02	4.210526e+00	-7.318920e-02
4.106998e-02	4.210526e+00	-5.193053e-02
1.528206e-02	4.210526e+00	-3.215886e-02
2.347037e-03	4.210526e+00	-1.488740e-02
0.000000e+00	4.210526e+00	0.000000e+00
1.064939e-02	4.210526e+00	1.066461e-02
3.126595e-02	4.210526e+00	1.703450e-02
6.375031e-02	4.210526e+00	1.787236e-02
1.050105e-01	4.210526e+00	1.417221e-02
1.560448e-01	4.210526e+00	4.777214e-03
2.137742e-01	4.210526e+00	-9.048270e-03
2.782849e-01	4.210526e+00	-2.799567e-02
3.468570e-01	4.210526e+00	-5.051783e-02
4.187060e-01	4.210526e+00	-7.662000e-02
4.916930e-01	4.210526e+00	-1.047585e-01
5.642168e-01	4.210526e+00	-1.343226e-01
6.348639e-01	4.210526e+00	-1.641238e-01
7.013280e-01	4.210526e+00	-1.931337e-01
7.630418e-01	4.210526e+00	-2.206893e-01
8.172084e-01	4.210526e+00	-2.454799e-01
8.641863e-01	4.210526e+00	-2.673591e-01
9.009752e-01	4.210526e+00	-2.848204e-01
9.288372e-01	4.210526e+00	-2.982085e-01
9.448555e-01	4.210526e+00	-3.059908e-01
9.510565e-01	4.210526e+00	-3.090170e-01
9.510565e-01	5.263158e+00	-3.090170e-01
9.442611e-01	5.263158e+00	-3.078203e-01
9.267277e-01	5.263158e+00	-3.047010e-01
8.963175e-01	5.263158e+00	-2.991555e-01
8.562911e-01	5.263158e+00	-2.916579e-01
8.054250e-01	5.263158e+00	-2.817457e-01
7.470317e-01	5.263158e+00	-2.699633e-01
6.809074e-01	5.263158e+00	-2.559818e-01
6.100852e-01	5.263158e+00	-2.403847e-01
5.354138e-01	5.263158e+00	-2.229691e-01
4.593635e-01	5.263158e+00	-2.042585e-01
3.837764e-01	5.263158e+00	-1.841224e-01
3.103069e-01	5.263158e+00	-1.630077e-01
2.415927e-01	5.263158e+00	-1.409228e-01
1.782654e-01	5.263158e+00	-1.183331e-01
1.234349e-01	5.263158e+00	-9.558566e-02
7.662509e-02	5.263158e+00	-7.318920e-02
4.106998e-02	5.263158e+00	-5.193053e-02
1.528206e-02	5.263158e+00	-3.215886e-02
2.347037e-03	5.263158e+00	-1.488740e-02
0.000000e+00	5.263158e+00	0.000000e+00
1.064939e-02	5.263158e+00	1.066461e-02
3.126595e-02	5.263158e+00	1.703450e-02
6.375031e-02	5.263158e+00	1.787236e-02
1.050105e-01	5.263158e+00	1.417221e-02
1.560448e-01	5.263158e+00	4.777214e-03
2.137742e-01	5.263158e+00	-9.048270e-03
2.782849e-01	5.263158e+00	-2.799567e-02
3.468570e-01	5.263158e+00	-5.051783e-02
4.187060e-01	5.263158e+00	-7.662000e-02
4.916930e-01	5.263158e+00	-1.047585e-01
5.642168e-01	5.263158e+00	-1.343226e-01
6.348639e-01	5.263158e+00	-1.641238e-01
7.013280e-01	5.263158e+00	-1.931337e-01
7.630418e-01	5.263158e+00	-2.206893e-01
8.172084e-01	5.263158e+00	-2.454799e-01
8.641863e-01	5.263158e+00	-2.673591e-01
9.009752e-01	5.263158e+00	-2.848204e-01
9.288372e-01	5.263158e+00	-2.982085e-01
9.448555e-01	5.263158e+00	-3.059908e-01
9.510565e-01	5.263158e+00	-3.090170e-01
9.510565e-01	6.315789e+00	-3.090170e-01
9.442611e-01	6.315789e+00	-3.078203e-01
[...]
CELL_DATA 760
VECTORS V double
8.414213e-01	-6.903853e-02	-1.481712e-01
8.655418e-01	-6.886495e-02	-1.539852e-01
8.835560e-01	-6.841520e-02	-1.611248e-01
8.953209e-01	-6.762080e-02	-1.677074e-01
8.977847e-01	-6.645987e-02	-1.749502e-01
8.990958e-01	-6.491478e-02	-1.814163e-01
8.920566e-01	-6.297519e-02	-1.886188e-01
8.847446e-01	-6.061704e-02	-1.948465e-01
8.704088e-01	-5.781183e-02	-2.030057e-01
8.547671e-01	-5.452697e-02	-2.102973e-01
8.294603e-01	-5.073695e-02	-2.209655e-01
7.985362e-01	-4.642756e-02	-2.294944e-01
7.511844e-01	-4.163177e-02	-2.414319e-01
6.891564e-01	-3.640076e-02	-2.458315e-01
6.025012e-01	-3.077249e-02	-2.499587e-01
4.718179e-01	-2.486980e-02	-2.257444e-01
2.700991e-01	-1.870069e-02	-1.614943e-01
-1.748548e-02	-1.243122e-02	1.340617e-02
-4.218819e-01	-5.862837e-03	5.633169e-01
-3.427278e-01	7.183186e-04	2.173943e+00
2.327204e+00	8.432132e-03	2.330530e+00
2.541846e+00	1.519747e-02	7.853530e-01
2.210658e+00	2.214424e-02	5.701889e-02
1.925602e+00	2.899215e-02	-1.726848e-01
1.720241e+00	3.598221e-02	-3.166825e-01
1.570447e+00	4.294932e-02	-3.761027e-01
1.435586e+00	4.988784e-02	-4.216449e-01
1.336763e+00	5.661928e-02	-4.390531e-01
1.250659e+00	6.302548e-02	-4.543544e-01
1.181713e+00	6.890860e-02	-4.555831e-01
1.121880e+00	7.415313e-02	-4.573309e-01
1.071620e+00	7.862195e-02	-4.520439e-01
1.027479e+00	8.225282e-02	-4.484687e-01
9.872029e-01	8.503800e-02	-4.407927e-01
9.499805e-01	8.702886e-02	-4.347793e-01
9.115277e-01	8.832333e-02	-4.245301e-01
8.743601e-01	8.904970e-02	-4.150003e-01
8.341854e-01	8.935705e-02	-4.008413e-01
7.910568e-01	8.940104e-02	-3.843260e-01
7.483057e-01	8.935537e-02	-3.651803e-01
8.268558e-01	-4.834728e-02	-1.456063e-01
8.473433e-01	-4.822297e-02	-1.507476e-01
8.618053e-01	-4.790444e-02	-1.571584e-01
8.704908e-01	-4.734062e-02	-1.630563e-01
8.702413e-01	-4.650887e-02	-1.695829e-01
8.688561e-01	-4.539038e-02	-1.753146e-01
8.588559e-01	-4.397445e-02	-1.815987e-01
8.479851e-01	-4.224610e-02	-1.867510e-01
8.293133e-01	-4.019049e-02	-1.934209e-01
8.083233e-01	-3.779244e-02	-1.988708e-01
7.765333e-01	-3.502217e-02	-2.068659e-01
7.378707e-01	-3.193016e-02	-2.120595e-01
6.815630e-01	-2.849375e-02	-2.190555e-01
6.085068e-01	-2.476805e-02	-2.170627e-01
5.087014e-01	-2.077899e-02	-2.110441e-01
3.606932e-01	-1.660967e-02	-1.725761e-01
1.372760e-01	-1.226185e-02	-8.207836e-02
-1.816207e-01	-7.848970e-03	1.392491e-01
-6.033292e-01	-3.231161e-03	8.055940e-01
-4.199004e-01	1.388652e-03	2.663454e+00
2.682744e+00	6.789149e-03	2.686578e+00
2.844297e+00	1.150545e-02	8.788010e-01
2.433402e+00	1.631982e-02	6.276406e-02
2.097445e+00	2.102932e-02	-1.880954e-01
1.860569e+00	2.579268e-02	-3.425158e-01
1.689712e+00	3.049025e-02	-4.046651e-01
1.539115e+00	3.511624e-02	-4.520522e-01
1.427850e+00	3.955249e-02	-4.689702e-01
1.330751e+00	4.372718e-02	-4.834512e-01
1.251931e+00	4.753266e-02	-4.826537e-01
1.182690e+00	5.085859e-02	-4.821199e-01
1.123355e+00	5.367622e-02	-4.738674e-01
1.070406e+00	5.593577e-02	-4.672056e-01
1.021752e+00	5.764168e-02	-4.562191e-01
9.765979e-01	5.883520e-02	-4.469614e-01
9.307657e-01	5.958716e-02	-4.334899e-01
8.867524e-01	5.998595e-02	-4.208821e-01
8.402939e-01	6.013239e-02	-4.037766e-01
7.917006e-01	6.012877e-02	-3.846387e-01
7.448091e-01	6.008547e-02	-3.634740e-01
8.205594e-01	-2.041284e-02	-1.444975e-01
8.397173e-01	-2.036099e-02	-1.493909e-01
8.526994e-01	-2.023062e-02	-1.554978e-01
8.598570e-01	-1.999456e-02	-1.610644e-01
8.580650e-01	-1.963592e-02	-1.672101e-01
8.550970e-01	-1.913802e-02	-1.725384e-01
8.434720e-01	-1.849110e-02	-1.783459e-01
8.308664e-01	-1.768984e-02	-1.829809e-01
8.103048e-01	-1.670711e-02	-1.889876e-01
7.869111e-01	-1.558680e-02	-1.936028e-01
7.528399e-01	-1.431463e-02	-2.005540e-01
7.115406e-01	-1.290542e-02	-2.044924e-01
6.517141e-01	-1.134918e-02	-2.094620e-01
5.745510e-01	-9.682092e-03	-2.049502e-01
4.697563e-01	-7.914252e-03	-1.948870e-01
3.149966e-01	-6.078116e-03	-1.507122e-01
8.298613e-02	-4.170419e-03	-4.961802e-02
-2.484268e-01	-2.239081e-03	1.904696e-01
-6.768566e-01	-2.232462e-04	9.037713e-01
-4.509443e-01	1.785162e-03	2.860367e+00
2.823859e+00	4.114418e-03	2.827894e+00
2.962033e+00	6.122523e-03	9.151779e-01
2.518034e+00	8.136125e-03	6.494694e-02
2.160749e+00	1.006008e-02	-1.937724e-01
1.910396e+00	1.195064e-02	-3.516885e-01
1.730320e+00	1.375424e-02	-4.143903e-01
1.572812e+00	1.546629e-02	-4.619494e-01
1.456146e+00	1.704616e-02	-4.782639e-01
1.354669e+00	1.847634e-02	-4.921401e-01
1.271709e+00	1.974241e-02	-4.902787e-01
1.198804e+00	2.080769e-02	-4.886887e-01
1.136487e+00	2.166800e-02	-4.794067e-01
1.080555e+00	2.230502e-02	-4.716352e-01
1.029172e+00	2.277661e-02	-4.595321e-01
9.815355e-01	2.307868e-02	-4.492212e-01
9.334885e-01	2.324331e-02	-4.347581e-01
8.875236e-01	2.330577e-02	-4.212481e-01
8.394005e-01	2.330352e-02	-4.033473e-01
7.894751e-01	2.327305e-02	-3.835575e-01
7.416742e-01	2.324625e-02	-3.619441e-01
8.181554e-01	-1.022071e-02	-1.440742e-01
8.367401e-01	-1.019967e-02	-1.488612e-01
8.489667e-01	-1.014337e-02	-1.548172e-01
8.553518e-01	-1.003755e-02	-1.602205e-01
8.527717e-01	-9.872349e-03	-1.661786e-01
8.489647e-01	-9.624437e-03	-1.713010e-01
8.364713e-01	-9.311736e-03	-1.768657e-01
8.225716e-01	-8.914255e-03	-1.811542e-01
8.009381e-01	-8.440907e-03	-1.868030e-01
7.769133e-01	-7.877012e-03	-1.911430e-01
7.414867e-01	-7.237618e-03	-1.975296e-01
6.983515e-01	-6.500043e-03	-2.007019e-01
6.367875e-01	-5.694530e-03	-2.046645e-01
5.574679e-01	-4.818348e-03	-1.988564e-01
4.500493e-01	-3.883551e-03	-1.867112e-01
2.917490e-01	-2.907580e-03	-1.395892e-01
5.526893e-02	-1.893791e-03	-3.304570e-02
-2.825825e-01	-8.603077e-04	2.166568e-01
-7.144523e-01	2.193622e-04	9.539709e-01
-4.667788e-01	1.293989e-03	2.960806e+00
2.895431e+00	2.536084e-03	2.899569e+00
3.021282e+00	3.600792e-03	9.334840e-01
2.560243e+00	4.660386e-03	6.603564e-02
2.191974e+00	5.663745e-03	-1.965726e-01
1.934709e+00	6.643503e-03	-3.561644e-01
1.749924e+00	7.563670e-03	-4.190852e-01
1.588917e+00	8.428120e-03	-4.666795e-01
1.469556e+00	9.225202e-03	-4.826683e-01
1.365883e+00	9.933943e-03	-4.962141e-01
1.281348e+00	1.055306e-02	-4.939949e-01
1.206804e+00	1.109159e-02	-4.919497e-01
1.142500e+00	1.152298e-02	-4.819431e-01
1.085249e+00	1.186111e-02	-4.736841e-01
1.032973e+00	1.209930e-02	-4.612295e-01
9.842009e-01	1.225941e-02	-4.504411e-01
9.351552e-01	1.234041e-02	-4.355343e-01
8.883130e-01	1.238438e-02	-4.216228e-01
8.394617e-01	1.239458e-02	-4.033767e-01
7.889762e-01	1.238775e-02	-3.833151e-01
7.407047e-01	1.237908e-02	-3.614709e-01
8.170277e-01	-5.651895e-03	-1.438756e-01
8.351850e-01	-5.640775e-03	-1.485846e-01
8.470017e-01	-5.609271e-03	-1.544588e-01
8.529465e-01	-5.549898e-03	-1.597700e-01
8.496105e-01	-5.453718e-03	-1.655626e-01
8.453656e-01	-5.313442e-03	-1.705748e-01
8.324878e-01	-5.142113e-03	-1.760234e-01
8.184669e-01	-4.922461e-03	-1.802502e-01
7.963040e-01	-4.657594e-03	-1.857222e-01
7.711135e-01	-4.321869e-03	-1.897161e-01
7.348446e-01	-3.931005e-03	-1.957601e-01
6.909743e-01	-3.494817e-03	-1.985818e-01
6.283593e-01	-3.023412e-03	-2.019557e-01
5.476460e-01	-2.603180e-03	-1.953528e-01
4.386651e-01	-2.060004e-03	-1.819883e-01
2.783540e-01	-1.452560e-03	-1.331803e-01
3.927117e-02	-8.433029e-04	-2.348053e-02
-3.024737e-01	-2.238855e-04	2.319074e-01
-7.363502e-01	4.237340e-04	9.832100e-01
-4.759892e-01	1.068213e-03	3.019229e+00
2.936918e+00	1.811236e-03	2.941115e+00
3.055446e+00	2.445819e-03	9.440397e-01
2.584440e+00	3.074048e-03	6.665973e-02
2.209875e+00	3.664659e-03	-1.981780e-01
1.948500e+00	4.234114e-03	-3.587032e-01
1.760875e+00	4.757234e-03	-4.217078e-01
1.597948e+00	5.242831e-03	-4.693321e-01
1.477004e+00	5.786555e-03	-4.851146e-01
1.371968e+00	6.190782e-03	-4.984248e-01
1.286317e+00	6.529116e-03	-4.959108e-01
1.210951e+00	6.809972e-03	-4.936400e-01
1.146321e+00	7.039379e-03	-4.835549e-01
1.088277e+00	7.236845e-03	-4.750056e-01
1.034943e+00	7.379260e-03	-4.621088e-01
9.854719e-01	7.477379e-03	-4.510227e-01
9.358711e-01	7.525844e-03	-4.358677e-01
8.888567e-01	7.549177e-03	-4.218809e-01
8.396018e-01	7.555599e-03	-4.034440e-01
7.887810e-01	7.551754e-03	-3.832203e-01
7.403469e-01	7.547494e-03	-3.612963e-01
8.162891e-01	-3.261359e-03	-1.437455e-01
8.342262e-01	-3.268339e-03	-1.484140e-01
8.457722e-01	-3.249090e-03	-1.542346e-01
8.513770e-01	-3.212642e-03	-1.594760e-01
8.479385e-01	-3.151005e-03	-1.652368e-01
8.435614e-01	-3.098500e-03	-1.702108e-01
8.304229e-01	-2.981487e-03	-1.755868e-01
8.156713e-01	-2.837754e-03	-1.796345e-01
7.928265e-01	-2.653736e-03	-1.849111e-01
7.673735e-01	-2.421605e-03	-1.887960e-01
7.306770e-01	-2.182470e-03	-1.946499e-01
6.862538e-01	-1.957028e-03	-1.972251e-01
6.243653e-01	-1.643211e-03	-2.006720e-01
5.432210e-01	-1.425358e-03	-1.937743e-01
4.313684e-01	-1.061192e-03	-1.789611e-01
2.693080e-01	-6.838231e-04	-1.288522e-01
2.902920e-02	-2.884046e-04	-1.735677e-02
-3.149866e-01	1.062635e-04	2.415012e-01
-7.501358e-01	5.180496e-04	1.001617e+00
-4.817818e-01	9.270285e-04	3.055971e+00
2.962927e+00	1.397739e-03	2.967162e+00
3.076782e+00	1.798556e-03	9.506320e-01
2.599455e+00	2.193979e-03	6.704701e-02
2.220690e+00	2.563562e-03	-1.991478e-01
1.956600e+00	2.913160e-03	-3.601943e-01
1.767188e+00	3.239386e-03	-4.232196e-01
1.604562e+00	3.652707e-03	-4.712745e-01
1.482649e+00	3.902146e-03	-4.869688e-01
1.375552e+00	4.152272e-03	-4.997271e-01
1.289160e+00	4.370881e-03	-4.970069e-01
1.213193e+00	4.535759e-03	-4.945544e-01
1.147950e+00	4.641292e-03	-4.842422e-01
1.089801e+00	4.735748e-03	-4.756711e-01
1.036456e+00	4.810612e-03	-4.627846e-01
9.865958e-01	4.856584e-03	-4.515371e-01
9.365307e-01	4.918077e-03	-4.361749e-01
8.890404e-01	4.927151e-03	-4.219681e-01
8.395996e-01	4.928985e-03	-4.034429e-01
7.886049e-01	4.925645e-03	-3.831347e-01
7.400523e-01	4.936539e-03	-3.611526e-01
8.181991e-01	-2.026330e-03	-1.440819e-01
8.341219e-01	-2.022306e-03	-1.483954e-01
8.450431e-01	-2.012152e-03	-1.541016e-01
8.504339e-01	-1.993608e-03	-1.592993e-01
8.473340e-01	-1.963581e-03	-1.651190e-01
8.423719e-01	-2.007681e-03	-1.699708e-01
8.284582e-01	-1.885650e-03	-1.751714e-01
8.137948e-01	-1.781090e-03	-1.792213e-01
7.906838e-01	-1.682409e-03	-1.844114e-01
7.649279e-01	-1.541698e-03	-1.881943e-01
7.287694e-01	-1.386346e-03	-1.941417e-01
6.838043e-01	-1.217203e-03	-1.965212e-01
6.209230e-01	-1.019594e-03	-1.995657e-01
5.390909e-01	-7.419950e-04	-1.923011e-01
4.265963e-01	-5.066991e-04	-1.769813e-01
2.641281e-01	-2.993289e-04	-1.263738e-01
2.237987e-02	-5.585303e-05	-1.338109e-02
-3.231019e-01	1.664539e-04	2.477232e-01
-7.590216e-01	4.274488e-04	1.013482e+00
-4.855027e-01	6.860717e-04	3.079573e+00
2.979607e+00	9.826994e-04	2.983865e+00
3.090428e+00	1.233361e-03	9.548481e-01
2.609039e+00	1.505066e-03	6.729422e-02
2.227658e+00	1.733938e-03	-1.997727e-01
1.962050e+00	1.953872e-03	-3.611977e-01
1.773658e+00	2.167104e-03	-4.247693e-01
1.607874e+00	2.393113e-03	-4.722475e-01
1.483937e+00	2.465084e-03	-4.873917e-01
1.378074e+00	2.608533e-03	-5.006433e-01
1.291155e+00	2.743851e-03	-4.977757e-01
1.214339e+00	2.855808e-03	-4.950212e-01
1.148873e+00	2.945514e-03	-4.846315e-01
1.090542e+00	3.043473e-03	-4.759941e-01
1.036697e+00	3.108477e-03	-4.628921e-01
9.871728e-01	3.228883e-03	-4.518012e-01
9.372706e-01	3.220248e-03	-4.365195e-01
8.891264e-01	3.214226e-03	-4.220089e-01
8.395860e-01	3.211241e-03	-4.034364e-01
7.889161e-01	3.207985e-03	-3.832859e-01
7.420152e-01	3.205696e-03	-3.621105e-01
8.156138e-01	-1.137680e-03	-1.436266e-01
8.334008e-01	-1.120858e-03	-1.482671e-01
8.447660e-01	-1.112578e-03	-1.540511e-01
8.501359e-01	-1.121898e-03	-1.592435e-01
8.483590e-01	-1.102133e-03	-1.653187e-01
8.420298e-01	-1.051165e-03	-1.699017e-01
8.269515e-01	-1.010431e-03	-1.748528e-01
8.127879e-01	-9.823964e-04	-1.789995e-01
7.895898e-01	-9.899190e-04	-1.841562e-01
7.634869e-01	-9.102787e-04	-1.878397e-01
7.264355e-01	-8.077217e-04	-1.935200e-01
6.813690e-01	-6.531620e-04	-1.958213e-01
6.177925e-01	-5.736901e-04	-1.985595e-01
5.355587e-01	-3.396205e-04	-1.910411e-01
4.241261e-01	-2.499705e-04	-1.759565e-01
2.610502e-01	-1.222409e-04	-1.249012e-01
1.901970e-02	1.467264e-05	-1.137202e-02
-3.272319e-01	1.563999e-04	2.508896e-01
-7.644922e-01	3.055416e-04	1.020787e+00
-4.877884e-01	4.541733e-04	3.094072e+00
2.989717e+00	6.252429e-04	2.993989e+00
3.099954e+00	7.705657e-04	9.577911e-01
2.615417e+00	9.133978e-04	6.745872e-02
2.231798e+00	1.046736e-03	-2.001440e-01
1.965299e+00	1.173985e-03	-3.617958e-01
1.774737e+00	1.293329e-03	-4.250277e-01
1.608966e+00	1.319538e-03	-4.725680e-01
1.485670e+00	1.429564e-03	-4.879611e-01
1.379187e+00	1.535857e-03	-5.010475e-01
1.292280e+00	1.595588e-03	-4.982097e-01
1.215719e+00	1.663170e-03	-4.955838e-01
1.150341e+00	1.808248e-03	-4.852506e-01
1.091987e+00	1.828534e-03	-4.766250e-01
1.039079e+00	1.870079e-03	-4.639556e-01
9.885181e-01	1.881771e-03	-4.524169e-01
9.362542e-01	1.866866e-03	-4.360462e-01
8.888263e-01	1.869839e-03	-4.218664e-01
8.394113e-01	1.891580e-03	-4.033524e-01
7.883318e-01	1.888433e-03	-3.830020e-01
7.397018e-01	1.872867e-03	-3.609815e-01
8.153759e-01	-1.352348e-03	-1.435847e-01
8.329841e-01	-1.352406e-03	-1.481930e-01
8.451889e-01	-1.353090e-03	-1.541282e-01
8.500830e-01	-1.335316e-03	-1.592336e-01
8.458548e-01	-1.293934e-03	-1.648307e-01
8.408038e-01	-1.216765e-03	-1.696544e-01
8.274102e-01	-1.120693e-03	-1.749498e-01
8.135194e-01	-1.184540e-03	-1.791606e-01
7.896896e-01	-9.659351e-04	-1.841795e-01
7.625351e-01	-1.016153e-03	-1.876056e-01
7.254119e-01	-6.604429e-04	-1.932473e-01
6.806623e-01	-7.493526e-04	-1.956182e-01
6.166315e-01	-3.149803e-04	-1.981864e-01
5.341701e-01	-3.797631e-04	-1.905457e-01
4.230943e-01	7.843472e-05	-1.755284e-01
2.592613e-01	4.170502e-04	-1.240453e-01
1.643542e-02	6.115642e-04	-9.826857e-03
-3.305370e-01	6.585156e-04	2.534236e-01
-7.672439e-01	7.040521e-04	1.024461e+00
-4.889601e-01	7.628543e-04	3.101504e+00
2.995102e+00	8.415698e-04	2.999382e+00
3.103083e+00	9.186465e-04	9.587581e-01
2.617919e+00	9.831896e-04	6.752325e-02
2.234105e+00	1.093411e-03	-2.003508e-01
1.966995e+00	1.026565e-03	-3.621081e-01
1.776052e+00	8.423318e-04	-4.253427e-01
1.610001e+00	4.605171e-04	-4.728721e-01
1.486937e+00	6.204246e-04	-4.883772e-01
1.380228e+00	3.019956e-04	-5.014257e-01
1.292763e+00	4.304855e-04	-4.983956e-01
1.216996e+00	1.345797e-04	-4.961043e-01
1.151012e+00	2.842909e-04	-4.855337e-01
1.091357e+00	2.441944e-05	-4.763498e-01
1.037482e+00	7.967618e-05	-4.632425e-01
9.871495e-01	-1.383479e-04	-4.517905e-01
9.370185e-01	-8.069125e-05	-4.364021e-01
8.896354e-01	-9.515929e-05	-4.222504e-01
8.402960e-01	-1.011272e-04	-4.037775e-01
7.882334e-01	-9.602844e-05	-3.829542e-01
7.396313e-01	-9.493836e-05	-3.609471e-01
8.156235e-01	4.534603e-05	-1.436283e-01
8.334491e-01	4.633735e-05	-1.482757e-01
8.440817e-01	2.551744e-05	-1.539263e-01
8.485939e-01	4.769151e-05	-1.589547e-01
8.459104e-01	4.517980e-05	-1.648416e-01
8.390239e-01	4.369330e-05	-1.692952e-01
8.265751e-01	4.163963e-05	-1.747732e-01
8.104643e-01	4.176639e-05	-1.784878e-01
7.873897e-01	8.344928e-05	-1.836431e-01
7.594511e-01	7.083123e-05	-1.868468e-01
7.229123e-01	6.165676e-05	-1.925814e-01
6.769003e-01	2.770977e-05	-1.945370e-01
6.124309e-01	1.586541e-07	-1.968363e-01
5.300809e-01	3.514384e-06	-1.890871e-01
4.110170e-01	3.513390e-05	-1.705180e-01
2.509813e-01	2.592193e-06	-1.200837e-01
1.349129e-02	5.859494e-06	-8.066541e-03
-3.296115e-01	8.223626e-06	2.527141e-01
-7.672974e-01	9.179963e-06	1.024532e+00
-4.892559e-01	9.126133e-06	3.103380e+00
2.997443e+00	8.342558e-06	3.001726e+00
3.106071e+00	7.232505e-06	9.596813e-01
2.621304e+00	5.657519e-06	6.761057e-02
2.232363e+00	3.259772e-06	-2.001947e-01
1.960041e+00	3.555705e-05	-3.608279e-01
1.764808e+00	3.175426e-05	-4.226497e-01
1.605999e+00	-1.834169e-06	-4.716967e-01
1.483258e+00	5.078199e-05	-4.871689e-01
1.376826e+00	3.830184e-05	-5.001897e-01
1.290135e+00	2.658093e-05	-4.973824e-01
1.213862e+00	1.789243e-05	-4.948267e-01
1.149036e+00	-2.673051e-05	-4.847002e-01
1.089128e+00	-2.422987e-05	-4.753772e-01
1.036933e+00	-2.602961e-05	-4.629974e-01
9.856644e-01	-2.551088e-05	-4.511108e-01
9.371794e-01	-2.593922e-05	-4.364770e-01
8.883357e-01	-2.513417e-05	-4.216335e-01
8.393207e-01	-4.856769e-05	-4.033089e-01
7.886812e-01	-2.826889e-05	-3.831718e-01
7.398687e-01	-2.941509e-05	-3.610630e-01
8.152095e-01	1.473047e-03	-1.435554e-01
8.343591e-01	1.473200e-03	-1.484376e-01
8.448721e-01	1.474379e-03	-1.540705e-01
8.496732e-01	1.458230e-03	-1.591568e-01
8.459332e-01	1.419122e-03	-1.648460e-01
8.408655e-01	1.431969e-03	-1.696668e-01
8.274382e-01	1.293085e-03	-1.749557e-01
8.129072e-01	1.354872e-03	-1.790258e-01
7.893118e-01	1.112932e-03	-1.840914e-01
7.628209e-01	1.137248e-03	-1.876759e-01
7.259737e-01	7.877012e-04	-1.933970e-01
6.814844e-01	8.002330e-04	-1.958544e-01
6.169817e-01	3.687013e-04	-1.982989e-01
5.336700e-01	4.587360e-04	-1.903674e-01
4.230418e-01	-3.672695e-05	-1.755067e-01
2.598596e-01	-3.779668e-04	-1.243315e-01
1.631279e-02	-5.759124e-04	-9.753539e-03
-3.306280e-01	-6.017567e-04	2.534934e-01
-7.672746e-01	-6.535542e-04	1.024502e+00
-4.889524e-01	-7.478879e-04	3.101455e+00
2.995005e+00	-8.353455e-04	2.999285e+00
3.102961e+00	-8.912703e-04	9.587203e-01
2.617786e+00	-9.892467e-04	6.751983e-02
2.234947e+00	-1.105254e-03	-2.004263e-01
1.967504e+00	-1.045367e-03	-3.622018e-01
1.775378e+00	-8.356719e-04	-4.251811e-01
1.610352e+00	-4.926782e-04	-4.729753e-01
1.487465e+00	-6.627804e-04	-4.885506e-01
1.379913e+00	-3.587979e-04	-5.013111e-01
1.292505e+00	-4.240481e-04	-4.982964e-01
1.216331e+00	-1.463591e-04	-4.958332e-01
1.150463e+00	-2.487466e-04	-4.853023e-01
1.091368e+00	-3.425658e-05	-4.763547e-01
1.037462e+00	-1.327914e-04	-4.632336e-01
9.871520e-01	-2.249479e-05	-4.517917e-01
9.370234e-01	-5.564860e-05	-4.364044e-01
8.891899e-01	-2.975723e-05	-4.220390e-01
8.399472e-01	-2.108481e-05	-4.036100e-01
7.894526e-01	-2.550416e-05	-3.835465e-01
7.394558e-01	-2.647553e-05	-3.608615e-01
8.155979e-01	1.271768e-03	-1.436238e-01
8.333640e-01	1.267925e-03	-1.482606e-01
8.446885e-01	1.280062e-03	-1.540370e-01
8.500371e-01	1.273868e-03	-1.592250e-01
8.463416e-01	1.162958e-03	-1.649256e-01
8.413678e-01	1.139316e-03	-1.697682e-01
8.276111e-01	1.099352e-03	-1.749922e-01
8.131580e-01	1.040940e-03	-1.790810e-01
7.902539e-01	1.009357e-03	-1.843111e-01
7.637438e-01	9.240070e-04	-1.879030e-01
7.273471e-01	8.290039e-04	-1.937628e-01
6.823711e-01	7.524487e-04	-1.961093e-01
6.174118e-01	6.658693e-04	-1.984371e-01
5.356925e-01	5.108229e-04	-1.910888e-01
4.248125e-01	3.703723e-04	-1.762413e-01
2.611606e-01	2.576299e-04	-1.249540e-01
1.870284e-02	1.034211e-04	-1.118256e-02
-3.277257e-01	-5.267404e-05	2.512682e-01
-7.635040e-01	-2.143966e-04	1.019467e+00
-4.872521e-01	-3.742841e-04	3.090670e+00
2.990594e+00	-5.577263e-04	2.994868e+00
3.098922e+00	-7.134756e-04	9.574723e-01
2.614292e+00	-8.665459e-04	6.742971e-02
2.231478e+00	-1.008920e-03	-2.001153e-01
1.965729e+00	-1.179356e-03	-3.618749e-01
1.774437e+00	-1.303215e-03	-4.249558e-01
1.608244e+00	-1.418006e-03	-4.723559e-01
1.485327e+00	-1.554814e-03	-4.878482e-01
1.379844e+00	-1.645733e-03	-5.012861e-01
1.292843e+00	-1.716544e-03	-4.984265e-01
1.216079e+00	-1.776242e-03	-4.957307e-01
1.150388e+00	-1.859962e-03	-4.852706e-01
1.090805e+00	-1.890517e-03	-4.761089e-01
1.036956e+00	-1.905881e-03	-4.630079e-01
9.870486e-01	-1.923968e-03	-4.517444e-01
9.369434e-01	-1.941817e-03	-4.363671e-01
8.891737e-01	-1.857978e-03	-4.220313e-01
8.395260e-01	-1.866854e-03	-4.034075e-01
7.883775e-01	-1.885531e-03	-3.830242e-01
7.397200e-01	-1.883320e-03	-3.609904e-01
8.158545e-01	2.124210e-03	-1.436690e-01
8.336696e-01	2.119943e-03	-1.483150e-01
8.447906e-01	2.113513e-03	-1.540556e-01
8.529089e-01	2.014597e-03	-1.597629e-01
8.484747e-01	1.982643e-03	-1.653413e-01
8.419798e-01	1.946155e-03	-1.698916e-01
8.289647e-01	1.866738e-03	-1.752785e-01
8.141732e-01	1.771716e-03	-1.793046e-01
7.909014e-01	1.646934e-03	-1.844621e-01
7.651886e-01	1.531383e-03	-1.882584e-01
7.282182e-01	1.365818e-03	-1.939949e-01
6.836579e-01	1.264622e-03	-1.964791e-01
6.203114e-01	1.044135e-03	-1.993691e-01
5.380775e-01	8.357719e-04	-1.919396e-01