# vtk DataFile Version 2.0
OUTPUT by 3D-VPM
ASCII
DATASET UNSTRUCTURED_GRID
POINTS 820 double
9.510565e-01	0.000000e+00	-3.090170e-01
9.442611e-01	0.000000e+00	-3.078203e-01
9.267277e-01	0.000000e+00	-3.047010e-01
8.963175e-01	0.000000e+00	-2.991555e-01
8.562911e-01	0.000000e+00	-2.916579e-01
8.054250e-01	0.000000e+00	-2.817457e-01
7.470317e-01	0.000000e+00	-2.699633e-01
6.809074e-01	0.000000e+00	-2.559818e-01
6.100852e-01	0.000000e+00	-2.403847e-01
5.354138e-01	0.000000e+00	-2.229691e-01
4.593635e-01	0.000000e+00	-2.042585e-01
3.837764e-01	0.000000e+00	-1.841224e-01
3.103069e-01	0.000000e+00	-1.630077e-01
2.415927e-01	0.000000e+00	-1.409228e-01
1.782654e-01	0.000000e+00	-1.183331e-01
1.234349e-01	0.000000e+00	-9.558566e-02
7.662509e-02	0.000000e+00	-7.318920e-02
4.106998e-02	0.000000e+00	-5.193053e-02
1.528206e-02	0.000000e+00	-3.215886e-02
2.347037e-03	0.000000e+00	-1.488740e-02
0.000000e+00	0.000000e+00	0.000000e+00
1.064939e-02	0.000000e+00	1.066461e-02
3.126595e-02	0.000000e+00	1.703450e-02
6.375031e-02	0.000000e+00	1.787236e-02
1.050105e-01	0.000000e+00	1.417221e-02
1.560448e-01	0.000000e+00	4.777214e-03
2.137742e-01	0.000000e+00	-9.048270e-03
2.782849e-01	0.000000e+00	-2.799567e-02
3.468570e-01	0.000000e+00	-5.051783e-02
4.187060e-01	0.000000e+00	-7.662000e-02
4.916930e-01	0.000000e+00	-1.047585e-01
5.642168e-01	0.000000e+00	-1.343226e-01
6.348639e-01	0.000000e+00	-1.641238e-01
7.013280e-01	0.000000e+00	-1.931337e-01
7.630418e-01	0.000000e+00	-2.206893e-01
8.172084e-01	0.000000e+00	-2.454799e-01
8.641863e-01	0.000000e+00	-2.673591e-01
9.009752e-01	0.000000e+00	-2.848204e-01
9.288372e-01	0.000000e+00	-2.982085e-01
9.448555e-01	0.000000e+00	-3.059908e-01
9.510565e-01	0.000000e+00	-3.090170e-01
9.510565e-01	1.052632e+00	-3.090170e-01
9.442611e-01	1.052632e+00	-3.078203e-01
9.267277e-01	1.052632e+00	-3.047010e-01
8.963175e-01	1.052632e+00	-2.991555e-01
8.562911e-01	1.052632e+00	-2.916579e-01
8.054250e-01	1.052632e+00	-2.817457e-01
7.470317e-01	1.052632e+00	-2.699633e-01
6.809074e-01	1.052632e+00	-2.559818e-01
6.100852e-01	1.052632e+00	-2.403847e-01
5.354138e-01	1.052632e+00	-2.229691e-01
4.593635e-01	1.052632e+00	-2.042585e-01
3.837764e-01	1.052632e+00	-1.841224e-01
3.103069e-01	1.052632e+00	-1.630077e-01
2.415927e-01	1.052632e+00	-1.409228e-01
1.782654e-01	1.052632e+00	-1.183331e-01
1.234349e-01	1.052632e+00	-9.558566e-02
7.662509e-02	1.052632e+00	-7.318920e-02
4.106998e-02	1.052632e+00	-5.193053e-02
1.528206e-02	1.052632e+00	-3.215886e-02
2.347037e-03	1.052632e+00	-1.488740e-02
0.000000e+00	1.052632e+00	0.000000e+00
1.064939e-02	1.052632e+00	1.066461e-02
3.126595e-02	1.052632e+00	1.703450e-02
6.375031e-02	1.052632e+00	1.787236e-02
1.050105e-01	1.052632e+00	1.417221e-02
1.560448e-01	1.052632e+00	4.777214e-03
2.137742e-01	1.052632e+00	-9.048270e-03
2.782849e-01	1.052632e+00	-2.799567e-02
3.468570e-01	1.052632e+00	-5.051783e-02
4.187060e-01	1.052632e+00	-7.662000e-02
4.916930e-01	1.052632e+00	-1.047585e-01
5.642168e-01	1.052632e+00	-1.343226e-01
6.348639e-01	1.052632e+00	-1.641238e-01
7.013280e-01	1.052632e+00	-1.931337e-01
7.630418e-01	1.052632e+00	-2.206893e-01
8.172084e-01	1.052632e+00	-2.454799e-01
8.641863e-01	1.052632e+00	-2.673591e-01
9.009752e-01	1.052632e+00	-2.848204e-01
9.288372e-01	1.052632e+00	-2.982085e-01
9.448555e-01	1.052632e+00	-3.059908e-01
9.510565e-01	1.052632e+00	-3.090170e-01
9.510565e-01	2.105263e+00	-3.090170e-01
9.442611e-01	2.105263e+00	-3.078203e-01
9.267277e-01	2.105263e+00	-3.047010e-01
8.963175e-01	2.105263e+00	-2.991555e-01
8.562911e-01	2.105263e+00	-2.916579e-01
8.054250e-01	2.105263e+00	-2.817457e-01
7.470317e-01	2.105263e+00	-2.699633e-01
6.809074e-01	2.105263e+00	-2.559818e-01
6.100852e-01	2.105263e+00	-2.403847e-01
5.354138e-01	2.105263e+00	-2.229691e-01
4.593635e-01	2.105263e+00	-2.042585e-01
3.837764e-01	2.105263e+00	-1.841224e-01
3.103069e-01	2.105263e+00	-1.630077e-01
2.415927e-01	2.105263e+00	-1.409228e-01
1.782654e-01	2.105263e+00	-1.183331e-01
1.234349e-01	2.105263e+00	-9.558566e-02
7.662509e-02	2.105263e+00	-7.318920e-02
4.106998e-02	2.105263e+00	-5.193053e-02
1.528206e-02	2.105263e+00	-3.215886e-02
2.347037e-03	2.105263e+00	-1.488740e-02
0.000000e+00	2.105263e+00	0.000000e+00
1.064939e-02	2.105263e+00	1.066461e-02
3.126595e-02	2.105263e+00	1.703450e-02
6.375031e-02	2.105263e+00	1.787236e-02
1.050105e-01	2.105263e+00	1.417221e-02
1.560448e-01	2.105263e+00	4.777214e-03
2.137742e-01	2.105263e+00	-9.048270e-03
2.782849e-01	2.105263e+00	-2.799567e-02
3.468570e-01	2.105263e+00	-5.051783e-02
4.187060e-01	2.105263e+00	-7.662000e-02
4.916930e-01	2.105263e+00	-1.047585e-01
5.642168e-01	2.105263e+00	-1.343226e-01
6.348639e-01	2.105263e+00	-1.641238e-01
7.013280e-01	2.105263e+00	-1.931337e-01
7.630418e-01	2.105263e+00	-2.206893e-01
8.172084e-01	2.105263e+00	-2.454799e-01
8.641863e-01	2.105263e+00	-2.673591e-01
9.009752e-01	2.105263e+00	-2.848204e-01
9.288372e-01	2.105263e+00	-2.982085e-01
9.448555e-01	2.105263e+00	-3.059908e-01
9.510565e-01	2.105263e+00	-3.090170e-01
9.510565e-01	3.157895e+00	-3.090170e-01
9.442611e-01	3.157895e+00	-3.078203e-01
9.267277e-01	3.157895e+00	-3.047010e-01
8.963175e-01	3.157895e+00	-2.991555e-01
8.562911e-01	3.157895e+00	-2.916579e-01
8.054250e-01	3.157895e+00	-2.817457e-01
7.470317e-01	3.157895e+00	-2.699633e-01
6.809074e-01	3.157895e+00	-2.559818e-01
6.100852e-01	3.157895e+00	-2.403847e-01
5.354138e-01	3.157895e+00	-2.229691e-01
4.593635e-01	3.157895e+00	-2.042585e-01
3.837764e-01	3.157895e+00	-1.841224e-01
3.103069e-01	3.157895e+00	-1.630077e-01
2.415927e-01	3.157895e+00	-1.409228e-01
1.782654e-01	3.157895e+00	-1.183331e-01
1.234349e-01	3.157895e+00	-9.558566e-02
7.662509e-02	3.157895e+00	-7.318920e-02
4.106998e-02	3.157895e+00	-5.193053e-02
1.528206e-02	3.157895e+00	-3.215886e-02
2.347037e-03	3.157895e+00	-1.488740e-02
0.000000e+00	3.157895e+00	0.000000e+00
1.064939e-02	3.157895e+00	1.066461e-02
3.126595e-02	3.157895e+00	1.703450e-02
6.375031e-02	3.157895e+00	1.787236e-02
1.050105e-01	3.157895e+00	1.417221e-02
1.560448e-01	3.157895e+00	4.777214e-03
2.137742e-01	3.157895e+00	-9.048270e-03
2.782849e-01	3.157895e+00	-2.799567e-02
3.468570e-01	3.157895e+00	-5.051783e-02
4.187060e-01	3.157895e+00	-7.662000e-02
4.916930e-01	3.157895e+00	-1.047585e-01
5.642168e-01	3.157895e+00	-1.343226e-01
6.348639e-01	3.157895e+00	-1.641238e-01
7.013280e-01	3.157895e+00	-1.931337e-01
7.630418e-01	3.157895e+00	-2.206893e-01
8.172084e-01	3.157895e+00	-2.454799e-01
8.641863e-01	3.157895e+00	-2.673591e-01
9.009752e-01	3.157895e+00	-2.848204e-01
9.288372e-01	3.157895e+00	-2.982085e-01
9.448555e-01	3.157895e+00	-3.059908e-01
9.510565e-01	3.157895e+00	-3.090170e-01
9.510565e-01	4.210526e+00	-3.090170e-01
9.442611e-01	4.210526e+00	-3.078203e-01
9.267277e-01	4.210526e+00	-3.047010e-01
8.963175e-01	4.210526e+00	-2.991555e-01
8.562911e-01	4.210526e+00	-2.916579e-01
8.054250e-01	4.210526e+00	-2.817457e-01
7.470317e-01	4.210526e+00	-2.699633e-01
6.809074e-01	4.210526e+00	-2.559818e-01
6.100852e-01	4.210526e+00	-2.403847e-01
5.354138e-01	4.210526e+00	-2.229691e-01
4.593635e-01	4.210526e+00	-2.042585e-01
3.837764e-01	4.210526e+00	-1.841224e-01
3.103069e-01	4.210526e+00	-1.630077e-01
2.415927e-01	4.210526e+00	-1.409228e-01
1.782654e-01	4.210526e+00	-1.183331e-01
1.234349e-01	4.210526e+00	-9.558566e-02
7.662509e-02	4.210526e+00	-7.318920e-02
4.106998e-02	4.210526e+00	-5.193053e-02
1.528206e-02	4.210526e+00	-3.215886e-02
2.347037e-03	4.210526e+00	-1.488740e-02
0.000000e+00	4.210526e+00	0.000000e+00
1.064939e-02	4.210526e+00	1.066461e-02
3.126595e-02	4.210526e+00	1.703450e-02
6.375031e-02	4.210526e+00	1.787236e-02
1.050105e-01	4.210526e+00	1.417221e-02
1.560448e-01	4.210526e+00	4.777214e-03
2.137742e-01	4.210526e+00	-9.048270e-03
2.782849e-01	4.210526e+00	-2.799567e-02
3.468570e-01	4.210526e+00	-5.051783e-02
4.187060e-01	4.210526e+00	-7.662000e-02
4.916930e-01	4.210526e+00	-1.047585e-01
5.642168e-01	4.210526e+00	-1.343226e-01
6.348639e-01	4.210526e+00	-1.641238e-01
7.013280e-01	4.210526e+00	-1.931337e-01
7.630418e-01	4.210526e+00	-2.206893e-01
8.172084e-01	4.210526e+00	-2.454799e-01
8.641863e-01	4.210526e+00	-2.673591e-01
9.009752e-01	4.210526e+00	-2.848204e-01
9.288372e-01	4.210526e+00	-2.982085e-01
9.448555e-01	4.210526e+00	-3.059908e-01
9.510565e-01	4.210526e+00	-3.090170e-01
9.510565e-01	5.263158e+00	-3.090170e-01
9.442611e-01	5.263158e+00	-3.078203e-01
9.267277e-01	5.263158e+00	-3.047010e-01
8.963175e-01	5.263158e+00	-2.991555e-01
8.562911e-01	5.263158e+00	-2.916579e-01
8.054250e-01	5.263158e+00	-2.817457e-01
7.470317e-01	5.263158e+00	-2.699633e-01
6.809074e-01	5.263158e+00	-2.559818e-01
6.100852e-01	5.263158e+00	-2.403847e-01
5.354138e-01	5.263158e+00	-2.229691e-01
4.593635e-01	5.263158e+00	-2.042585e-01
3.837764e-01	5.263158e+00	-1.841224e-01
3.103069e-01	5.263158e+00	-1.630077e-01
2.415927e-01	5.263158e+00	-1.409228e-01
1.782654e-01	5.263158e+00	-1.183331e-01
1.234349e-01	5.263158e+00	-9.558566e-02
7.662509e-02	5.263158e+00	-7.318920e-02
4.106998e-02	5.263158e+00	-5.193053e-02
1.528206e-02	5.263158e+00	-3.215886e-02
2.347037e-03	5.263158e+00	-1.488740e-02
0.000000e+00	5.263158e+00	0.000000e+00
1.064939e-02	5.263158e+00	1.066461e-02
3.126595e-02	5.263158e+00	1.703450e-02
6.375031e-02	5.263158e+00	1.787236e-02
1.050105e-01	5.263158e+00	1.417221e-02
1.560448e-01	5.263158e+00	4.777214e-03
2.137742e-01	5.263158e+00	-9.048270e-03
2.782849e-01	5.263158e+00	-2.799567e-02
3.468570e-01	5.263158e+00	-5.051783e-02
4.187060e-01	5.263158e+00	-7.662000e-02
4.916930e-01	5.263158e+00	-1.047585e-01
5.642168e-01	5.263158e+00	-1.343226e-01
6.348639e-01	5.263158e+00	-1.641238e-01
7.013280e-01	5.263158e+00	-1.931337e-01
7.630418e-01	5.263158e+00	-2.206893e-01
8.172084e-01	5.263158e+00	-2.454799e-01
8.641863e-01	5.263158e+00	-2.673591e-01
9.009752e-01	5.263158e+00	-2.848204e-01
9.288372e-01	5.263158e+00	-2.982085e-01
9.448555e-01	5.263158e+00	-3.059908e-01
9.510565e-01	5.263158e+00	-3.090170e-01
9.510565e-01	6.315789e+00	-3.090170e-01
9.442611e-01	6.315789e+00	-3.078203e-01
[...]
CELL_DATA 760
VECTORS V double
8.414220e-01	-6.903599e-02	-1.481713e-01
8.655426e-01	-6.886240e-02	-1.539854e-01
8.835570e-01	-6.841263e-02	-1.611250e-01
8.953222e-01	-6.761820e-02	-1.677076e-01
8.977863e-01	-6.645724e-02	-1.749505e-01
8.990978e-01	-6.491210e-02	-1.814167e-01
8.920590e-01	-6.297246e-02	-1.886193e-01
8.847474e-01	-6.061425e-02	-1.948471e-01
8.704120e-01	-5.780900e-02	-2.030064e-01
8.547707e-01	-5.452411e-02	-2.102982e-01
8.294643e-01	-5.073409e-02	-2.209665e-01
7.985406e-01	-4.642473e-02	-2.294957e-01
7.511893e-01	-4.162901e-02	-2.414335e-01
6.891622e-01	-3.639810e-02	-2.458335e-01
6.025080e-01	-3.076994e-02	-2.499615e-01
4.718262e-01	-2.486737e-02	-2.257484e-01
2.701096e-01	-1.869838e-02	-1.615005e-01
-1.747210e-02	-1.242902e-02	1.339591e-02
-4.218668e-01	-5.860739e-03	5.632967e-01
-3.427213e-01	7.203352e-04	2.173902e+00
2.327175e+00	8.434073e-03	2.330501e+00
2.541823e+00	1.519937e-02	7.853457e-01
2.210642e+00	2.214610e-02	5.701847e-02
1.925591e+00	2.899399e-02	-1.726838e-01
1.720232e+00	3.598404e-02	-3.166810e-01
1.570441e+00	4.295115e-02	-3.761013e-01
1.435582e+00	4.988967e-02	-4.216436e-01
1.336760e+00	5.662110e-02	-4.390521e-01
1.250658e+00	6.302726e-02	-4.543538e-01
1.181713e+00	6.891033e-02	-4.555829e-01
1.121881e+00	7.415478e-02	-4.573310e-01
1.071621e+00	7.862352e-02	-4.520443e-01
1.027480e+00	8.225430e-02	-4.484693e-01
9.872045e-01	8.503940e-02	-4.407934e-01
9.499823e-01	8.703018e-02	-4.347801e-01
9.115294e-01	8.832459e-02	-4.245309e-01
8.743617e-01	8.905091e-02	-4.150010e-01
8.341868e-01	8.935824e-02	-4.008420e-01
7.910580e-01	8.940221e-02	-3.843265e-01
7.483066e-01	8.935653e-02	-3.651808e-01
8.268559e-01	-4.834517e-02	-1.456063e-01
8.473434e-01	-4.822086e-02	-1.507476e-01
8.618055e-01	-4.790232e-02	-1.571584e-01
8.704912e-01	-4.733849e-02	-1.630564e-01
8.702420e-01	-4.650672e-02	-1.695830e-01
8.688572e-01	-4.538821e-02	-1.753149e-01
8.588575e-01	-4.397226e-02	-1.815991e-01
8.479873e-01	-4.224388e-02	-1.867514e-01
8.293161e-01	-4.018825e-02	-1.934216e-01
8.083267e-01	-3.779018e-02	-1.988716e-01
7.765374e-01	-3.501992e-02	-2.068670e-01
7.378757e-01	-3.192793e-02	-2.120609e-01
6.815690e-01	-2.849155e-02	-2.190574e-01
6.085141e-01	-2.476589e-02	-2.170653e-01
5.087102e-01	-2.077689e-02	-2.110478e-01
3.607038e-01	-1.660763e-02	-1.725811e-01
1.372889e-01	-1.225987e-02	-8.208608e-02
-1.816046e-01	-7.847043e-03	1.392368e-01
-6.033115e-01	-3.229281e-03	8.055704e-01
-4.198930e-01	1.390493e-03	2.663407e+00
2.682712e+00	6.790957e-03	2.686546e+00
2.844271e+00	1.150724e-02	8.787931e-01
2.433385e+00	1.632159e-02	6.276362e-02
2.097433e+00	2.103109e-02	-1.880943e-01
1.860560e+00	2.579445e-02	-3.425142e-01
1.689706e+00	3.049203e-02	-4.046637e-01
1.539110e+00	3.511801e-02	-4.520509e-01
1.427847e+00	3.955426e-02	-4.689692e-01
1.330749e+00	4.372894e-02	-4.834504e-01
1.251929e+00	4.753440e-02	-4.826532e-01
1.182690e+00	5.086029e-02	-4.821196e-01
1.123355e+00	5.367787e-02	-4.738673e-01
1.070407e+00	5.593738e-02	-4.672057e-01
1.021752e+00	5.764326e-02	-4.562193e-01
9.765986e-01	5.883674e-02	-4.469617e-01
9.307664e-01	5.958867e-02	-4.334903e-01
8.867531e-01	5.998744e-02	-4.208824e-01
8.402946e-01	6.013386e-02	-4.037769e-01
7.917011e-01	6.013023e-02	-3.846390e-01
7.448094e-01	6.008693e-02	-3.634741e-01
8.205596e-01	-2.041142e-02	-1.444975e-01
8.397175e-01	-2.035958e-02	-1.493909e-01
8.526997e-01	-2.022920e-02	-1.554979e-01
8.598576e-01	-1.999315e-02	-1.610645e-01
8.580658e-01	-1.963451e-02	-1.672103e-01
8.550982e-01	-1.913661e-02	-1.725386e-01
8.434736e-01	-1.848969e-02	-1.783463e-01
8.308686e-01	-1.768843e-02	-1.829814e-01
8.103076e-01	-1.670569e-02	-1.889882e-01
7.869145e-01	-1.558538e-02	-1.936036e-01
7.528441e-01	-1.431320e-02	-2.005551e-01
7.115456e-01	-1.290397e-02	-2.044938e-01
6.517201e-01	-1.134771e-02	-2.094639e-01
5.745583e-01	-9.680609e-03	-2.049528e-01
4.697650e-01	-7.912748e-03	-1.948906e-01
3.150072e-01	-6.076589e-03	-1.507173e-01
8.299896e-02	-4.168867e-03	-4.962570e-02
-2.484108e-01	-2.237503e-03	1.904573e-01
-6.768391e-01	-2.216396e-04	9.037479e-01
-4.509370e-01	1.786797e-03	2.860321e+00
2.823827e+00	4.116088e-03	2.827862e+00
2.962008e+00	6.124222e-03	9.151701e-01
2.518017e+00	8.137853e-03	6.494650e-02
2.160737e+00	1.006184e-02	-1.937713e-01
1.910387e+00	1.195242e-02	-3.516870e-01
1.730314e+00	1.375605e-02	-4.143888e-01
1.572808e+00	1.546812e-02	-4.619482e-01
1.456143e+00	1.704801e-02	-4.782629e-01
1.354666e+00	1.847821e-02	-4.921394e-01
1.271707e+00	1.974430e-02	-4.902782e-01
1.198804e+00	2.080959e-02	-4.886884e-01
1.136487e+00	2.166992e-02	-4.794067e-01
1.080555e+00	2.230694e-02	-4.716352e-01
1.029172e+00	2.277854e-02	-4.595323e-01
9.815362e-01	2.308060e-02	-4.492215e-01
9.334893e-01	2.324524e-02	-4.347584e-01
8.875244e-01	2.330770e-02	-4.212485e-01
8.394012e-01	2.330545e-02	-4.033476e-01
7.894756e-01	2.327499e-02	-3.835577e-01
7.416746e-01	2.324818e-02	-3.619443e-01
8.181556e-01	-1.021989e-02	-1.440742e-01
8.367404e-01	-1.019885e-02	-1.488613e-01
8.489671e-01	-1.014255e-02	-1.548172e-01
8.553524e-01	-1.003673e-02	-1.602206e-01
8.527725e-01	-9.871526e-03	-1.661788e-01
8.489659e-01	-9.623608e-03	-1.713013e-01
8.364729e-01	-9.310895e-03	-1.768660e-01
8.225736e-01	-8.913396e-03	-1.811546e-01
8.009407e-01	-8.440024e-03	-1.868036e-01
7.769164e-01	-7.876096e-03	-1.911438e-01
7.414905e-01	-7.236660e-03	-1.975306e-01
6.983561e-01	-6.499038e-03	-2.007033e-01
6.367930e-01	-5.693470e-03	-2.046663e-01
5.574746e-01	-4.817228e-03	-1.988588e-01
4.500573e-01	-3.882364e-03	-1.867145e-01
2.917587e-01	-2.906322e-03	-1.395939e-01
5.528074e-02	-1.892457e-03	-3.305277e-02
-2.825678e-01	-8.588966e-04	2.166456e-01
-7.144362e-01	2.208551e-04	9.539493e-01
-4.667721e-01	1.295564e-03	2.960764e+00
2.895402e+00	2.537754e-03	2.899540e+00
3.021259e+00	3.602544e-03	9.334769e-01
2.560228e+00	4.662220e-03	6.603525e-02
2.191963e+00	5.665655e-03	-1.965717e-01
1.934701e+00	6.645486e-03	-3.561630e-01
1.749919e+00	7.565723e-03	-4.190839e-01
1.588913e+00	8.430237e-03	-4.666783e-01
1.469553e+00	9.227376e-03	-4.826675e-01
1.365881e+00	9.936168e-03	-4.962135e-01
1.281347e+00	1.055533e-02	-4.939945e-01
1.206803e+00	1.109390e-02	-4.919495e-01
1.142500e+00	1.152531e-02	-4.819431e-01
1.085249e+00	1.186346e-02	-4.736842e-01
1.032974e+00	1.210166e-02	-4.612297e-01
9.842017e-01	1.226178e-02	-4.504414e-01
9.351561e-01	1.234278e-02	-4.355347e-01
8.883138e-01	1.238676e-02	-4.216232e-01
8.394625e-01	1.239696e-02	-4.033770e-01
7.889768e-01	1.239013e-02	-3.833154e-01
7.407051e-01	1.238146e-02	-3.614711e-01
8.170279e-01	-5.651988e-03	-1.438756e-01
8.351853e-01	-5.640867e-03	-1.485846e-01
8.470020e-01	-5.609360e-03	-1.544589e-01
8.529470e-01	-5.549980e-03	-1.597701e-01
8.496112e-01	-5.453786e-03	-1.655627e-01
8.453665e-01	-5.313487e-03	-1.705750e-01
8.324890e-01	-5.142126e-03	-1.760236e-01
8.184685e-01	-4.922424e-03	-1.802505e-01
7.963060e-01	-4.657497e-03	-1.857226e-01
7.711160e-01	-4.321698e-03	-1.897167e-01
7.348476e-01	-3.930746e-03	-1.957609e-01
6.909780e-01	-3.494457e-03	-1.985828e-01
6.283637e-01	-3.022935e-03	-2.019571e-01
5.476514e-01	-2.602588e-03	-1.953547e-01
4.386716e-01	-2.059274e-03	-1.819910e-01
2.783618e-01	-1.451689e-03	-1.331841e-01
3.928073e-02	-8.422820e-04	-2.348624e-02
-3.024618e-01	-2.227114e-04	2.318983e-01
-7.363371e-01	4.250687e-04	9.831925e-01
-4.759839e-01	1.069708e-03	3.019195e+00
2.936895e+00	1.812916e-03	2.941092e+00
3.055428e+00	2.447658e-03	9.440341e-01
2.584428e+00	3.076045e-03	6.665943e-02
2.209867e+00	3.666805e-03	-1.981772e-01
1.948494e+00	4.236406e-03	-3.587022e-01
1.760871e+00	4.759663e-03	-4.217069e-01
1.597946e+00	5.245387e-03	-4.693314e-01
1.477002e+00	5.789236e-03	-4.851141e-01
1.371967e+00	6.193565e-03	-4.984245e-01
1.286317e+00	6.531988e-03	-4.959107e-01
1.210951e+00	6.812918e-03	-4.936401e-01
1.146321e+00	7.042387e-03	-4.835550e-01
1.088278e+00	7.239898e-03	-4.750059e-01
1.034943e+00	7.382341e-03	-4.621092e-01
9.854728e-01	7.480483e-03	-4.510231e-01
9.358720e-01	7.528962e-03	-4.358682e-01
8.888576e-01	7.552301e-03	-4.218813e-01
8.396026e-01	7.558727e-03	-4.034444e-01
7.887816e-01	7.554883e-03	-3.832206e-01
7.403473e-01	7.550623e-03	-3.612965e-01
8.162892e-01	-3.263080e-03	-1.437455e-01
8.342262e-01	-3.270056e-03	-1.484140e-01
8.457723e-01	-3.250796e-03	-1.542346e-01
8.513770e-01	-3.214324e-03	-1.594760e-01
8.479386e-01	-3.152649e-03	-1.652368e-01
8.435616e-01	-3.100083e-03	-1.702108e-01
8.304232e-01	-2.982989e-03	-1.755868e-01
8.156718e-01	-2.839149e-03	-1.796346e-01
7.928273e-01	-2.655001e-03	-1.849113e-01
7.673745e-01	-2.422717e-03	-1.887962e-01
7.306784e-01	-2.183399e-03	-1.946503e-01
6.862555e-01	-1.957751e-03	-1.972256e-01
6.243676e-01	-1.643711e-03	-2.006728e-01
5.432239e-01	-1.425621e-03	-1.937754e-01
4.313719e-01	-1.061196e-03	-1.789625e-01
2.693124e-01	-6.835582e-04	-1.288543e-01
2.903453e-02	-2.878598e-04	-1.735996e-02
-3.149800e-01	1.070923e-04	2.414961e-01
-7.501286e-01	5.191747e-04	1.001608e+00
-4.817788e-01	9.284482e-04	3.055952e+00
2.962915e+00	1.399499e-03	2.967149e+00
3.076773e+00	1.800608e-03	9.506292e-01
2.599449e+00	2.196323e-03	6.704687e-02
2.220687e+00	2.566183e-03	-1.991476e-01
1.956598e+00	2.916053e-03	-3.601940e-01
1.767187e+00	3.242536e-03	-4.232194e-01
1.604562e+00	3.656105e-03	-4.712746e-01
1.482650e+00	3.905769e-03	-4.869690e-01
1.375553e+00	4.156097e-03	-4.997274e-01
1.289161e+00	4.374879e-03	-4.970073e-01
1.213195e+00	4.539913e-03	-4.945549e-01
1.147951e+00	4.645578e-03	-4.842427e-01
1.089803e+00	4.740136e-03	-4.756716e-01
1.036458e+00	4.815076e-03	-4.627852e-01
9.865971e-01	4.861103e-03	-4.515377e-01
9.365319e-01	4.922629e-03	-4.361755e-01
8.890415e-01	4.931723e-03	-4.219686e-01
8.396005e-01	4.933565e-03	-4.034434e-01
7.886055e-01	4.930228e-03	-3.831350e-01
7.400528e-01	4.941121e-03	-3.611528e-01
8.181986e-01	-2.031345e-03	-1.440818e-01
8.341213e-01	-2.027309e-03	-1.483953e-01
8.450422e-01	-2.017121e-03	-1.541015e-01
8.504328e-01	-1.998512e-03	-1.592991e-01
8.473326e-01	-1.968379e-03	-1.651187e-01
8.423704e-01	-2.012329e-03	-1.699704e-01
8.284565e-01	-1.890100e-03	-1.751710e-01
8.137931e-01	-1.785295e-03	-1.792209e-01
7.906819e-01	-1.686318e-03	-1.844109e-01
7.649259e-01	-1.545266e-03	-1.881938e-01
7.287674e-01	-1.389531e-03	-1.941412e-01
6.838023e-01	-1.219968e-03	-1.965206e-01
6.209210e-01	-1.021910e-03	-1.995650e-01
5.390889e-01	-7.438167e-04	-1.923003e-01
4.265941e-01	-5.080251e-04	-1.769804e-01
2.641258e-01	-3.001444e-04	-1.263728e-01
2.237739e-02	-5.614390e-05	-1.337961e-02
-3.231049e-01	1.666877e-04	2.477254e-01
-7.590249e-01	4.282264e-04	1.013486e+00
-4.855042e-01	6.873874e-04	3.079583e+00
2.979615e+00	9.846359e-04	2.983873e+00
3.090436e+00	1.235830e-03	9.548505e-01
2.609046e+00	1.508071e-03	6.729439e-02
2.227664e+00	1.737455e-03	-1.997732e-01
1.962055e+00	1.957894e-03	-3.611986e-01
1.773663e+00	2.171609e-03	-4.247705e-01
1.607879e+00	2.398073e-03	-4.722489e-01
1.483941e+00	2.470472e-03	-4.873931e-01
1.378078e+00	2.614331e-03	-5.006448e-01
1.291158e+00	2.750016e-03	-4.977772e-01
1.214342e+00	2.862299e-03	-4.950227e-01
1.148876e+00	2.952284e-03	-4.846330e-01
1.090545e+00	3.050472e-03	-4.759954e-01
1.036700e+00	3.115659e-03	-4.628933e-01
9.871751e-01	3.236196e-03	-4.518023e-01
9.372725e-01	3.227651e-03	-4.365204e-01
8.891280e-01	3.221681e-03	-4.220096e-01
8.395871e-01	3.218719e-03	-4.034369e-01
7.889168e-01	3.215467e-03	-3.832863e-01
7.420155e-01	3.213176e-03	-3.621107e-01
8.156119e-01	-1.151515e-03	-1.436263e-01
8.333982e-01	-1.134616e-03	-1.482667e-01
8.447626e-01	-1.126147e-03	-1.540505e-01
8.501316e-01	-1.135139e-03	-1.592427e-01
8.483539e-01	-1.114905e-03	-1.653177e-01
8.420239e-01	-1.063337e-03	-1.699005e-01
8.269450e-01	-1.021885e-03	-1.748514e-01
8.127807e-01	-9.930357e-04	-1.789979e-01
7.895819e-01	-9.996774e-04	-1.841544e-01
7.634784e-01	-9.190984e-04	-1.878377e-01
7.264264e-01	-8.155709e-04	-1.935176e-01
6.813592e-01	-6.600207e-04	-1.958184e-01
6.177817e-01	-5.795366e-04	-1.985560e-01
5.355469e-01	-3.444494e-04	-1.910369e-01
4.241132e-01	-2.537857e-04	-1.759512e-01
2.610355e-01	-1.250456e-04	-1.248942e-01
1.900261e-02	1.286231e-05	-1.136180e-02
-3.272525e-01	1.555628e-04	2.509055e-01
-7.645149e-01	3.056945e-04	1.020817e+00
-4.877980e-01	4.552944e-04	3.094132e+00
2.989761e+00	6.274740e-04	2.994034e+00
3.099992e+00	7.737499e-04	9.578029e-01
2.615445e+00	9.175411e-04	6.745945e-02
2.231820e+00	1.051804e-03	-2.001459e-01
1.965317e+00	1.179960e-03	-3.617992e-01
1.774752e+00	1.300203e-03	-4.250313e-01
1.608979e+00	1.327274e-03	-4.725719e-01
1.485683e+00	1.438130e-03	-4.879651e-01
1.379198e+00	1.545196e-03	-5.010514e-01
1.292290e+00	1.605639e-03	-4.982135e-01
1.215728e+00	1.673837e-03	-4.955874e-01
1.150348e+00	1.819433e-03	-4.852539e-01
1.091994e+00	1.840140e-03	-4.766279e-01
1.039085e+00	1.881998e-03	-4.639582e-01
9.885230e-01	1.893904e-03	-4.524192e-01
9.362582e-01	1.879124e-03	-4.360480e-01
8.888291e-01	1.882138e-03	-4.218678e-01
8.394131e-01	1.903858e-03	-4.033533e-01
7.883326e-01	1.900662e-03	-3.830024e-01
7.397019e-01	1.885056e-03	-3.609816e-01
8.153626e-01	-1.376411e-03	-1.435824e-01
8.329680e-01	-1.376447e-03	-1.481902e-01
8.451700e-01	-1.377056e-03	-1.541248e-01
8.500616e-01	-1.359086e-03	-1.592296e-01
8.458317e-01	-1.317304e-03	-1.648262e-01
8.407794e-01	-1.239473e-03	-1.696494e-01
8.273849e-01	-1.142449e-03	-1.749444e-01
8.134935e-01	-1.205072e-03	-1.791549e-01
7.896632e-01	-9.850122e-04	-1.841733e-01
7.625081e-01	-1.033586e-03	-1.875989e-01
7.253842e-01	-6.760977e-04	-1.932399e-01
6.806336e-01	-7.631410e-04	-1.956099e-01
6.166013e-01	-3.268439e-04	-1.981767e-01
5.341378e-01	-3.896906e-04	-1.905342e-01
4.230591e-01	7.047155e-05	-1.755139e-01
2.592220e-01	4.110440e-04	-1.240265e-01
1.639082e-02	6.075163e-04	-9.800194e-03
-3.305902e-01	6.564044e-04	2.534645e-01
-7.673014e-01	7.039333e-04	1.024537e+00
-4.889841e-01	7.647110e-04	3.101656e+00
2.995211e+00	8.457304e-04	2.999491e+00
3.103175e+00	9.248248e-04	9.587865e-01
2.617986e+00	9.914397e-04	6.752499e-02
2.234156e+00	1.103707e-03	-2.003554e-01
1.967037e+00	1.038952e-03	-3.621157e-01
1.776087e+00	8.568213e-04	-4.253511e-01
1.610031e+00	4.771453e-04	-4.728809e-01
1.486964e+00	6.391454e-04	-4.883859e-01
1.380251e+00	3.227576e-04	-5.014342e-01
1.292783e+00	4.531797e-04	-4.984036e-01
1.217013e+00	1.590394e-04	-4.961115e-01
1.151027e+00	3.102849e-04	-4.855402e-01
1.091369e+00	5.165438e-05	-4.763554e-01
1.037492e+00	1.078118e-04	-4.632472e-01
9.871573e-01	-1.096585e-04	-4.517941e-01
9.370236e-01	-5.175382e-05	-4.364045e-01
8.896376e-01	-6.618865e-05	-4.222515e-01
8.402952e-01	-7.221911e-05	-4.037772e-01
7.882299e-01	-6.718536e-05	-3.829525e-01
7.396256e-01	-6.612364e-05	-3.609443e-01
8.156179e-01	-1.300526e-05	-1.436273e-01
8.334407e-01	-1.126456e-05	-1.482742e-01
8.440685e-01	-3.029476e-05	-1.539239e-01
8.485742e-01	-5.274953e-06	-1.589510e-01
8.458835e-01	-4.125150e-06	-1.648363e-01
8.389899e-01	-1.427399e-06	-1.692883e-01
8.265349e-01	9.364661e-07	-1.747647e-01
8.104190e-01	5.489459e-06	-1.784778e-01
7.873401e-01	5.147001e-05	-1.836315e-01
7.593977e-01	4.291963e-05	-1.868337e-01
7.228555e-01	3.755479e-05	-1.925663e-01
6.768399e-01	7.158279e-06	-1.945196e-01
6.123665e-01	-1.708456e-05	-1.968156e-01
5.300111e-01	-1.062921e-05	-1.890622e-01
4.109402e-01	2.393544e-05	-1.704861e-01
2.508943e-01	-5.821794e-06	-1.200421e-01
1.339088e-02	2.032480e-07	-8.006504e-03
-3.297328e-01	5.253698e-06	2.528071e-01
-7.674296e-01	8.959068e-06	1.024709e+00
-4.893117e-01	1.163583e-05	3.103734e+00
2.997699e+00	1.406611e-05	3.001983e+00
3.106290e+00	1.581577e-05	9.597488e-01
2.621466e+00	1.724349e-05	6.761473e-02
2.232488e+00	1.790151e-05	-2.002059e-01
1.960144e+00	5.350193e-05	-3.608468e-01
1.764896e+00	5.314798e-05	-4.226708e-01
1.606076e+00	2.328786e-05	-4.717194e-01
1.483328e+00	7.991112e-05	-4.871917e-01
1.376888e+00	7.177374e-05	-5.002125e-01
1.290191e+00	6.472240e-05	-4.974042e-01
1.213912e+00	6.102137e-05	-4.948471e-01
1.149079e+00	2.160105e-05	-4.847184e-01
1.089164e+00	2.935604e-05	-4.753927e-01
1.036960e+00	3.259388e-05	-4.630095e-01
9.856824e-01	3.756774e-05	-4.511191e-01
9.371889e-01	4.063078e-05	-4.364815e-01
8.883381e-01	4.368136e-05	-4.216347e-01
8.393187e-01	2.123092e-05	-4.033079e-01
7.886772e-01	4.157551e-05	-3.831698e-01
7.398645e-01	4.017165e-05	-3.610609e-01
8.150705e-01	1.464371e-03	-1.435309e-01
8.341962e-01	1.464731e-03	-1.484087e-01
8.446925e-01	1.466424e-03	-1.540377e-01
8.494879e-01	1.451075e-03	-1.591221e-01
8.457515e-01	1.412939e-03	-1.648106e-01
8.406926e-01	1.426806e-03	-1.696319e-01
8.272769e-01	1.288891e-03	-1.749216e-01
8.127575e-01	1.351539e-03	-1.789928e-01
7.891728e-01	1.110338e-03	-1.840590e-01
7.626906e-01	1.135261e-03	-1.876438e-01
7.258498e-01	7.862042e-04	-1.933640e-01
6.813641e-01	7.991316e-04	-1.958199e-01
6.168623e-01	3.679162e-04	-1.982605e-01
5.335477e-01	4.582028e-04	-1.903237e-01
4.229132e-01	-3.704896e-05	-1.754533e-01
2.597181e-01	-3.781216e-04	-1.242638e-01
1.615164e-02	-5.759179e-04	-9.657187e-03
-3.308205e-01	-6.016298e-04	2.536410e-01
-7.674834e-01	-6.533035e-04	1.024780e+00
-4.890405e-01	-7.475201e-04	3.102014e+00
2.995412e+00	-8.348475e-04	2.999693e+00
3.103312e+00	-8.906594e-04	9.588288e-01
2.618050e+00	-9.885114e-04	6.752662e-02
2.235156e+00	-1.104385e-03	-2.004451e-01
1.967682e+00	-1.044328e-03	-3.622344e-01
1.775537e+00	-8.344477e-04	-4.252191e-01
1.610500e+00	-4.912212e-04	-4.730187e-01
1.487608e+00	-6.610364e-04	-4.885975e-01
1.380054e+00	-3.566899e-04	-5.013623e-01
1.292648e+00	-4.214771e-04	-4.983513e-01
1.216476e+00	-1.432030e-04	-4.958924e-01
1.150612e+00	-2.448737e-04	-4.853650e-01
1.091518e+00	-2.951915e-05	-4.764202e-01
1.037609e+00	-1.270676e-04	-4.632993e-01
9.872878e-01	-1.572634e-05	-4.518538e-01
9.371371e-01	-4.789053e-05	-4.364573e-01
8.892694e-01	-2.120542e-05	-4.220767e-01
8.399832e-01	-1.205211e-05	-4.036272e-01
7.894438e-01	-1.631276e-05	-3.835423e-01
7.394106e-01	-1.730178e-05	-3.608394e-01
8.155575e-01	1.328680e-03	-1.436167e-01
8.333137e-01	1.324095e-03	-1.482517e-01
8.446298e-01	1.334464e-03	-1.540263e-01
8.499729e-01	1.325465e-03	-1.592130e-01
8.462746e-01	1.210965e-03	-1.649125e-01
8.412996e-01	1.183233e-03	-1.697544e-01
8.275429e-01	1.138970e-03	-1.749778e-01
8.130899e-01	1.076266e-03	-1.790660e-01
7.901862e-01	1.040536e-03	-1.842953e-01
7.636761e-01	9.512707e-04	-1.878863e-01
7.272787e-01	8.526083e-04	-1.937446e-01
6.823012e-01	7.726561e-04	-1.960892e-01
6.173394e-01	6.829146e-04	-1.984139e-01
5.356158e-01	5.249066e-04	-1.910614e-01
4.247295e-01	3.816420e-04	-1.762068e-01
2.610678e-01	2.662428e-04	-1.249096e-01
1.859636e-02	1.093984e-04	-1.111890e-02
-3.278536e-01	-4.926765e-05	2.513663e-01
-7.636429e-01	-2.136246e-04	1.019653e+00
-4.873106e-01	-3.761323e-04	3.091041e+00
2.990863e+00	-5.626628e-04	2.995137e+00
3.099151e+00	-7.211636e-04	9.575431e-01
2.614462e+00	-8.771254e-04	6.743409e-02
2.231611e+00	-1.022445e-03	-2.001272e-01
1.965838e+00	-1.196067e-03	-3.618951e-01
1.774532e+00	-1.323252e-03	-4.249786e-01
1.608329e+00	-1.441631e-03	-4.723810e-01
1.485405e+00	-1.582308e-03	-4.878740e-01
1.379917e+00	-1.677420e-03	-5.013128e-01
1.292912e+00	-1.752744e-03	-4.984533e-01
1.216145e+00	-1.817269e-03	-4.957577e-01
1.150451e+00	-1.906035e-03	-4.852973e-01
1.090865e+00	-1.941698e-03	-4.761351e-01
1.037012e+00	-1.961971e-03	-4.630330e-01
9.870992e-01	-1.984408e-03	-4.517675e-01
9.369863e-01	-2.005673e-03	-4.363871e-01
8.892061e-01	-1.924034e-03	-4.220467e-01
8.395453e-01	-1.933870e-03	-4.034168e-01
7.883827e-01	-1.952585e-03	-3.830268e-01
7.397131e-01	-1.950117e-03	-3.609870e-01
8.158400e-01	2.156498e-03	-1.436664e-01
8.336518e-01	2.152004e-03	-1.483118e-01
8.447694e-01	2.144994e-03	-1.540517e-01
8.528847e-01	2.045098e-03	-1.597584e-01
8.484483e-01	2.011798e-03	-1.653361e-01
8.419517e-01	1.973660e-03	-1.698860e-01
8.289355e-01	1.892372e-03	-1.752723e-01
8.141432e-01	1.795321e-03	-1.792980e-01
7.908710e-01	1.668416e-03	-1.844550e-01
7.651576e-01	1.550695e-03	-1.882508e-01
7.281865e-01	1.382949e-03	-1.939865e-01
6.836252e-01	1.279585e-03	-1.964697e-01
6.202773e-01	1.056961e-03	-1.993581e-01
5.380412e-01	8.465131e-04	-1.919266e-01