# vtk DataFile Version 2.0
OUTPUT by 3D-VPM
ASCII
DATASET UNSTRUCTURED_GRID
POINTS 820 double
9.510565e-01	0.000000e+00	-3.090170e-01
9.442611e-01	0.000000e+00	-3.078203e-01
9.267277e-01	0.000000e+00	-3.047010e-01
8.963175e-01	0.000000e+00	-2.991555e-01
8.562911e-01	0.000000e+00	-2.916579e-01
8.054250e-01	0.000000e+00	-2.817457e-01
7.470317e-01	0.000000e+00	-2.699633e-01
6.809074e-01	0.000000e+00	-2.559818e-01
6.100852e-01	0.000000e+00	-2.403847e-01
5.354138e-01	0.000000e+00	-2.229691e-01
4.593635e-01	0.000000e+00	-2.042585e-01
3.837764e-01	0.000000e+00	-1.841224e-01
3.103069e-01	0.000000e+00	-1.630077e-01
2.415927e-01	0.000000e+00	-1.409228e-01
1.782654e-01	0.000000e+00	-1.183331e-01
1.234349e-01	0.000000e+00	-9.558566e-02
7.662509e-02	0.000000e+00	-7.318920e-02
4.106998e-02	0.000000e+00	-5.193053e-02
1.528206e-02	0.000000e+00	-3.215886e-02
2.347037e-03	0.000000e+00	-1.488740e-02
0.000000e+00	0.000000e+00	0.000000e+00
1.064939e-02	0.000000e+00	1.066461e-02
3.126595e-02	0.000000e+00	1.703450e-02
6.375031e-02	0.000000e+00	1.787236e-02
1.050105e-01	0.000000e+00	1.417221e-02
1.560448e-01	0.000000e+00	4.777214e-03
2.137742e-01	0.000000e+00	-9.048270e-03
2.782849e-01	0.000000e+00	-2.799567e-02
3.468570e-01	0.000000e+00	-5.051783e-02
4.187060e-01	0.000000e+00	-7.662000e-02
4.916930e-01	0.000000e+00	-1.047585e-01
5.642168e-01	0.000000e+00	-1.343226e-01
6.348639e-01	0.000000e+00	-1.641238e-01
7.013280e-01	0.000000e+00	-1.931337e-01
7.630418e-01	0.000000e+00	-2.206893e-01
8.172084e-01	0.000000e+00	-2.454799e-01
8.641863e-01	0.000000e+00	-2.673591e-01
9.009752e-01	0.000000e+00	-2.848204e-01
9.288372e-01	0.000000e+00	-2.982085e-01
9.448555e-01	0.000000e+00	-3.059908e-01
9.510565e-01	0.000000e+00	-3.090170e-01
9.510565e-01	1.052632e+00	-3.090170e-01
9.442611e-01	1.052632e+00	-3.078203e-01
9.267277e-01	1.052632e+00	-3.047010e-01
8.963175e-01	1.052632e+00	-2.991555e-01
8.562911e-01	1.052632e+00	-2.916579e-01
8.054250e-01	1.052632e+00	-2.817457e-01
7.470317e-01	1.052632e+00	-2.699633e-01
6.809074e-01	1.052632e+00	-2.559818e-01
6.100852e-01	1.052632e+00	-2.403847e-01
5.354138e-01	1.052632e+00	-2.229691e-01
4.593635e-01	1.052632e+00	-2.042585e-01
3.837764e-01	1.052632e+00	-1.841224e-01
3.103069e-01	1.052632e+00	-1.630077e-01
2.415927e-01	1.052632e+00	-1.409228e-01
1.782654e-01	1.052632e+00	-1.183331e-01
1.234349e-01	1.052632e+00	-9.558566e-02
7.662509e-02	1.052632e+00	-7.318920e-02
4.106998e-02	1.052632e+00	-5.193053e-02
1.528206e-02	1.052632e+00	-3.215886e-02
2.347037e-03	1.052632e+00	-1.488740e-02
0.000000e+00	1.052632e+00	0.000000e+00
1.064939e-02	1.052632e+00	1.066461e-02
3.126595e-02	1.052632e+00	1.703450e-02
6.375031e-02	1.052632e+00	1.787236e-02
1.050105e-01	1.052632e+00	1.417221e-02
1.560448e-01	1.052632e+00	4.777214e-03
2.137742e-01	1.052632e+00	-9.048270e-03
2.782849e-01	1.052632e+00	-2.799567e-02
3.468570e-01	1.052632e+00	-5.051783e-02
4.187060e-01	1.052632e+00	-7.662000e-02
4.916930e-01	1.052632e+00	-1.047585e-01
5.642168e-01	1.052632e+00	-1.343226e-01
6.348639e-01	1.052632e+00	-1.641238e-01
7.013280e-01	1.052632e+00	-1.931337e-01
7.630418e-01	1.052632e+00	-2.206893e-01
8.172084e-01	1.052632e+00	-2.454799e-01
8.641863e-01	1.052632e+00	-2.673591e-01
9.009752e-01	1.052632e+00	-2.848204e-01
9.288372e-01	1.052632e+00	-2.982085e-01
9.448555e-01	1.052632e+00	-3.059908e-01
9.510565e-01	1.052632e+00	-3.090170e-01
9.510565e-01	2.105263e+00	-3.090170e-01
9.442611e-01	2.105263e+00	-3.078203e-01
9.267277e-01	2.105263e+00	-3.047010e-01
8.963175e-01	2.105263e+00	-2.991555e-01
8.562911e-01	2.105263e+00	-2.916579e-01
8.054250e-01	2.105263e+00	-2.817457e-01
7.470317e-01	2.105263e+00	-2.699633e-01
6.809074e-01	2.105263e+00	-2.559818e-01
6.100852e-01	2.105263e+00	-2.403847e-01
5.354138e-01	2.105263e+00	-2.229691e-01
4.593635e-01	2.105263e+00	-2.042585e-01
3.837764e-01	2.105263e+00	-1.841224e-01
3.103069e-01	2.105263e+00	-1.630077e-01
2.415927e-01	2.105263e+00	-1.409228e-01
1.782654e-01	2.105263e+00	-1.183331e-01
1.234349e-01	2.105263e+00	-9.558566e-02
7.662509e-02	2.105263e+00	-7.318920e-02
4.106998e-02	2.105263e+00	-5.193053e-02
1.528206e-02	2.105263e+00	-3.215886e-02
2.347037e-03	2.105263e+00	-1.488740e-02
0.000000e+00	2.105263e+00	0.000000e+00
1.064939e-02	2.105263e+00	1.066461e-02
3.126595e-02	2.105263e+00	1.703450e-02
6.375031e-02	2.105263e+00	1.787236e-02
1.050105e-01	2.105263e+00	1.417221e-02
1.560448e-01	2.105263e+00	4.777214e-03
2.137742e-01	2.105263e+00	-9.048270e-03
2.782849e-01	2.105263e+00	-2.799567e-02
3.468570e-01	2.105263e+00	-5.051783e-02
4.187060e-01	2.105263e+00	-7.662000e-02
4.916930e-01	2.105263e+00	-1.047585e-01
5.642168e-01	2.105263e+00	-1.343226e-01
6.348639e-01	2.105263e+00	-1.641238e-01
7.013280e-01	2.105263e+00	-1.931337e-01
7.630418e-01	2.105263e+00	-2.206893e-01
8.172084e-01	2.105263e+00	-2.454799e-01
8.641863e-01	2.105263e+00	-2.673591e-01
9.009752e-01	2.105263e+00	-2.848204e-01
9.288372e-01	2.105263e+00	-2.982085e-01
9.448555e-01	2.105263e+00	-3.059908e-01
9.510565e-01	2.105263e+00	-3.090170e-01
9.510565e-01	3.157895e+00	-3.090170e-01
9.442611e-01	3.157895e+00	-3.078203e-01
9.267277e-01	3.157895e+00	-3.047010e-01
8.963175e-01	3.157895e+00	-2.991555e-01
8.562911e-01	3.157895e+00	-2.916579e-01
8.054250e-01	3.157895e+00	-2.817457e-01
7.470317e-01	3.157895e+00	-2.699633e-01
6.809074e-01	3.157895e+00	-2.559818e-01
6.100852e-01	3.157895e+00	-2.403847e-01
5.354138e-01	3.157895e+00	-2.229691e-01
4.593635e-01	3.157895e+00	-2.042585e-01
3.837764e-01	3.157895e+00	-1.841224e-01
3.103069e-01	3.157895e+00	-1.630077e-01
2.415927e-01	3.157895e+00	-1.409228e-01
1.782654e-01	3.157895e+00	-1.183331e-01
1.234349e-01	3.157895e+00	-9.558566e-02
7.662509e-02	3.157895e+00	-7.318920e-02
4.106998e-02	3.157895e+00	-5.193053e-02
1.528206e-02	3.157895e+00	-3.215886e-02
2.347037e-03	3.157895e+00	-1.488740e-02
0.000000e+00	3.157895e+00	0.000000e+00
1.064939e-02	3.157895e+00	1.066461e-02
3.126595e-02	3.157895e+00	1.703450e-02
6.375031e-02	3.157895e+00	1.787236e-02
1.050105e-01	3.157895e+00	1.417221e-02
1.560448e-01	3.157895e+00	4.777214e-03
2.137742e-01	3.157895e+00	-9.048270e-03
2.782849e-01	3.157895e+00	-2.799567e-02
3.468570e-01	3.157895e+00	-5.051783e-02
4.187060e-01	3.157895e+00	-7.662000e-02
4.916930e-01	3.157895e+00	-1.047585e-01
5.642168e-01	3.157895e+00	-1.343226e-01
6.348639e-01	3.157895e+00	-1.641238e-01
7.013280e-01	3.157895e+00	-1.931337e-01
7.630418e-01	3.157895e+00	-2.206893e-01
8.172084e-01	3.157895e+00	-2.454799e-01
8.641863e-01	3.157895e+00	-2.673591e-01
9.009752e-01	3.157895e+00	-2.848204e-01
9.288372e-01	3.157895e+00	-2.982085e-01
9.448555e-01	3.157895e+00	-3.059908e-01
9.510565e-01	3.157895e+00	-3.090170e-01
9.510565e-01	4.210526e+00	-3.090170e-01
9.442611e-01	4.210526e+00	-3.078203e-01
9.267277e-01	4.210526e+00	-3.047010e-01
8.963175e-01	4.210526e+00	-2.991555e-01
8.562911e-01	4.210526e+00	-2.916579e-01
8.054250e-01	4.210526e+00	-2.817457e-01
7.470317e-01	4.210526e+00	-2.699633e-01
6.809074e-01	4.210526e+00	-2.559818e-01
6.100852e-01	4.210526e+00	-2.403847e-01
5.354138e-01	4.210526e+00	-2.229691e-01
4.593635e-01	4.210526e+00	-2.042585e-01
3.837764e-01	4.210526e+00	-1.841224e-01
3.103069e-01	4.210526e+00	-1.630077e-01
2.415927e-01	4.210526e+00	-1.409228e-01
1.782654e-01	4.210526e+00	-1.183331e-01
1.234349e-01	4.210526e+00	-9.558566e-02
7.662509e-02	4.210526e+00	-7.318920e-02
4.106998e-02	4.210526e+00	-5.193053e-02
1.528206e-02	4.210526e+00	-3.215886e-02
2.347037e-03	4.210526e+00	-1.488740e-02
0.000000e+00	4.210526e+00	0.000000e+00
1.064939e-02	4.210526e+00	1.066461e-02
3.126595e-02	4.210526e+00	1.703450e-02
6.375031e-02	4.210526e+00	1.787236e-02
1.050105e-01	4.210526e+00	1.417221e-02
1.560448e-01	4.210526e+00	4.777214e-03
2.137742e-01	4.210526e+00	-9.048270e-03
2.782849e-01	4.210526e+00	-2.799567e-02
3.468570e-01	4.210526e+00	-5.051783e-02
4.187060e-01	4.210526e+00	-7.662000e-02
4.916930e-01	4.210526e+00	-1.047585e-01
5.642168e-01	4.210526e+00	-1.343226e-01
6.348639e-01	4.210526e+00	-1.641238e-01
7.013280e-01	4.210526e+00	-1.931337e-01
7.630418e-01	4.210526e+00	-2.206893e-01
8.172084e-01	4.210526e+00	-2.454799e-01
8.641863e-01	4.210526e+00	-2.673591e-01
9.009752e-01	4.210526e+00	-2.848204e-01
9.288372e-01	4.210526e+00	-2.982085e-01
9.448555e-01	4.210526e+00	-3.059908e-01
9.510565e-01	4.210526e+00	-3.090170e-01
9.510565e-01	5.263158e+00	-3.090170e-01
9.442611e-01	5.263158e+00	-3.078203e-01
9.267277e-01	5.263158e+00	-3.047010e-01
8.963175e-01	5.263158e+00	-2.991555e-01
8.562911e-01	5.263158e+00	-2.916579e-01
8.054250e-01	5.263158e+00	-2.817457e-01
7.470317e-01	5.263158e+00	-2.699633e-01
6.809074e-01	5.263158e+00	-2.559818e-01
6.100852e-01	5.263158e+00	-2.403847e-01
5.354138e-01	5.263158e+00	-2.229691e-01
4.593635e-01	5.263158e+00	-2.042585e-01
3.837764e-01	5.263158e+00	-1.841224e-01
3.103069e-01	5.263158e+00	-1.630077e-01
2.415927e-01	5.263158e+00	-1.409228e-01
1.782654e-01	5.263158e+00	-1.183331e-01
1.234349e-01	5.263158e+00	-9.558566e-02
7.662509e-02	5.263158e+00	-7.318920e-02
4.106998e-02	5.263158e+00	-5.193053e-02
1.528206e-02	5.263158e+00	-3.215886e-02
2.347037e-03	5.263158e+00	-1.488740e-02
0.000000e+00	5.263158e+00	0.000000e+00
1.064939e-02	5.263158e+00	1.066461e-02
3.126595e-02	5.263158e+00	1.703450e-02
6.375031e-02	5.263158e+00	1.787236e-02
1.050105e-01	5.263158e+00	1.417221e-02
1.560448e-01	5.263158e+00	4.777214e-03
2.137742e-01	5.263158e+00	-9.048270e-03
2.782849e-01	5.263158e+00	-2.799567e-02
3.468570e-01	5.263158e+00	-5.051783e-02
4.187060e-01	5.263158e+00	-7.662000e-02
4.916930e-01	5.263158e+00	-1.047585e-01
5.642168e-01	5.263158e+00	-1.343226e-01
6.348639e-01	5.263158e+00	-1.641238e-01
7.013280e-01	5.263158e+00	-1.931337e-01
7.630418e-01	5.263158e+00	-2.206893e-01
8.172084e-01	5.263158e+00	-2.454799e-01
8.641863e-01	5.263158e+00	-2.673591e-01
9.009752e-01	5.263158e+00	-2.848204e-01
9.288372e-01	5.263158e+00	-2.982085e-01
9.448555e-01	5.263158e+00	-3.059908e-01
9.510565e-01	5.263158e+00	-3.090170e-01
9.510565e-01	6.315789e+00	-3.090170e-01
9.442611e-01	6.315789e+00	-3.078203e-01
[...]
CELL_DATA 760
VECTORS V double
8.414226e-01	-6.903484e-02	-1.481714e-01
8.655434e-01	-6.886126e-02	-1.539855e-01
8.835580e-01	-6.841150e-02	-1.611252e-01
8.953235e-01	-6.761709e-02	-1.677078e-01
8.977879e-01	-6.645616e-02	-1.749509e-01
8.990997e-01	-6.491106e-02	-1.814171e-01
8.920613e-01	-6.297147e-02	-1.886198e-01
8.847501e-01	-6.061332e-02	-1.948477e-01
8.704152e-01	-5.780813e-02	-2.030071e-01
8.547744e-01	-5.452330e-02	-2.102991e-01
8.294685e-01	-5.073336e-02	-2.209676e-01
7.985456e-01	-4.642408e-02	-2.294971e-01
7.511951e-01	-4.162843e-02	-2.414353e-01
6.891690e-01	-3.639760e-02	-2.458360e-01
6.025161e-01	-3.076953e-02	-2.499649e-01
4.718359e-01	-2.486705e-02	-2.257530e-01
2.701212e-01	-1.869815e-02	-1.615075e-01
-1.745781e-02	-1.242889e-02	1.338495e-02
-4.218512e-01	-5.860707e-03	5.632759e-01
-3.427149e-01	7.202620e-04	2.173861e+00
2.327147e+00	8.433874e-03	2.330473e+00
2.541800e+00	1.519905e-02	7.853389e-01
2.210627e+00	2.214567e-02	5.701809e-02
1.925580e+00	2.899344e-02	-1.726829e-01
1.720225e+00	3.598337e-02	-3.166796e-01
1.570436e+00	4.295036e-02	-3.760999e-01
1.435578e+00	4.988876e-02	-4.216424e-01
1.336756e+00	5.662008e-02	-4.390511e-01
1.250655e+00	6.302614e-02	-4.543529e-01
1.181711e+00	6.890912e-02	-4.555821e-01
1.121879e+00	7.415350e-02	-4.573304e-01
1.071620e+00	7.862217e-02	-4.520438e-01
1.027479e+00	8.225291e-02	-4.484689e-01
9.872038e-01	8.503797e-02	-4.407931e-01
9.499818e-01	8.702874e-02	-4.347799e-01
9.115292e-01	8.832313e-02	-4.245308e-01
8.743616e-01	8.904945e-02	-4.150010e-01
8.341869e-01	8.935678e-02	-4.008420e-01
7.910582e-01	8.940075e-02	-3.843266e-01
7.483069e-01	8.935508e-02	-3.651809e-01
8.268569e-01	-4.834434e-02	-1.456065e-01
8.473447e-01	-4.822003e-02	-1.507479e-01
8.618072e-01	-4.790150e-02	-1.571587e-01
8.704932e-01	-4.733768e-02	-1.630567e-01
8.702443e-01	-4.650594e-02	-1.695835e-01
8.688599e-01	-4.538745e-02	-1.753154e-01
8.588606e-01	-4.397154e-02	-1.815997e-01
8.479908e-01	-4.224319e-02	-1.867522e-01
8.293201e-01	-4.018760e-02	-1.934225e-01
8.083313e-01	-3.778958e-02	-1.988728e-01
7.765427e-01	-3.501937e-02	-2.068684e-01
7.378818e-01	-3.192743e-02	-2.120627e-01
6.815760e-01	-2.849111e-02	-2.190596e-01
6.085222e-01	-2.476551e-02	-2.170682e-01
5.087196e-01	-2.077657e-02	-2.110517e-01
3.607152e-01	-1.660737e-02	-1.725866e-01
1.373026e-01	-1.225967e-02	-8.209422e-02
-1.815878e-01	-7.846913e-03	1.392239e-01
-6.032930e-01	-3.229224e-03	8.055457e-01
-4.198853e-01	1.390479e-03	2.663358e+00
2.682678e+00	6.790856e-03	2.686512e+00
2.844244e+00	1.150706e-02	8.787847e-01
2.433366e+00	1.632134e-02	6.276314e-02
2.097419e+00	2.103075e-02	-1.880931e-01
1.860550e+00	2.579404e-02	-3.425124e-01
1.689698e+00	3.049154e-02	-4.046618e-01
1.539104e+00	3.511745e-02	-4.520491e-01
1.427842e+00	3.955362e-02	-4.689676e-01
1.330745e+00	4.372824e-02	-4.834491e-01
1.251926e+00	4.753364e-02	-4.826520e-01
1.182687e+00	5.085950e-02	-4.821186e-01
1.123353e+00	5.367704e-02	-4.738665e-01
1.070405e+00	5.593652e-02	-4.672050e-01
1.021751e+00	5.764238e-02	-4.562188e-01
9.765979e-01	5.883585e-02	-4.469614e-01
9.307660e-01	5.958778e-02	-4.334901e-01
8.867530e-01	5.998655e-02	-4.208824e-01
8.402947e-01	6.013298e-02	-4.037769e-01
7.917014e-01	6.012935e-02	-3.846391e-01
7.448099e-01	6.008605e-02	-3.634743e-01
8.205609e-01	-2.041101e-02	-1.444978e-01
8.397191e-01	-2.035917e-02	-1.493912e-01
8.527016e-01	-2.022880e-02	-1.554982e-01
8.598597e-01	-1.999275e-02	-1.610649e-01
8.580684e-01	-1.963412e-02	-1.672108e-01
8.551011e-01	-1.913623e-02	-1.725392e-01
8.434770e-01	-1.848932e-02	-1.783470e-01
8.308724e-01	-1.768808e-02	-1.829823e-01
8.103119e-01	-1.670536e-02	-1.889892e-01
7.869194e-01	-1.558506e-02	-1.936048e-01
7.528497e-01	-1.431290e-02	-2.005566e-01
7.115521e-01	-1.290370e-02	-2.044957e-01
6.517275e-01	-1.134746e-02	-2.094663e-01
5.745669e-01	-9.680381e-03	-2.049558e-01
4.697751e-01	-7.912545e-03	-1.948948e-01
3.150192e-01	-6.076413e-03	-1.507230e-01
8.301340e-02	-4.168719e-03	-4.963433e-02
-2.483930e-01	-2.237382e-03	1.904436e-01
-6.768195e-01	-2.215475e-04	9.037218e-01
-4.509288e-01	1.786861e-03	2.860269e+00
2.823791e+00	4.116119e-03	2.827826e+00
2.961979e+00	6.124225e-03	9.151612e-01
2.517997e+00	8.137829e-03	6.494599e-02
2.160723e+00	1.006178e-02	-1.937700e-01
1.910377e+00	1.195234e-02	-3.516850e-01
1.730306e+00	1.375595e-02	-4.143869e-01
1.572802e+00	1.546800e-02	-4.619463e-01
1.456138e+00	1.704787e-02	-4.782612e-01
1.354662e+00	1.847805e-02	-4.921379e-01
1.271704e+00	1.974413e-02	-4.902770e-01
1.198801e+00	2.080941e-02	-4.886874e-01
1.136485e+00	2.166973e-02	-4.794058e-01
1.080554e+00	2.230675e-02	-4.716346e-01
1.029171e+00	2.277834e-02	-4.595319e-01
9.815355e-01	2.308041e-02	-4.492212e-01
9.334890e-01	2.324505e-02	-4.347583e-01
8.875243e-01	2.330751e-02	-4.212485e-01
8.394015e-01	2.330526e-02	-4.033477e-01
7.894761e-01	2.327480e-02	-3.835580e-01
7.416752e-01	2.324800e-02	-3.619446e-01
8.181570e-01	-1.021965e-02	-1.440744e-01
8.367419e-01	-1.019861e-02	-1.488616e-01
8.489691e-01	-1.014232e-02	-1.548176e-01
8.553547e-01	-1.003649e-02	-1.602211e-01
8.527752e-01	-9.871295e-03	-1.661793e-01
8.489689e-01	-9.623382e-03	-1.713019e-01
8.364764e-01	-9.310676e-03	-1.768667e-01
8.225776e-01	-8.913184e-03	-1.811555e-01
8.009452e-01	-8.439821e-03	-1.868046e-01
7.769215e-01	-7.875900e-03	-1.911451e-01
7.414963e-01	-7.236476e-03	-1.975321e-01
6.983628e-01	-6.498863e-03	-2.007052e-01
6.368007e-01	-5.693305e-03	-2.046688e-01
5.574835e-01	-4.817072e-03	-1.988619e-01
4.500676e-01	-3.882219e-03	-1.867188e-01
2.917710e-01	-2.906187e-03	-1.395998e-01
5.529554e-02	-1.892333e-03	-3.306161e-02
-2.825495e-01	-8.587824e-04	2.166315e-01
-7.144162e-01	2.209591e-04	9.539226e-01
-4.667638e-01	1.295658e-03	2.960711e+00
2.895365e+00	2.537837e-03	2.899503e+00
3.021229e+00	3.602617e-03	9.334678e-01
2.560208e+00	4.662283e-03	6.603472e-02
2.191949e+00	5.665711e-03	-1.965704e-01
1.934690e+00	6.645533e-03	-3.561610e-01
1.749910e+00	7.565761e-03	-4.190819e-01
1.588906e+00	8.430266e-03	-4.666764e-01
1.469548e+00	9.227397e-03	-4.826658e-01
1.365877e+00	9.936183e-03	-4.962120e-01
1.281343e+00	1.055534e-02	-4.939932e-01
1.206801e+00	1.109390e-02	-4.919484e-01
1.142498e+00	1.152531e-02	-4.819423e-01
1.085248e+00	1.186345e-02	-4.736835e-01
1.032973e+00	1.210166e-02	-4.612292e-01
9.842010e-01	1.226177e-02	-4.504411e-01
9.351557e-01	1.234277e-02	-4.355345e-01
8.883137e-01	1.238675e-02	-4.216231e-01
8.394627e-01	1.239695e-02	-4.033771e-01
7.889773e-01	1.239012e-02	-3.833156e-01
7.407058e-01	1.238146e-02	-3.614715e-01
8.170293e-01	-5.651884e-03	-1.438759e-01
8.351870e-01	-5.640763e-03	-1.485849e-01
8.470041e-01	-5.609258e-03	-1.544592e-01
8.529494e-01	-5.549880e-03	-1.597705e-01
8.496139e-01	-5.453689e-03	-1.655633e-01
8.453697e-01	-5.313392e-03	-1.705756e-01
8.324926e-01	-5.142031e-03	-1.760244e-01
8.184725e-01	-4.922345e-03	-1.802514e-01
7.963106e-01	-4.657418e-03	-1.857237e-01
7.711211e-01	-4.321619e-03	-1.897180e-01
7.348535e-01	-3.930669e-03	-1.957625e-01
6.909847e-01	-3.494380e-03	-1.985847e-01
6.283714e-01	-3.022856e-03	-2.019596e-01
5.476603e-01	-2.602503e-03	-1.953579e-01
4.386820e-01	-2.059189e-03	-1.819953e-01
2.783742e-01	-1.451602e-03	-1.331900e-01
3.929561e-02	-8.421908e-04	-2.349514e-02
-3.024434e-01	-2.226156e-04	2.318842e-01
-7.363170e-01	4.251698e-04	9.831657e-01
-4.759755e-01	1.069814e-03	3.019141e+00
2.936858e+00	1.813029e-03	2.941055e+00
3.055398e+00	2.447777e-03	9.440249e-01
2.584408e+00	3.076169e-03	6.665890e-02
2.209853e+00	3.666935e-03	-1.981759e-01
1.948483e+00	4.236539e-03	-3.587002e-01
1.760862e+00	4.759804e-03	-4.217048e-01
1.597939e+00	5.245530e-03	-4.693294e-01
1.476997e+00	5.789378e-03	-4.851123e-01
1.371963e+00	6.193707e-03	-4.984229e-01
1.286314e+00	6.532129e-03	-4.959094e-01
1.210948e+00	6.813060e-03	-4.936390e-01
1.146319e+00	7.042528e-03	-4.835541e-01
1.088276e+00	7.240039e-03	-4.750052e-01
1.034942e+00	7.382506e-03	-4.621086e-01
9.854720e-01	7.480646e-03	-4.510228e-01
9.358717e-01	7.529123e-03	-4.358680e-01
8.888576e-01	7.552462e-03	-4.218813e-01
8.396029e-01	7.558887e-03	-4.034445e-01
7.887821e-01	7.555044e-03	-3.832208e-01
7.403480e-01	7.550785e-03	-3.612969e-01
8.162907e-01	-3.263155e-03	-1.437458e-01
8.342280e-01	-3.270133e-03	-1.484143e-01
8.457743e-01	-3.250875e-03	-1.542350e-01
8.513794e-01	-3.214407e-03	-1.594764e-01
8.479414e-01	-3.152735e-03	-1.652373e-01
8.435647e-01	-3.100172e-03	-1.702114e-01
8.304270e-01	-2.983081e-03	-1.755876e-01
8.156759e-01	-2.839244e-03	-1.796355e-01
7.928318e-01	-2.655093e-03	-1.849123e-01
7.673797e-01	-2.422805e-03	-1.887975e-01
7.306842e-01	-2.183508e-03	-1.946518e-01
6.862621e-01	-1.957837e-03	-1.972275e-01
6.243752e-01	-1.643776e-03	-2.006752e-01
5.432326e-01	-1.425657e-03	-1.937785e-01
4.313822e-01	-1.061211e-03	-1.789668e-01
2.693246e-01	-6.835488e-04	-1.288601e-01
2.904913e-02	-2.878245e-04	-1.736869e-02
-3.149620e-01	1.071536e-04	2.414822e-01
-7.501088e-01	5.192637e-04	1.001581e+00
-4.817706e-01	9.285653e-04	3.055900e+00
2.962879e+00	1.399649e-03	2.967113e+00
3.076744e+00	1.800786e-03	9.506202e-01
2.599429e+00	2.196528e-03	6.704635e-02
2.220673e+00	2.566411e-03	-1.991463e-01
1.956587e+00	2.916305e-03	-3.601920e-01
1.767179e+00	3.242812e-03	-4.232175e-01
1.604555e+00	3.656393e-03	-4.712726e-01
1.482644e+00	3.906078e-03	-4.869672e-01
1.375549e+00	4.156425e-03	-4.997259e-01
1.289158e+00	4.375274e-03	-4.970060e-01
1.213192e+00	4.540307e-03	-4.945538e-01
1.147949e+00	4.645972e-03	-4.842419e-01
1.089802e+00	4.740528e-03	-4.756711e-01
1.036457e+00	4.815467e-03	-4.627849e-01
9.865963e-01	4.861490e-03	-4.515374e-01
9.365315e-01	4.923011e-03	-4.361753e-01
8.890415e-01	4.932103e-03	-4.219685e-01
8.396008e-01	4.933945e-03	-4.034435e-01
7.886061e-01	4.930607e-03	-3.831353e-01
7.400535e-01	4.941502e-03	-3.611532e-01
8.182003e-01	-2.031776e-03	-1.440821e-01
8.341231e-01	-2.027743e-03	-1.483957e-01
8.450444e-01	-2.017560e-03	-1.541019e-01
8.504354e-01	-1.998961e-03	-1.592996e-01
8.473355e-01	-1.968840e-03	-1.651193e-01
8.423736e-01	-2.012800e-03	-1.699711e-01
8.284602e-01	-1.890587e-03	-1.751718e-01
8.137971e-01	-1.785762e-03	-1.792218e-01
7.906864e-01	-1.686786e-03	-1.844120e-01
7.649313e-01	-1.545722e-03	-1.881951e-01
7.287732e-01	-1.389961e-03	-1.941427e-01
6.838084e-01	-1.220362e-03	-1.965223e-01
6.209280e-01	-1.022253e-03	-1.995673e-01
5.390970e-01	-7.441650e-04	-1.923033e-01
4.266038e-01	-5.082977e-04	-1.769844e-01
2.641373e-01	-3.003304e-04	-1.263783e-01
2.239116e-02	-5.625297e-05	-1.338784e-02
-3.230879e-01	1.666544e-04	2.477124e-01
-7.590063e-01	4.282756e-04	1.013461e+00
-4.854965e-01	6.875185e-04	3.079534e+00
2.979581e+00	9.848619e-04	2.983839e+00
3.090408e+00	1.236137e-03	9.548420e-01
2.609027e+00	1.508462e-03	6.729390e-02
2.227650e+00	1.737919e-03	-1.997720e-01
1.962045e+00	1.958425e-03	-3.611968e-01
1.773655e+00	2.172204e-03	-4.247686e-01
1.607873e+00	2.398829e-03	-4.722471e-01
1.483936e+00	2.471272e-03	-4.873916e-01
1.378075e+00	2.615163e-03	-5.006436e-01
1.291156e+00	2.750873e-03	-4.977762e-01
1.214340e+00	2.863169e-03	-4.950216e-01
1.148874e+00	2.953157e-03	-4.846321e-01
1.090543e+00	3.051343e-03	-4.759947e-01
1.036698e+00	3.116477e-03	-4.628928e-01
9.871742e-01	3.237006e-03	-4.518019e-01
9.372720e-01	3.228454e-03	-4.365201e-01
8.891279e-01	3.222479e-03	-4.220096e-01
8.395874e-01	3.219515e-03	-4.034370e-01
7.889174e-01	3.216264e-03	-3.832865e-01
7.420164e-01	3.213974e-03	-3.621111e-01
8.156138e-01	-1.153331e-03	-1.436266e-01
8.334004e-01	-1.136439e-03	-1.482671e-01
8.447652e-01	-1.127987e-03	-1.540510e-01
8.501345e-01	-1.137006e-03	-1.592432e-01
8.483570e-01	-1.116800e-03	-1.653183e-01
8.420275e-01	-1.065257e-03	-1.699013e-01
8.269486e-01	-1.023815e-03	-1.748522e-01
8.127846e-01	-9.949539e-04	-1.789988e-01
7.895863e-01	-1.001562e-03	-1.841554e-01
7.634830e-01	-9.209183e-04	-1.878388e-01
7.264314e-01	-8.172659e-04	-1.935189e-01
6.813646e-01	-6.615691e-04	-1.958200e-01
6.177885e-01	-5.809283e-04	-1.985582e-01
5.355547e-01	-3.456571e-04	-1.910396e-01
4.241209e-01	-2.547687e-04	-1.759543e-01
2.610447e-01	-1.259228e-04	-1.248986e-01
1.901394e-02	1.224468e-05	-1.136857e-02
-3.272386e-01	1.552072e-04	2.508947e-01
-7.644997e-01	3.056071e-04	1.020797e+00
-4.877917e-01	4.554708e-04	3.094092e+00
2.989734e+00	6.279541e-04	2.994006e+00
3.099970e+00	7.744908e-04	9.577961e-01
2.615430e+00	9.185415e-04	6.745906e-02
2.231809e+00	1.053049e-03	-2.001450e-01
1.965309e+00	1.181615e-03	-3.617977e-01
1.774748e+00	1.302067e-03	-4.250303e-01
1.608976e+00	1.329339e-03	-4.725709e-01
1.485678e+00	1.440368e-03	-4.879637e-01
1.379194e+00	1.547582e-03	-5.010502e-01
1.292287e+00	1.608040e-03	-4.982124e-01
1.215725e+00	1.676334e-03	-4.955864e-01
1.150346e+00	1.821986e-03	-4.852531e-01
1.091992e+00	1.842722e-03	-4.766271e-01
1.039083e+00	1.884580e-03	-4.639575e-01
9.885220e-01	1.896472e-03	-4.524187e-01
9.362575e-01	1.881675e-03	-4.360477e-01
8.888289e-01	1.884674e-03	-4.218677e-01
8.394133e-01	1.906388e-03	-4.033534e-01
7.883332e-01	1.903193e-03	-3.830027e-01
7.397028e-01	1.887589e-03	-3.609820e-01
8.153654e-01	-1.386443e-03	-1.435829e-01
8.329713e-01	-1.386498e-03	-1.481907e-01
8.451737e-01	-1.387146e-03	-1.541255e-01
8.500655e-01	-1.369212e-03	-1.592303e-01
8.458356e-01	-1.327430e-03	-1.648270e-01
8.407832e-01	-1.249525e-03	-1.696502e-01
8.273885e-01	-1.152308e-03	-1.749452e-01
8.134969e-01	-1.214623e-03	-1.791557e-01
7.896663e-01	-9.941009e-04	-1.841741e-01
7.625110e-01	-1.042081e-03	-1.875997e-01
7.253865e-01	-6.838851e-04	-1.932405e-01
6.806357e-01	-7.701392e-04	-1.956105e-01
6.166036e-01	-3.329916e-04	-1.981774e-01
5.341400e-01	-3.948317e-04	-1.905350e-01
4.230633e-01	6.622854e-05	-1.755156e-01
2.592270e-01	4.076924e-04	-1.240289e-01
1.639345e-02	6.050825e-04	-9.801764e-03
-3.305868e-01	6.548823e-04	2.534619e-01
-7.672975e-01	7.033445e-04	1.024532e+00
-4.889825e-01	7.650461e-04	3.101646e+00
2.995204e+00	8.471430e-04	2.999485e+00
3.103171e+00	9.271835e-04	9.587851e-01
2.617984e+00	9.947720e-04	6.752492e-02
2.234159e+00	1.108012e-03	-2.003557e-01
1.967039e+00	1.044278e-03	-3.621161e-01
1.776087e+00	8.631641e-04	-4.253509e-01
1.610031e+00	4.843216e-04	-4.728808e-01
1.486963e+00	6.473613e-04	-4.883858e-01
1.380250e+00	3.319788e-04	-5.014339e-01
1.292782e+00	4.633255e-04	-4.984031e-01
1.217013e+00	1.699921e-04	-4.961112e-01
1.151026e+00	3.218931e-04	-4.855397e-01
1.091368e+00	6.373440e-05	-4.763549e-01
1.037491e+00	1.202028e-04	-4.632465e-01
9.871560e-01	-9.713780e-05	-4.517935e-01
9.370225e-01	-3.921218e-05	-4.364040e-01
8.896370e-01	-5.367288e-05	-4.222512e-01
8.402952e-01	-5.972813e-05	-4.037772e-01
7.882305e-01	-5.469975e-05	-3.829528e-01
7.396268e-01	-5.363230e-05	-3.609449e-01
8.156231e-01	-2.069468e-04	-1.436282e-01
8.334462e-01	-2.350562e-04	-1.482752e-01
8.440735e-01	-1.805796e-04	-1.539248e-01
8.485779e-01	-1.277197e-04	-1.589517e-01
8.458850e-01	-1.050415e-04	-1.648366e-01
8.389887e-01	-8.475786e-05	-1.692881e-01
8.265307e-01	-6.774955e-05	-1.747638e-01
8.104119e-01	-5.100317e-05	-1.784762e-01
7.873301e-01	5.131252e-06	-1.836292e-01
7.593852e-01	4.997356e-06	-1.868306e-01
7.228409e-01	6.607612e-06	-1.925624e-01
6.768235e-01	-1.804055e-05	-1.945149e-01
6.123476e-01	-3.746844e-05	-1.968095e-01
5.299904e-01	-2.697981e-05	-1.890548e-01
4.109187e-01	1.102413e-05	-1.704772e-01
2.508702e-01	-1.535534e-05	-1.200305e-01
1.336308e-02	-6.671443e-06	-7.989886e-03
-3.297661e-01	8.029377e-07	2.528326e-01
-7.674657e-01	6.877773e-06	1.024757e+00
-4.893270e-01	1.183807e-05	3.103831e+00
2.997771e+00	1.691937e-05	3.002055e+00
3.106353e+00	2.104318e-05	9.597682e-01
2.621514e+00	2.503059e-05	6.761597e-02
2.232527e+00	2.841724e-05	-2.002093e-01
1.960177e+00	6.659328e-05	-3.608528e-01
1.764923e+00	6.979034e-05	-4.226773e-01
1.606101e+00	4.410562e-05	-4.717268e-01
1.483352e+00	1.056582e-04	-4.871996e-01
1.376910e+00	1.034710e-04	-5.002204e-01
1.290210e+00	1.037026e-04	-4.974115e-01
1.213928e+00	1.088509e-04	-4.948536e-01
1.149091e+00	8.024971e-05	-4.847236e-01
1.089172e+00	1.011814e-04	-4.753965e-01
1.036965e+00	1.203588e-04	-4.630116e-01
9.856839e-01	1.444168e-04	-4.511198e-01
9.371883e-01	1.701176e-04	-4.364812e-01
8.883368e-01	2.000785e-04	-4.216341e-01
8.393178e-01	2.113263e-04	-4.033075e-01
7.886776e-01	2.898555e-04	-3.831700e-01
7.398663e-01	2.793066e-04	-3.610618e-01
8.200829e-01	1.464545e-03	-1.444136e-01
8.302492e-01	1.464905e-03	-1.477065e-01
8.416189e-01	1.466596e-03	-1.534772e-01
8.482872e-01	1.451245e-03	-1.588972e-01
8.449768e-01	1.413106e-03	-1.646596e-01
8.401445e-01	1.426969e-03	-1.695213e-01
8.268696e-01	1.289050e-03	-1.748355e-01
8.124444e-01	1.351695e-03	-1.789239e-01
7.889261e-01	1.110494e-03	-1.840014e-01
7.624915e-01	1.135414e-03	-1.875949e-01
7.256856e-01	7.863518e-04	-1.933202e-01
6.812250e-01	7.992798e-04	-1.957799e-01
6.167412e-01	3.680606e-04	-1.982216e-01
5.334382e-01	4.583507e-04	-1.902847e-01
4.228062e-01	-3.690407e-05	-1.754089e-01
2.596105e-01	-3.779774e-04	-1.242124e-01
1.604503e-02	-5.757817e-04	-9.593443e-03
-3.309404e-01	-6.014963e-04	2.537329e-01
-7.676084e-01	-6.531728e-04	1.024947e+00
-4.890923e-01	-7.473909e-04	3.102342e+00
2.995653e+00	-8.347212e-04	2.999934e+00
3.103526e+00	-8.905364e-04	9.588950e-01
2.618219e+00	-9.883911e-04	6.753099e-02
2.235290e+00	-1.104267e-03	-2.004572e-01
1.967809e+00	-1.044213e-03	-3.622578e-01
1.775669e+00	-8.343366e-04	-4.252508e-01
1.610638e+00	-4.911221e-04	-4.730593e-01
1.487759e+00	-6.609385e-04	-4.886471e-01
1.380226e+00	-3.565970e-04	-5.014248e-01
1.292850e+00	-4.213854e-04	-4.984295e-01
1.216721e+00	-1.431138e-04	-4.959924e-01
1.150916e+00	-2.447922e-04	-4.854934e-01
1.091903e+00	-2.944008e-05	-4.765885e-01
1.038108e+00	-1.269911e-04	-4.635221e-01
9.879494e-01	-1.565161e-05	-4.521566e-01
9.380481e-01	-4.781849e-05	-4.368816e-01
8.906308e-01	-2.113535e-05	-4.227229e-01
8.426373e-01	-1.198317e-05	-4.049026e-01
7.927553e-01	-1.624412e-05	-3.851511e-01
7.380112e-01	-1.723303e-05	-3.601565e-01
8.155627e-01	1.522937e-03	-1.436176e-01
8.333194e-01	1.548201e-03	-1.482527e-01
8.446350e-01	1.485063e-03	-1.540272e-01
8.499767e-01	1.448223e-03	-1.592137e-01
8.462762e-01	1.312193e-03	-1.649128e-01
8.412985e-01	1.266873e-03	-1.697542e-01
8.275388e-01	1.207962e-03	-1.749770e-01
8.130829e-01	1.133063e-03	-1.790645e-01
7.901763e-01	1.087178e-03	-1.842930e-01
7.636637e-01	9.894922e-04	-1.878833e-01
7.272642e-01	8.838886e-04	-1.937407e-01
6.822848e-01	7.981525e-04	-1.960845e-01
6.173205e-01	7.035871e-04	-1.984078e-01
5.355951e-01	5.415380e-04	-1.910541e-01
4.247081e-01	3.948280e-04	-1.761979e-01
2.610438e-01	2.760401e-04	-1.248982e-01
1.856881e-02	1.165315e-04	-1.110243e-02
-3.278867e-01	-4.456127e-05	2.513917e-01
-7.636789e-01	-2.112909e-04	1.019701e+00
-4.873259e-01	-3.760855e-04	3.091138e+00
2.990934e+00	-5.652712e-04	2.995208e+00
3.099213e+00	-7.261499e-04	9.575624e-01
2.614510e+00	-8.846755e-04	6.743532e-02
2.231649e+00	-1.032726e-03	-2.001306e-01
1.965871e+00	-1.208921e-03	-3.619012e-01
1.774559e+00	-1.339663e-03	-4.249850e-01
1.608354e+00	-1.462219e-03	-4.723883e-01
1.485429e+00	-1.607832e-03	-4.878819e-01
1.379939e+00	-1.708900e-03	-5.013207e-01
1.292931e+00	-1.791524e-03	-4.984607e-01
1.216161e+00	-1.864900e-03	-4.957642e-01
1.150464e+00	-1.964484e-03	-4.853025e-01
1.090873e+00	-2.013328e-03	-4.761388e-01
1.037017e+00	-2.049543e-03	-4.630351e-01
9.871006e-01	-2.091066e-03	-4.517682e-01
9.369856e-01	-2.134970e-03	-4.363868e-01
8.892047e-01	-2.080245e-03	-4.220460e-01
8.395444e-01	-2.123779e-03	-4.034164e-01
7.883832e-01	-2.200680e-03	-3.830270e-01
7.397148e-01	-2.189066e-03	-3.609879e-01
8.158429e-01	2.166802e-03	-1.436669e-01
8.336552e-01	2.162328e-03	-1.483124e-01
8.447732e-01	2.155357e-03	-1.540524e-01
8.528886e-01	2.055501e-03	-1.597591e-01
8.484523e-01	2.022200e-03	-1.653369e-01
8.419556e-01	1.983979e-03	-1.698868e-01
8.289392e-01	1.902502e-03	-1.752731e-01
8.141466e-01	1.805147e-03	-1.792988e-01
7.908741e-01	1.677781e-03	-1.844558e-01
7.651601e-01	1.559466e-03	-1.882514e-01
7.281888e-01	1.391013e-03	-1.939871e-01
6.836278e-01	1.286853e-03	-1.964704e-01
6.202798e-01	1.063383e-03	-1.993589e-01
5.380435e-01	8.519054e-04	-1.919275e-01