# vtk DataFile Version 2.0
OUTPUT by 3D-VPM
ASCII
DATASET UNSTRUCTURED_GRID
POINTS 820 double
9.510565e-01	0.000000e+00	-3.090170e-01
9.442611e-01	0.000000e+00	-3.078203e-01
9.267277e-01	0.000000e+00	-3.047010e-01
8.963175e-01	0.000000e+00	-2.991555e-01
8.562911e-01	0.000000e+00	-2.916579e-01
8.054250e-01	0.000000e+00	-2.817457e-01
7.470317e-01	0.000000e+00	-2.699633e-01
6.809074e-01	0.000000e+00	-2.559818e-01
6.100852e-01	0.000000e+00	-2.403847e-01
5.354138e-01	0.000000e+00	-2.229691e-01
4.593635e-01	0.000000e+00	-2.042585e-01
3.837764e-01	0.000000e+00	-1.841224e-01
3.103069e-01	0.000000e+00	-1.630077e-01
2.415927e-01	0.000000e+00	-1.409228e-01
1.782654e-01	0.000000e+00	-1.183331e-01
1.234349e-01	0.000000e+00	-9.558566e-02
7.662509e-02	0.000000e+00	-7.318920e-02
4.106998e-02	0.000000e+00	-5.193053e-02
1.528206e-02	0.000000e+00	-3.215886e-02
2.347037e-03	0.000000e+00	-1.488740e-02
0.000000e+00	0.000000e+00	0.000000e+00
1.064939e-02	0.000000e+00	1.066461e-02
3.126595e-02	0.000000e+00	1.703450e-02
6.375031e-02	0.000000e+00	1.787236e-02
1.050105e-01	0.000000e+00	1.417221e-02
1.560448e-01	0.000000e+00	4.777214e-03
2.137742e-01	0.000000e+00	-9.048270e-03
2.782849e-01	0.000000e+00	-2.799567e-02
3.468570e-01	0.000000e+00	-5.051783e-02
4.187060e-01	0.000000e+00	-7.662000e-02
4.916930e-01	0.000000e+00	-1.047585e-01
5.642168e-01	0.000000e+00	-1.343226e-01
6.348639e-01	0.000000e+00	-1.641238e-01
7.013280e-01	0.000000e+00	-1.931337e-01
7.630418e-01	0.000000e+00	-2.206893e-01
8.172084e-01	0.000000e+00	-2.454799e-01
8.641863e-01	0.000000e+00	-2.673591e-01
9.009752e-01	0.000000e+00	-2.848204e-01
9.288372e-01	0.000000e+00	-2.982085e-01
9.448555e-01	0.000000e+00	-3.059908e-01
9.510565e-01	0.000000e+00	-3.090170e-01
9.510565e-01	1.052632e+00	-3.090170e-01
9.442611e-01	1.052632e+00	-3.078203e-01
9.267277e-01	1.052632e+00	-3.047010e-01
8.963175e-01	1.052632e+00	-2.991555e-01
8.562911e-01	1.052632e+00	-2.916579e-01
8.054250e-01	1.052632e+00	-2.817457e-01
7.470317e-01	1.052632e+00	-2.699633e-01
6.809074e-01	1.052632e+00	-2.559818e-01
6.100852e-01	1.052632e+00	-2.403847e-01
5.354138e-01	1.052632e+00	-2.229691e-01
4.593635e-01	1.052632e+00	-2.042585e-01
3.837764e-01	1.052632e+00	-1.841224e-01
3.103069e-01	1.052632e+00	-1.630077e-01
2.415927e-01	1.052632e+00	-1.409228e-01
1.782654e-01	1.052632e+00	-1.183331e-01
1.234349e-01	1.052632e+00	-9.558566e-02
7.662509e-02	1.052632e+00	-7.318920e-02
4.106998e-02	1.052632e+00	-5.193053e-02
1.528206e-02	1.052632e+00	-3.215886e-02
2.347037e-03	1.052632e+00	-1.488740e-02
0.000000e+00	1.052632e+00	0.000000e+00
1.064939e-02	1.052632e+00	1.066461e-02
3.126595e-02	1.052632e+00	1.703450e-02
6.375031e-02	1.052632e+00	1.787236e-02
1.050105e-01	1.052632e+00	1.417221e-02
1.560448e-01	1.052632e+00	4.777214e-03
2.137742e-01	1.052632e+00	-9.048270e-03
2.782849e-01	1.052632e+00	-2.799567e-02
3.468570e-01	1.052632e+00	-5.051783e-02
4.187060e-01	1.052632e+00	-7.662000e-02
4.916930e-01	1.052632e+00	-1.047585e-01
5.642168e-01	1.052632e+00	-1.343226e-01
6.348639e-01	1.052632e+00	-1.641238e-01
7.013280e-01	1.052632e+00	-1.931337e-01
7.630418e-01	1.052632e+00	-2.206893e-01
8.172084e-01	1.052632e+00	-2.454799e-01
8.641863e-01	1.052632e+00	-2.673591e-01
9.009752e-01	1.052632e+00	-2.848204e-01
9.288372e-01	1.052632e+00	-2.982085e-01
9.448555e-01	1.052632e+00	-3.059908e-01
9.510565e-01	1.052632e+00	-3.090170e-01
9.510565e-01	2.105263e+00	-3.090170e-01
9.442611e-01	2.105263e+00	-3.078203e-01
9.267277e-01	2.105263e+00	-3.047010e-01
8.963175e-01	2.105263e+00	-2.991555e-01
8.562911e-01	2.105263e+00	-2.916579e-01
8.054250e-01	2.105263e+00	-2.817457e-01
7.470317e-01	2.105263e+00	-2.699633e-01
6.809074e-01	2.105263e+00	-2.559818e-01
6.100852e-01	2.105263e+00	-2.403847e-01
5.354138e-01	2.105263e+00	-2.229691e-01
4.593635e-01	2.105263e+00	-2.042585e-01
3.837764e-01	2.105263e+00	-1.841224e-01
3.103069e-01	2.105263e+00	-1.630077e-01
2.415927e-01	2.105263e+00	-1.409228e-01
1.782654e-01	2.105263e+00	-1.183331e-01
1.234349e-01	2.105263e+00	-9.558566e-02
7.662509e-02	2.105263e+00	-7.318920e-02
4.106998e-02	2.105263e+00	-5.193053e-02
1.528206e-02	2.105263e+00	-3.215886e-02
2.347037e-03	2.105263e+00	-1.488740e-02
0.000000e+00	2.105263e+00	0.000000e+00
1.064939e-02	2.105263e+00	1.066461e-02
3.126595e-02	2.105263e+00	1.703450e-02
6.375031e-02	2.105263e+00	1.787236e-02
1.050105e-01	2.105263e+00	1.417221e-02
1.560448e-01	2.105263e+00	4.777214e-03
2.137742e-01	2.105263e+00	-9.048270e-03
2.782849e-01	2.105263e+00	-2.799567e-02
3.468570e-01	2.105263e+00	-5.051783e-02
4.187060e-01	2.105263e+00	-7.662000e-02
4.916930e-01	2.105263e+00	-1.047585e-01
5.642168e-01	2.105263e+00	-1.343226e-01
6.348639e-01	2.105263e+00	-1.641238e-01
7.013280e-01	2.105263e+00	-1.931337e-01
7.630418e-01	2.105263e+00	-2.206893e-01
8.172084e-01	2.105263e+00	-2.454799e-01
8.641863e-01	2.105263e+00	-2.673591e-01
9.009752e-01	2.105263e+00	-2.848204e-01
9.288372e-01	2.105263e+00	-2.982085e-01
9.448555e-01	2.105263e+00	-3.059908e-01
9.510565e-01	2.105263e+00	-3.090170e-01
9.510565e-01	3.157895e+00	-3.090170e-01
9.442611e-01	3.157895e+00	-3.078203e-01
9.267277e-01	3.157895e+00	-3.047010e-01
8.963175e-01	3.157895e+00	-2.991555e-01
8.562911e-01	3.157895e+00	-2.916579e-01
8.054250e-01	3.157895e+00	-2.817457e-01
7.470317e-01	3.157895e+00	-2.699633e-01
6.809074e-01	3.157895e+00	-2.559818e-01
6.100852e-01	3.157895e+00	-2.403847e-01
5.354138e-01	3.157895e+00	-2.229691e-01
4.593635e-01	3.157895e+00	-2.042585e-01
3.837764e-01	3.157895e+00	-1.841224e-01
3.103069e-01	3.157895e+00	-1.630077e-01
2.415927e-01	3.157895e+00	-1.409228e-01
1.782654e-01	3.157895e+00	-1.183331e-01
1.234349e-01	3.157895e+00	-9.558566e-02
7.662509e-02	3.157895e+00	-7.318920e-02
4.106998e-02	3.157895e+00	-5.193053e-02
1.528206e-02	3.157895e+00	-3.215886e-02
2.347037e-03	3.157895e+00	-1.488740e-02
0.000000e+00	3.157895e+00	0.000000e+00
1.064939e-02	3.157895e+00	1.066461e-02
3.126595e-02	3.157895e+00	1.703450e-02
6.375031e-02	3.157895e+00	1.787236e-02
1.050105e-01	3.157895e+00	1.417221e-02
1.560448e-01	3.157895e+00	4.777214e-03
2.137742e-01	3.157895e+00	-9.048270e-03
2.782849e-01	3.157895e+00	-2.799567e-02
3.468570e-01	3.157895e+00	-5.051783e-02
4.187060e-01	3.157895e+00	-7.662000e-02
4.916930e-01	3.157895e+00	-1.047585e-01
5.642168e-01	3.157895e+00	-1.343226e-01
6.348639e-01	3.157895e+00	-1.641238e-01
7.013280e-01	3.157895e+00	-1.931337e-01
7.630418e-01	3.157895e+00	-2.206893e-01
8.172084e-01	3.157895e+00	-2.454799e-01
8.641863e-01	3.157895e+00	-2.673591e-01
9.009752e-01	3.157895e+00	-2.848204e-01
9.288372e-01	3.157895e+00	-2.982085e-01
9.448555e-01	3.157895e+00	-3.059908e-01
9.510565e-01	3.157895e+00	-3.090170e-01
9.510565e-01	4.210526e+00	-3.090170e-01
9.442611e-01	4.210526e+00	-3.078203e-01
9.267277e-01	4.210526e+00	-3.047010e-01
8.963175e-01	4.210526e+00	-2.991555e-01
8.562911e-01	4.210526e+00	-2.916579e-01
8.054250e-01	4.210526e+00	-2.817457e-01
7.470317e-01	4.210526e+00	-2.699633e-01
6.809074e-01	4.210526e+00	-2.559818e-01
6.100852e-01	4.210526e+00	-2.403847e-01
5.354138e-01	4.210526e+00	-2.229691e-01
4.593635e-01	4.210526e+00	-2.042585e-01
3.837764e-01	4.210526e+00	-1.841224e-01
3.103069e-01	4.210526e+00	-1.630077e-01
2.415927e-01	4.210526e+00	-1.409228e-01
1.782654e-01	4.210526e+00	-1.183331e-01
1.234349e-01	4.210526e+00	-9.558566e-02
7.662509e-02	4.210526e+00	-7.318920e-02
4.106998e-02	4.210526e+00	-5.193053e-02
1.528206e-02	4.210526e+00	-3.215886e-02
2.347037e-03	4.210526e+00	-1.488740e-02
0.000000e+00	4.210526e+00	0.000000e+00
1.064939e-02	4.210526e+00	1.066461e-02
3.126595e-02	4.210526e+00	1.703450e-02
6.375031e-02	4.210526e+00	1.787236e-02
1.050105e-01	4.210526e+00	1.417221e-02
1.560448e-01	4.210526e+00	4.777214e-03
2.137742e-01	4.210526e+00	-9.048270e-03
2.782849e-01	4.210526e+00	-2.799567e-02
3.468570e-01	4.210526e+00	-5.051783e-02
4.187060e-01	4.210526e+00	-7.662000e-02
4.916930e-01	4.210526e+00	-1.047585e-01
5.642168e-01	4.210526e+00	-1.343226e-01
6.348639e-01	4.210526e+00	-1.641238e-01
7.013280e-01	4.210526e+00	-1.931337e-01
7.630418e-01	4.210526e+00	-2.206893e-01
8.172084e-01	4.210526e+00	-2.454799e-01
8.641863e-01	4.210526e+00	-2.673591e-01
9.009752e-01	4.210526e+00	-2.848204e-01
9.288372e-01	4.210526e+00	-2.982085e-01
9.448555e-01	4.210526e+00	-3.059908e-01
9.510565e-01	4.210526e+00	-3.090170e-01
9.510565e-01	5.263158e+00	-3.090170e-01
9.442611e-01	5.263158e+00	-3.078203e-01
9.267277e-01	5.263158e+00	-3.047010e-01
8.963175e-01	5.263158e+00	-2.991555e-01
8.562911e-01	5.263158e+00	-2.916579e-01
8.054250e-01	5.263158e+00	-2.817457e-01
7.470317e-01	5.263158e+00	-2.699633e-01
6.809074e-01	5.263158e+00	-2.559818e-01
6.100852e-01	5.263158e+00	-2.403847e-01
5.354138e-01	5.263158e+00	-2.229691e-01
4.593635e-01	5.263158e+00	-2.042585e-01
3.837764e-01	5.263158e+00	-1.841224e-01
3.103069e-01	5.263158e+00	-1.630077e-01
2.415927e-01	5.263158e+00	-1.409228e-01
1.782654e-01	5.263158e+00	-1.183331e-01
1.234349e-01	5.263158e+00	-9.558566e-02
7.662509e-02	5.263158e+00	-7.318920e-02
4.106998e-02	5.263158e+00	-5.193053e-02
1.528206e-02	5.263158e+00	-3.215886e-02
2.347037e-03	5.263158e+00	-1.488740e-02
0.000000e+00	5.263158e+00	0.000000e+00
1.064939e-02	5.263158e+00	1.066461e-02
3.126595e-02	5.263158e+00	1.703450e-02
6.375031e-02	5.263158e+00	1.787236e-02
1.050105e-01	5.263158e+00	1.417221e-02
1.560448e-01	5.263158e+00	4.777214e-03
2.137742e-01	5.263158e+00	-9.048270e-03
2.782849e-01	5.263158e+00	-2.799567e-02
3.468570e-01	5.263158e+00	-5.051783e-02
4.187060e-01	5.263158e+00	-7.662000e-02
4.916930e-01	5.263158e+00	-1.047585e-01
5.642168e-01	5.263158e+00	-1.343226e-01
6.348639e-01	5.263158e+00	-1.641238e-01
7.013280e-01	5.263158e+00	-1.931337e-01
7.630418e-01	5.263158e+00	-2.206893e-01
8.172084e-01	5.263158e+00	-2.454799e-01
8.641863e-01	5.263158e+00	-2.673591e-01
9.009752e-01	5.263158e+00	-2.848204e-01
9.288372e-01	5.263158e+00	-2.982085e-01
9.448555e-01	5.263158e+00	-3.059908e-01
9.510565e-01	5.263158e+00	-3.090170e-01
9.510565e-01	6.315789e+00	-3.090170e-01
9.442611e-01	6.315789e+00	-3.078203e-01
[...]
CELL_DATA 760
VECTORS V double
8.414220e-01	-6.903679e-02	-1.481713e-01
8.655426e-01	-6.886321e-02	-1.539854e-01
8.835569e-01	-6.841344e-02	-1.611250e-01
8.953220e-01	-6.761903e-02	-1.677076e-01
8.977861e-01	-6.645809e-02	-1.749505e-01
8.990976e-01	-6.491296e-02	-1.814167e-01
8.920588e-01	-6.297335e-02	-1.886192e-01
8.847472e-01	-6.061517e-02	-1.948470e-01
8.704118e-01	-5.780994e-02	-2.030064e-01
8.547705e-01	-5.452508e-02	-2.102981e-01
8.294641e-01	-5.073507e-02	-2.209665e-01
7.985404e-01	-4.642573e-02	-2.294956e-01
7.511891e-01	-4.163001e-02	-2.414334e-01
6.891620e-01	-3.639910e-02	-2.458335e-01
6.025077e-01	-3.077093e-02	-2.499614e-01
4.718258e-01	-2.486836e-02	-2.257482e-01
2.701090e-01	-1.869936e-02	-1.615002e-01
-1.747304e-02	-1.243000e-02	1.339663e-02
-4.218680e-01	-5.861717e-03	5.632983e-01
-3.427219e-01	7.193516e-04	2.173906e+00
2.327178e+00	8.433077e-03	2.330504e+00
2.541825e+00	1.519835e-02	7.853465e-01
2.210644e+00	2.214507e-02	5.701852e-02
1.925592e+00	2.899294e-02	-1.726839e-01
1.720234e+00	3.598296e-02	-3.166812e-01
1.570442e+00	4.295005e-02	-3.761015e-01
1.435583e+00	4.988854e-02	-4.216438e-01
1.336760e+00	5.661995e-02	-4.390523e-01
1.250658e+00	6.302610e-02	-4.543539e-01
1.181713e+00	6.890916e-02	-4.555829e-01
1.121881e+00	7.415362e-02	-4.573310e-01
1.071621e+00	7.862237e-02	-4.520443e-01
1.027480e+00	8.225316e-02	-4.484693e-01
9.872043e-01	8.503827e-02	-4.407933e-01
9.499821e-01	8.702908e-02	-4.347801e-01
9.115292e-01	8.832350e-02	-4.245309e-01
8.743615e-01	8.904984e-02	-4.150009e-01
8.341867e-01	8.935717e-02	-4.008419e-01
7.910579e-01	8.940114e-02	-3.843265e-01
7.483066e-01	8.935547e-02	-3.651807e-01
8.268561e-01	-4.834587e-02	-1.456063e-01
8.473436e-01	-4.822156e-02	-1.507477e-01
8.618058e-01	-4.790302e-02	-1.571585e-01
8.704915e-01	-4.733920e-02	-1.630564e-01
8.702423e-01	-4.650745e-02	-1.695831e-01
8.688575e-01	-4.538895e-02	-1.753149e-01
8.588577e-01	-4.397302e-02	-1.815991e-01
8.479874e-01	-4.224466e-02	-1.867515e-01
8.293162e-01	-4.018904e-02	-1.934216e-01
8.083268e-01	-3.779100e-02	-1.988717e-01
7.765374e-01	-3.502076e-02	-2.068670e-01
7.378757e-01	-3.192878e-02	-2.120609e-01
6.815689e-01	-2.849242e-02	-2.190573e-01
6.085138e-01	-2.476677e-02	-2.170652e-01
5.087098e-01	-2.077778e-02	-2.110476e-01
3.607033e-01	-1.660852e-02	-1.725809e-01
1.372882e-01	-1.226077e-02	-8.208564e-02
-1.816056e-01	-7.847955e-03	1.392375e-01
-6.033127e-01	-3.230206e-03	8.055719e-01
-4.198935e-01	1.389554e-03	2.663410e+00
2.682714e+00	6.789997e-03	2.686548e+00
2.844273e+00	1.150626e-02	8.787937e-01
2.433386e+00	1.632059e-02	6.276365e-02
2.097434e+00	2.103006e-02	-1.880944e-01
1.860561e+00	2.579341e-02	-3.425144e-01
1.689706e+00	3.049095e-02	-4.046638e-01
1.539111e+00	3.511691e-02	-4.520510e-01
1.427847e+00	3.955314e-02	-4.689693e-01
1.330749e+00	4.372780e-02	-4.834505e-01
1.251929e+00	4.753325e-02	-4.826533e-01
1.182690e+00	5.085914e-02	-4.821196e-01
1.123355e+00	5.367671e-02	-4.738673e-01
1.070407e+00	5.593622e-02	-4.672057e-01
1.021752e+00	5.764210e-02	-4.562193e-01
9.765987e-01	5.883559e-02	-4.469617e-01
9.307665e-01	5.958752e-02	-4.334903e-01
8.867532e-01	5.998630e-02	-4.208825e-01
8.402946e-01	6.013272e-02	-4.037769e-01
7.917012e-01	6.012910e-02	-3.846390e-01
7.448096e-01	6.008579e-02	-3.634742e-01
8.205599e-01	-2.041195e-02	-1.444976e-01
8.397179e-01	-2.036011e-02	-1.493910e-01
8.527001e-01	-2.022974e-02	-1.554980e-01
8.598579e-01	-1.999369e-02	-1.610646e-01
8.580662e-01	-1.963506e-02	-1.672103e-01
8.550986e-01	-1.913717e-02	-1.725387e-01
8.434740e-01	-1.849026e-02	-1.783463e-01
8.308689e-01	-1.768902e-02	-1.829815e-01
8.103079e-01	-1.670630e-02	-1.889883e-01
7.869148e-01	-1.558600e-02	-1.936037e-01
7.528443e-01	-1.431384e-02	-2.005552e-01
7.115458e-01	-1.290465e-02	-2.044939e-01
6.517202e-01	-1.134841e-02	-2.094639e-01
5.745583e-01	-9.681333e-03	-2.049528e-01
4.697650e-01	-7.913499e-03	-1.948906e-01
3.150071e-01	-6.077367e-03	-1.507172e-01
8.299879e-02	-4.169675e-03	-4.962559e-02
-2.484112e-01	-2.238338e-03	1.904576e-01
-6.768396e-01	-2.225036e-04	9.037485e-01
-4.509372e-01	1.785904e-03	2.860322e+00
2.823828e+00	4.115161e-03	2.827863e+00
2.962009e+00	6.123265e-03	9.151703e-01
2.518017e+00	8.136867e-03	6.494652e-02
2.160737e+00	1.006082e-02	-1.937714e-01
1.910387e+00	1.195138e-02	-3.516870e-01
1.730314e+00	1.375498e-02	-4.143889e-01
1.572808e+00	1.546702e-02	-4.619482e-01
1.456143e+00	1.704689e-02	-4.782629e-01
1.354666e+00	1.847706e-02	-4.921393e-01
1.271707e+00	1.974313e-02	-4.902782e-01
1.198804e+00	2.080840e-02	-4.886883e-01
1.136487e+00	2.166869e-02	-4.794066e-01
1.080555e+00	2.230570e-02	-4.716352e-01
1.029172e+00	2.277728e-02	-4.595323e-01
9.815361e-01	2.307934e-02	-4.492214e-01
9.334893e-01	2.324397e-02	-4.347584e-01
8.875244e-01	2.330643e-02	-4.212485e-01
8.394013e-01	2.330418e-02	-4.033476e-01
7.894757e-01	2.327371e-02	-3.835578e-01
7.416747e-01	2.324691e-02	-3.619443e-01
8.181560e-01	-1.022031e-02	-1.440743e-01
8.367409e-01	-1.019926e-02	-1.488614e-01
8.489677e-01	-1.014297e-02	-1.548173e-01
8.553530e-01	-1.003716e-02	-1.602207e-01
8.527731e-01	-9.871965e-03	-1.661789e-01
8.489665e-01	-9.624061e-03	-1.713014e-01
8.364736e-01	-9.311367e-03	-1.768661e-01
8.225743e-01	-8.913891e-03	-1.811548e-01
8.009412e-01	-8.440546e-03	-1.868037e-01
7.769170e-01	-7.876643e-03	-1.911439e-01
7.414912e-01	-7.237237e-03	-1.975308e-01
6.983567e-01	-6.499646e-03	-2.007034e-01
6.367936e-01	-5.694113e-03	-2.046665e-01
5.574752e-01	-4.817905e-03	-1.988590e-01
4.500578e-01	-3.883079e-03	-1.867147e-01
2.917592e-01	-2.907076e-03	-1.395941e-01
5.528123e-02	-1.893223e-03	-3.305306e-02
-2.825673e-01	-8.597038e-04	2.166452e-01
-7.144357e-01	2.200062e-04	9.539487e-01
-4.667719e-01	1.294675e-03	2.960763e+00
2.895401e+00	2.536819e-03	2.899539e+00
3.021258e+00	3.601570e-03	9.334767e-01
2.560228e+00	4.661207e-03	6.603523e-02
2.191963e+00	5.664568e-03	-1.965716e-01
1.934701e+00	6.644362e-03	-3.561629e-01
1.749918e+00	7.564563e-03	-4.190838e-01
1.588913e+00	8.429045e-03	-4.666782e-01
1.469553e+00	9.226151e-03	-4.826673e-01
1.365880e+00	9.934911e-03	-4.962133e-01
1.281346e+00	1.055404e-02	-4.939943e-01
1.206803e+00	1.109259e-02	-4.919492e-01
1.142499e+00	1.152398e-02	-4.819429e-01
1.085249e+00	1.186210e-02	-4.736841e-01
1.032974e+00	1.210030e-02	-4.612296e-01
9.842014e-01	1.226040e-02	-4.504413e-01
9.351559e-01	1.234139e-02	-4.355346e-01
8.883137e-01	1.238536e-02	-4.216231e-01
8.394625e-01	1.239556e-02	-4.033770e-01
7.889769e-01	1.238873e-02	-3.833155e-01
7.407053e-01	1.238007e-02	-3.614712e-01
8.170285e-01	-5.652307e-03	-1.438757e-01
8.351860e-01	-5.641189e-03	-1.485847e-01
8.470028e-01	-5.609688e-03	-1.544590e-01
8.529479e-01	-5.550320e-03	-1.597702e-01
8.496121e-01	-5.454143e-03	-1.655629e-01
8.453675e-01	-5.313867e-03	-1.705752e-01
8.324900e-01	-5.142535e-03	-1.760239e-01
8.184695e-01	-4.922853e-03	-1.802508e-01
7.963070e-01	-4.657960e-03	-1.857229e-01
7.711170e-01	-4.322210e-03	-1.897170e-01
7.348486e-01	-3.931328e-03	-1.957612e-01
6.909791e-01	-3.495038e-03	-1.985831e-01
6.283648e-01	-3.023554e-03	-2.019575e-01
5.476525e-01	-2.603248e-03	-1.953551e-01
4.386728e-01	-2.059974e-03	-1.819915e-01
2.783627e-01	-1.452427e-03	-1.331845e-01
3.928163e-02	-8.430635e-04	-2.348678e-02
-3.024600e-01	-2.235356e-04	2.318970e-01
-7.363354e-01	4.242000e-04	9.831902e-01
-4.759832e-01	1.068795e-03	3.019190e+00
2.936892e+00	1.811952e-03	2.941089e+00
3.055425e+00	2.446649e-03	9.440333e-01
2.584425e+00	3.074991e-03	6.665934e-02
2.209865e+00	3.665705e-03	-1.981770e-01
1.948493e+00	4.235265e-03	-3.587020e-01
1.760870e+00	4.758477e-03	-4.217066e-01
1.597945e+00	5.244162e-03	-4.693311e-01
1.477001e+00	5.787973e-03	-4.851138e-01
1.371966e+00	6.192266e-03	-4.984242e-01
1.286316e+00	6.530658e-03	-4.959104e-01
1.210950e+00	6.811564e-03	-4.936398e-01
1.146320e+00	7.041011e-03	-4.835547e-01
1.088277e+00	7.238490e-03	-4.750057e-01
1.034943e+00	7.380888e-03	-4.621089e-01
9.854723e-01	7.479012e-03	-4.510229e-01
9.358717e-01	7.527476e-03	-4.358680e-01
8.888574e-01	7.550808e-03	-4.218812e-01
8.396026e-01	7.557230e-03	-4.034443e-01
7.887817e-01	7.553385e-03	-3.832206e-01
7.403476e-01	7.549127e-03	-3.612967e-01
8.162901e-01	-3.263354e-03	-1.437457e-01
8.342273e-01	-3.270335e-03	-1.484142e-01
8.457734e-01	-3.251085e-03	-1.542348e-01
8.513784e-01	-3.214630e-03	-1.594762e-01
8.479401e-01	-3.152978e-03	-1.652371e-01
8.435631e-01	-3.100444e-03	-1.702111e-01
8.304247e-01	-2.983387e-03	-1.755871e-01
8.156732e-01	-2.839586e-03	-1.796349e-01
7.928290e-01	-2.655481e-03	-1.849117e-01
7.673767e-01	-2.423239e-03	-1.887967e-01
7.306799e-01	-2.183944e-03	-1.946507e-01
6.862566e-01	-1.958345e-03	-1.972259e-01
6.243693e-01	-1.644349e-03	-2.006733e-01
5.432256e-01	-1.426305e-03	-1.937760e-01
4.313736e-01	-1.061914e-03	-1.789633e-01
2.693144e-01	-6.843099e-04	-1.288552e-01
2.903685e-02	-2.886846e-04	-1.736135e-02
-3.149773e-01	1.062408e-04	2.414940e-01
-7.501257e-01	5.182945e-04	1.001604e+00
-4.817776e-01	9.275374e-04	3.055945e+00
2.962910e+00	1.398551e-03	2.967144e+00
3.076769e+00	1.799625e-03	9.506278e-01
2.599446e+00	2.195302e-03	6.704678e-02
2.220685e+00	2.565189e-03	-1.991473e-01
1.956596e+00	2.915017e-03	-3.601936e-01
1.767185e+00	3.241455e-03	-4.232190e-01
1.604560e+00	3.654984e-03	-4.712741e-01
1.482648e+00	3.904598e-03	-4.869685e-01
1.375552e+00	4.154876e-03	-4.997269e-01
1.289160e+00	4.373565e-03	-4.970069e-01
1.213193e+00	4.538556e-03	-4.945544e-01
1.147950e+00	4.644177e-03	-4.842422e-01
1.089801e+00	4.738696e-03	-4.756710e-01
1.036456e+00	4.813601e-03	-4.627847e-01
9.865964e-01	4.859600e-03	-4.515374e-01
9.365314e-01	4.921107e-03	-4.361752e-01
8.890412e-01	4.930189e-03	-4.219684e-01
8.396004e-01	4.932026e-03	-4.034433e-01
7.886057e-01	4.928689e-03	-3.831351e-01
7.400531e-01	4.939584e-03	-3.611530e-01
8.181999e-01	-2.031853e-03	-1.440820e-01
8.341228e-01	-2.027823e-03	-1.483956e-01
8.450439e-01	-2.017652e-03	-1.541018e-01
8.504347e-01	-1.999070e-03	-1.592995e-01
8.473346e-01	-1.968973e-03	-1.651191e-01
8.423725e-01	-2.012966e-03	-1.699709e-01
8.284587e-01	-1.890779e-03	-1.751715e-01
8.137952e-01	-1.786037e-03	-1.792214e-01
7.906841e-01	-1.687102e-03	-1.844114e-01
7.649278e-01	-1.546084e-03	-1.881943e-01
7.287694e-01	-1.390347e-03	-1.941417e-01
6.838046e-01	-1.220850e-03	-1.965212e-01
6.209234e-01	-1.022814e-03	-1.995658e-01
5.390912e-01	-7.446856e-04	-1.923012e-01
4.265965e-01	-5.089030e-04	-1.769814e-01
2.641286e-01	-3.010342e-04	-1.263741e-01
2.238053e-02	-5.702090e-05	-1.338149e-02
-3.231017e-01	1.658297e-04	2.477230e-01
-7.590215e-01	4.273885e-04	1.013482e+00
-4.855028e-01	6.865708e-04	3.079574e+00
2.979608e+00	9.838430e-04	2.983866e+00
3.090430e+00	1.235055e-03	9.548487e-01
2.609043e+00	1.507308e-03	6.729430e-02
2.227661e+00	1.736698e-03	-1.997730e-01
1.962052e+00	1.957146e-03	-3.611981e-01
1.773661e+00	2.170855e-03	-4.247699e-01
1.607877e+00	2.397221e-03	-4.722482e-01
1.483939e+00	2.469602e-03	-4.873924e-01
1.378076e+00	2.613430e-03	-5.006438e-01
1.291156e+00	2.749073e-03	-4.977762e-01
1.214341e+00	2.861303e-03	-4.950220e-01
1.148875e+00	2.951248e-03	-4.846322e-01
1.090543e+00	3.049392e-03	-4.759947e-01
1.036698e+00	3.114568e-03	-4.628927e-01
9.871739e-01	3.235064e-03	-4.518017e-01
9.372716e-01	3.226487e-03	-4.365200e-01
8.891274e-01	3.220497e-03	-4.220093e-01
8.395869e-01	3.217526e-03	-4.034368e-01
7.889170e-01	3.214274e-03	-3.832863e-01
7.420160e-01	3.211985e-03	-3.621109e-01
8.156139e-01	-1.153442e-03	-1.436266e-01
8.334005e-01	-1.136555e-03	-1.482671e-01
8.447653e-01	-1.128114e-03	-1.540510e-01
8.501345e-01	-1.137152e-03	-1.592432e-01
8.483569e-01	-1.116974e-03	-1.653183e-01
8.420269e-01	-1.065463e-03	-1.699012e-01
8.269480e-01	-1.024061e-03	-1.748520e-01
8.127836e-01	-9.952443e-04	-1.789986e-01
7.895846e-01	-1.001891e-03	-1.841550e-01
7.634809e-01	-9.212880e-04	-1.878383e-01
7.264288e-01	-8.177209e-04	-1.935182e-01
6.813614e-01	-6.620917e-04	-1.958191e-01
6.177832e-01	-5.814841e-04	-1.985565e-01
5.355482e-01	-3.462501e-04	-1.910373e-01
4.241154e-01	-2.554313e-04	-1.759520e-01
2.610375e-01	-1.264178e-04	-1.248951e-01
1.900426e-02	1.168181e-05	-1.136279e-02
-3.272508e-01	1.545630e-04	2.509042e-01
-7.645131e-01	3.048905e-04	1.020814e+00
-4.877973e-01	4.546894e-04	3.094128e+00
2.989758e+00	6.271009e-04	2.994030e+00
3.099988e+00	7.735760e-04	9.578018e-01
2.615442e+00	9.175654e-04	6.745937e-02
2.231818e+00	1.051989e-03	-2.001457e-01
1.965315e+00	1.180187e-03	-3.617988e-01
1.774749e+00	1.300606e-03	-4.250304e-01
1.608976e+00	1.327825e-03	-4.725710e-01
1.485680e+00	1.438809e-03	-4.879644e-01
1.379196e+00	1.545972e-03	-5.010506e-01
1.292288e+00	1.606558e-03	-4.982126e-01
1.215725e+00	1.674774e-03	-4.955864e-01
1.150346e+00	1.820363e-03	-4.852529e-01
1.091992e+00	1.841032e-03	-4.766270e-01
1.039083e+00	1.882838e-03	-4.639574e-01
9.885211e-01	1.894686e-03	-4.524183e-01
9.362566e-01	1.879854e-03	-4.360473e-01
8.888281e-01	1.882832e-03	-4.218673e-01
8.394127e-01	1.904536e-03	-4.033531e-01
7.883328e-01	1.901338e-03	-3.830025e-01
7.397026e-01	1.885735e-03	-3.609819e-01
8.153658e-01	-1.385996e-03	-1.435829e-01
8.329718e-01	-1.386055e-03	-1.481908e-01
8.451743e-01	-1.386715e-03	-1.541256e-01
8.500661e-01	-1.368802e-03	-1.592304e-01
8.458360e-01	-1.327052e-03	-1.648271e-01
8.407834e-01	-1.249186e-03	-1.696502e-01
8.273883e-01	-1.152029e-03	-1.749451e-01
8.134962e-01	-1.214387e-03	-1.791555e-01
7.896651e-01	-9.939387e-04	-1.841738e-01
7.625092e-01	-1.041998e-03	-1.875992e-01
7.253846e-01	-6.838856e-04	-1.932400e-01
6.806332e-01	-7.702187e-04	-1.956098e-01
6.165999e-01	-3.331530e-04	-1.981762e-01
5.341357e-01	-3.952916e-04	-1.905335e-01
4.230546e-01	6.568769e-05	-1.755120e-01
2.592161e-01	4.070827e-04	-1.240237e-01
1.638598e-02	6.043497e-04	-9.797298e-03
-3.305967e-01	6.540086e-04	2.534694e-01
-7.673089e-01	7.023236e-04	1.024547e+00
-4.889873e-01	7.638751e-04	3.101676e+00
2.995225e+00	8.457961e-04	2.999505e+00
3.103187e+00	9.256855e-04	9.587901e-01
2.617994e+00	9.931309e-04	6.752520e-02
2.234158e+00	1.106233e-03	-2.003556e-01
1.967038e+00	1.042330e-03	-3.621160e-01
1.776090e+00	8.610949e-04	-4.253518e-01
1.610033e+00	4.824847e-04	-4.728815e-01
1.486965e+00	6.453804e-04	-4.883862e-01
1.380252e+00	3.298618e-04	-5.014344e-01
1.292783e+00	4.610881e-04	-4.984034e-01
1.217012e+00	1.676541e-04	-4.961109e-01
1.151025e+00	3.194630e-04	-4.855392e-01
1.091367e+00	6.122676e-05	-4.763542e-01
1.037489e+00	1.175941e-04	-4.632458e-01
9.871544e-01	-9.979611e-05	-4.517928e-01
9.370211e-01	-4.190406e-05	-4.364033e-01
8.896358e-01	-5.638532e-05	-4.222506e-01
8.402943e-01	-6.245017e-05	-4.037767e-01
7.882300e-01	-5.742385e-05	-3.829526e-01
7.396265e-01	-5.635558e-05	-3.609448e-01
8.156239e-01	-2.059612e-04	-1.436284e-01
8.334472e-01	-2.340764e-04	-1.482754e-01
8.440748e-01	-1.796131e-04	-1.539251e-01
8.485792e-01	-1.267783e-04	-1.589519e-01
8.458863e-01	-1.041375e-04	-1.648369e-01
8.389899e-01	-8.390579e-05	-1.692883e-01
8.265317e-01	-6.696559e-05	-1.747640e-01
8.104126e-01	-5.029752e-05	-1.784764e-01
7.873305e-01	5.727901e-06	-1.836293e-01
7.593853e-01	5.471413e-06	-1.868306e-01
7.228404e-01	6.936150e-06	-1.925623e-01
6.768224e-01	-1.781994e-05	-1.945146e-01
6.123474e-01	-3.741098e-05	-1.968095e-01
5.299898e-01	-2.707580e-05	-1.890546e-01
4.109156e-01	1.079102e-05	-1.704759e-01
2.508665e-01	-1.643694e-05	-1.200287e-01
1.335901e-02	-7.874627e-06	-7.987448e-03
-3.297710e-01	-5.499299e-07	2.528364e-01
-7.674710e-01	5.331508e-06	1.024764e+00
-4.893291e-01	1.007733e-05	3.103844e+00
2.997779e+00	1.489867e-05	3.002063e+00
3.106358e+00	1.879533e-05	9.597700e-01
2.621517e+00	2.255251e-05	6.761605e-02
2.232528e+00	2.570530e-05	-2.002094e-01
1.960177e+00	6.456772e-05	-3.608529e-01
1.764926e+00	6.749286e-05	-4.226780e-01
1.606103e+00	4.153901e-05	-4.717271e-01
1.483350e+00	1.028897e-04	-4.871990e-01
1.376908e+00	1.005358e-04	-5.002196e-01
1.290208e+00	1.005394e-04	-4.974107e-01
1.213925e+00	1.055751e-04	-4.948526e-01
1.149089e+00	7.687904e-05	-4.847226e-01
1.089170e+00	9.773935e-05	-4.753954e-01
1.036962e+00	1.168512e-04	-4.630105e-01
9.856817e-01	1.408663e-04	-4.511188e-01
9.371863e-01	1.665381e-04	-4.364803e-01
8.883352e-01	1.964825e-04	-4.216333e-01
8.393168e-01	2.077243e-04	-4.033070e-01
7.886771e-01	2.862541e-04	-3.831698e-01
7.398662e-01	2.757068e-04	-3.610617e-01
8.200843e-01	1.463831e-03	-1.444138e-01
8.302508e-01	1.464190e-03	-1.477067e-01
8.416209e-01	1.465877e-03	-1.534776e-01
8.482893e-01	1.450520e-03	-1.588976e-01
8.449790e-01	1.412375e-03	-1.646601e-01
8.401468e-01	1.426231e-03	-1.695218e-01
8.268717e-01	1.288306e-03	-1.748359e-01
8.124464e-01	1.350945e-03	-1.789243e-01
7.889280e-01	1.109734e-03	-1.840019e-01
7.624932e-01	1.134650e-03	-1.875953e-01
7.256871e-01	7.855881e-04	-1.933206e-01
6.812262e-01	7.985057e-04	-1.957802e-01
6.167419e-01	3.672847e-04	-1.982219e-01
5.334383e-01	4.575581e-04	-1.902847e-01
4.228128e-01	-3.769752e-05	-1.754117e-01
2.596187e-01	-3.787785e-04	-1.242163e-01
1.604329e-02	-5.765718e-04	-9.592403e-03
-3.309416e-01	-6.022901e-04	2.537339e-01
-7.676086e-01	-6.539706e-04	1.024948e+00
-4.890919e-01	-7.481940e-04	3.102340e+00
2.995650e+00	-8.355297e-04	2.999931e+00
3.103522e+00	-8.913488e-04	9.588937e-01
2.618215e+00	-9.892083e-04	6.753088e-02
2.235303e+00	-1.105089e-03	-2.004583e-01
1.967815e+00	-1.045046e-03	-3.622590e-01
1.775663e+00	-8.351759e-04	-4.252495e-01
1.610633e+00	-4.919479e-04	-4.730579e-01
1.487755e+00	-6.617739e-04	-4.886458e-01
1.380222e+00	-3.574371e-04	-5.014234e-01
1.292847e+00	-4.222355e-04	-4.984280e-01
1.216718e+00	-1.439731e-04	-4.959910e-01
1.150913e+00	-2.456556e-04	-4.854920e-01
1.091900e+00	-3.031397e-05	-4.765870e-01
1.038105e+00	-1.278772e-04	-4.635207e-01
9.879466e-01	-1.654938e-05	-4.521554e-01
9.380458e-01	-4.872587e-05	-4.368806e-01
8.906291e-01	-2.205032e-05	-4.227221e-01
8.426362e-01	-1.290286e-05	-4.049021e-01
7.927548e-01	-1.716561e-05	-3.851509e-01
7.380113e-01	-1.815466e-05	-3.601565e-01
8.155637e-01	1.520326e-03	-1.436178e-01
8.333207e-01	1.545597e-03	-1.482529e-01
8.446366e-01	1.482471e-03	-1.540275e-01
8.499784e-01	1.445656e-03	-1.592140e-01
8.462778e-01	1.309661e-03	-1.649132e-01
8.413000e-01	1.264394e-03	-1.697545e-01
8.275400e-01	1.205552e-03	-1.749772e-01
8.130838e-01	1.130732e-03	-1.790647e-01
7.901769e-01	1.084955e-03	-1.842931e-01
7.636638e-01	9.873969e-04	-1.878833e-01
7.272638e-01	8.818792e-04	-1.937407e-01
6.822840e-01	7.963134e-04	-1.960842e-01
6.173206e-01	7.019276e-04	-1.984078e-01
5.355947e-01	5.400494e-04	-1.910539e-01
4.247051e-01	3.934875e-04	-1.761967e-01
2.610401e-01	2.755673e-04	-1.248964e-01
1.856454e-02	1.161947e-04	-1.109987e-02
-3.278915e-01	-4.474092e-05	2.513953e-01
-7.636839e-01	-2.112692e-04	1.019707e+00
-4.873279e-01	-3.758414e-04	3.091150e+00
2.990942e+00	-5.647582e-04	2.995216e+00
3.099219e+00	-7.254024e-04	9.575640e-01
2.614513e+00	-8.836906e-04	6.743539e-02
2.231650e+00	-1.031507e-03	-2.001307e-01
1.965871e+00	-1.208393e-03	-3.619011e-01
1.774562e+00	-1.338856e-03	-4.249857e-01
1.608355e+00	-1.461146e-03	-4.723887e-01
1.485427e+00	-1.606551e-03	-4.878812e-01
1.379937e+00	-1.707451e-03	-5.013198e-01
1.292929e+00	-1.789825e-03	-4.984597e-01
1.216159e+00	-1.863096e-03	-4.957631e-01
1.150461e+00	-1.962596e-03	-4.853014e-01
1.090870e+00	-2.011372e-03	-4.761376e-01
1.037014e+00	-2.047528e-03	-4.630338e-01
9.870980e-01	-2.089015e-03	-4.517670e-01
9.369833e-01	-2.132896e-03	-4.363857e-01
8.892029e-01	-2.078156e-03	-4.220451e-01
8.395431e-01	-2.121688e-03	-4.034158e-01
7.883825e-01	-2.198590e-03	-3.830267e-01
7.397147e-01	-2.186979e-03	-3.609878e-01
8.158433e-01	2.164566e-03	-1.436670e-01
8.336557e-01	2.160099e-03	-1.483125e-01
8.447738e-01	2.153146e-03	-1.540525e-01
8.528892e-01	2.053317e-03	-1.597592e-01
8.484527e-01	2.020061e-03	-1.653370e-01
8.419557e-01	1.981907e-03	-1.698868e-01
8.289390e-01	1.900500e-03	-1.752730e-01
8.141460e-01	1.803195e-03	-1.792986e-01
7.908729e-01	1.675918e-03	-1.844555e-01
7.651590e-01	1.557698e-03	-1.882511e-01
7.281870e-01	1.389312e-03	-1.939866e-01
6.836243e-01	1.285294e-03	-1.964694e-01
6.202756e-01	1.061920e-03	-1.993576e-01
5.380388e-01	8.508024e-04	-1.919258e-01