# vtk DataFile Version 2.0
OUTPUT by 3D-VPM
ASCII
DATASET UNSTRUCTURED_GRID
POINTS 820 double
9.510565e-01	0.000000e+00	-3.090170e-01
9.442611e-01	0.000000e+00	-3.078203e-01
9.267277e-01	0.000000e+00	-3.047010e-01
8.963175e-01	0.000000e+00	-2.991555e-01
8.562911e-01	0.000000e+00	-2.916579e-01
8.054250e-01	0.000000e+00	-2.817457e-01
7.470317e-01	0.000000e+00	-2.699633e-01
6.809074e-01	0.000000e+00	-2.559818e-01
6.100852e-01	0.000000e+00	-2.403847e-01
5.354138e-01	0.000000e+00	-2.229691e-01
4.593635e-01	0.000000e+00	-2.042585e-01
3.837764e-01	0.000000e+00	-1.841224e-01
3.103069e-01	0.000000e+00	-1.630077e-01
2.415927e-01	0.000000e+00	-1.409228e-01
1.782654e-01	0.000000e+00	-1.183331e-01
1.234349e-01	0.000000e+00	-9.558566e-02
7.662509e-02	0.000000e+00	-7.318920e-02
4.106998e-02	0.000000e+00	-5.193053e-02
1.528206e-02	0.000000e+00	-3.215886e-02
2.347037e-03	0.000000e+00	-1.488740e-02
0.000000e+00	0.000000e+00	0.000000e+00
1.064939e-02	0.000000e+00	1.066461e-02
3.126595e-02	0.000000e+00	1.703450e-02
6.375031e-02	0.000000e+00	1.787236e-02
1.050105e-01	0.000000e+00	1.417221e-02
1.560448e-01	0.000000e+00	4.777214e-03
2.137742e-01	0.000000e+00	-9.048270e-03
2.782849e-01	0.000000e+00	-2.799567e-02
3.468570e-01	0.000000e+00	-5.051783e-02
4.187060e-01	0.000000e+00	-7.662000e-02
4.916930e-01	0.000000e+00	-1.047585e-01
5.642168e-01	0.000000e+00	-1.343226e-01
6.348639e-01	0.000000e+00	-1.641238e-01
7.013280e-01	0.000000e+00	-1.931337e-01
7.630418e-01	0.000000e+00	-2.206893e-01
8.172084e-01	0.000000e+00	-2.454799e-01
8.641863e-01	0.000000e+00	-2.673591e-01
9.009752e-01	0.000000e+00	-2.848204e-01
9.288372e-01	0.000000e+00	-2.982085e-01
9.448555e-01	0.000000e+00	-3.059908e-01
9.510565e-01	0.000000e+00	-3.090170e-01
9.510565e-01	1.052632e+00	-3.090170e-01
9.442611e-01	1.052632e+00	-3.078203e-01
9.267277e-01	1.052632e+00	-3.047010e-01
8.963175e-01	1.052632e+00	-2.991555e-01
8.562911e-01	1.052632e+00	-2.916579e-01
8.054250e-01	1.052632e+00	-2.817457e-01
7.470317e-01	1.052632e+00	-2.699633e-01
6.809074e-01	1.052632e+00	-2.559818e-01
6.100852e-01	1.052632e+00	-2.403847e-01
5.354138e-01	1.052632e+00	-2.229691e-01
4.593635e-01	1.052632e+00	-2.042585e-01
3.837764e-01	1.052632e+00	-1.841224e-01
3.103069e-01	1.052632e+00	-1.630077e-01
2.415927e-01	1.052632e+00	-1.409228e-01
1.782654e-01	1.052632e+00	-1.183331e-01
1.234349e-01	1.052632e+00	-9.558566e-02
7.662509e-02	1.052632e+00	-7.318920e-02
4.106998e-02	1.052632e+00	-5.193053e-02
1.528206e-02	1.052632e+00	-3.215886e-02
2.347037e-03	1.052632e+00	-1.488740e-02
0.000000e+00	1.052632e+00	0.000000e+00
1.064939e-02	1.052632e+00	1.066461e-02
3.126595e-02	1.052632e+00	1.703450e-02
6.375031e-02	1.052632e+00	1.787236e-02
1.050105e-01	1.052632e+00	1.417221e-02
1.560448e-01	1.052632e+00	4.777214e-03
2.137742e-01	1.052632e+00	-9.048270e-03
2.782849e-01	1.052632e+00	-2.799567e-02
3.468570e-01	1.052632e+00	-5.051783e-02
4.187060e-01	1.052632e+00	-7.662000e-02
4.916930e-01	1.052632e+00	-1.047585e-01
5.642168e-01	1.052632e+00	-1.343226e-01
6.348639e-01	1.052632e+00	-1.641238e-01
7.013280e-01	1.052632e+00	-1.931337e-01
7.630418e-01	1.052632e+00	-2.206893e-01
8.172084e-01	1.052632e+00	-2.454799e-01
8.641863e-01	1.052632e+00	-2.673591e-01
9.009752e-01	1.052632e+00	-2.848204e-01
9.288372e-01	1.052632e+00	-2.982085e-01
9.448555e-01	1.052632e+00	-3.059908e-01
9.510565e-01	1.052632e+00	-3.090170e-01
9.510565e-01	2.105263e+00	-3.090170e-01
9.442611e-01	2.105263e+00	-3.078203e-01
9.267277e-01	2.105263e+00	-3.047010e-01
8.963175e-01	2.105263e+00	-2.991555e-01
8.562911e-01	2.105263e+00	-2.916579e-01
8.054250e-01	2.105263e+00	-2.817457e-01
7.470317e-01	2.105263e+00	-2.699633e-01
6.809074e-01	2.105263e+00	-2.559818e-01
6.100852e-01	2.105263e+00	-2.403847e-01
5.354138e-01	2.105263e+00	-2.229691e-01
4.593635e-01	2.105263e+00	-2.042585e-01
3.837764e-01	2.105263e+00	-1.841224e-01
3.103069e-01	2.105263e+00	-1.630077e-01
2.415927e-01	2.105263e+00	-1.409228e-01
1.782654e-01	2.105263e+00	-1.183331e-01
1.234349e-01	2.105263e+00	-9.558566e-02
7.662509e-02	2.105263e+00	-7.318920e-02
4.106998e-02	2.105263e+00	-5.193053e-02
1.528206e-02	2.105263e+00	-3.215886e-02
2.347037e-03	2.105263e+00	-1.488740e-02
0.000000e+00	2.105263e+00	0.000000e+00
1.064939e-02	2.105263e+00	1.066461e-02
3.126595e-02	2.105263e+00	1.703450e-02
6.375031e-02	2.105263e+00	1.787236e-02
1.050105e-01	2.105263e+00	1.417221e-02
1.560448e-01	2.105263e+00	4.777214e-03
2.137742e-01	2.105263e+00	-9.048270e-03
2.782849e-01	2.105263e+00	-2.799567e-02
3.468570e-01	2.105263e+00	-5.051783e-02
4.187060e-01	2.105263e+00	-7.662000e-02
4.916930e-01	2.105263e+00	-1.047585e-01
5.642168e-01	2.105263e+00	-1.343226e-01
6.348639e-01	2.105263e+00	-1.641238e-01
7.013280e-01	2.105263e+00	-1.931337e-01
7.630418e-01	2.105263e+00	-2.206893e-01
8.172084e-01	2.105263e+00	-2.454799e-01
8.641863e-01	2.105263e+00	-2.673591e-01
9.009752e-01	2.105263e+00	-2.848204e-01
9.288372e-01	2.105263e+00	-2.982085e-01
9.448555e-01	2.105263e+00	-3.059908e-01
9.510565e-01	2.105263e+00	-3.090170e-01
9.510565e-01	3.157895e+00	-3.090170e-01
9.442611e-01	3.157895e+00	-3.078203e-01
9.267277e-01	3.157895e+00	-3.047010e-01
8.963175e-01	3.157895e+00	-2.991555e-01
8.562911e-01	3.157895e+00	-2.916579e-01
8.054250e-01	3.157895e+00	-2.817457e-01
7.470317e-01	3.157895e+00	-2.699633e-01
6.809074e-01	3.157895e+00	-2.559818e-01
6.100852e-01	3.157895e+00	-2.403847e-01
5.354138e-01	3.157895e+00	-2.229691e-01
4.593635e-01	3.157895e+00	-2.042585e-01
3.837764e-01	3.157895e+00	-1.841224e-01
3.103069e-01	3.157895e+00	-1.630077e-01
2.415927e-01	3.157895e+00	-1.409228e-01
1.782654e-01	3.157895e+00	-1.183331e-01
1.234349e-01	3.157895e+00	-9.558566e-02
7.662509e-02	3.157895e+00	-7.318920e-02
4.106998e-02	3.157895e+00	-5.193053e-02
1.528206e-02	3.157895e+00	-3.215886e-02
2.347037e-03	3.157895e+00	-1.488740e-02
0.000000e+00	3.157895e+00	0.000000e+00
1.064939e-02	3.157895e+00	1.066461e-02
3.126595e-02	3.157895e+00	1.703450e-02
6.375031e-02	3.157895e+00	1.787236e-02
1.050105e-01	3.157895e+00	1.417221e-02
1.560448e-01	3.157895e+00	4.777214e-03
2.137742e-01	3.157895e+00	-9.048270e-03
2.782849e-01	3.157895e+00	-2.799567e-02
3.468570e-01	3.157895e+00	-5.051783e-02
4.187060e-01	3.157895e+00	-7.662000e-02
4.916930e-01	3.157895e+00	-1.047585e-01
5.642168e-01	3.157895e+00	-1.343226e-01
6.348639e-01	3.157895e+00	-1.641238e-01
7.013280e-01	3.157895e+00	-1.931337e-01
7.630418e-01	3.157895e+00	-2.206893e-01
8.172084e-01	3.157895e+00	-2.454799e-01
8.641863e-01	3.157895e+00	-2.673591e-01
9.009752e-01	3.157895e+00	-2.848204e-01
9.288372e-01	3.157895e+00	-2.982085e-01
9.448555e-01	3.157895e+00	-3.059908e-01
9.510565e-01	3.157895e+00	-3.090170e-01
9.510565e-01	4.210526e+00	-3.090170e-01
9.442611e-01	4.210526e+00	-3.078203e-01
9.267277e-01	4.210526e+00	-3.047010e-01
8.963175e-01	4.210526e+00	-2.991555e-01
8.562911e-01	4.210526e+00	-2.916579e-01
8.054250e-01	4.210526e+00	-2.817457e-01
7.470317e-01	4.210526e+00	-2.699633e-01
6.809074e-01	4.210526e+00	-2.559818e-01
6.100852e-01	4.210526e+00	-2.403847e-01
5.354138e-01	4.210526e+00	-2.229691e-01
4.593635e-01	4.210526e+00	-2.042585e-01
3.837764e-01	4.210526e+00	-1.841224e-01
3.103069e-01	4.210526e+00	-1.630077e-01
2.415927e-01	4.210526e+00	-1.409228e-01
1.782654e-01	4.210526e+00	-1.183331e-01
1.234349e-01	4.210526e+00	-9.558566e-02
7.662509e-02	4.210526e+00	-7.318920e-02
4.106998e-02	4.210526e+00	-5.193053e-02
1.528206e-02	4.210526e+00	-3.215886e-02
2.347037e-03	4.210526e+00	-1.488740e-02
0.000000e+00	4.210526e+00	0.000000e+00
1.064939e-02	4.210526e+00	1.066461e-02
3.126595e-02	4.210526e+00	1.703450e-02
6.375031e-02	4.210526e+00	1.787236e-02
1.050105e-01	4.210526e+00	1.417221e-02
1.560448e-01	4.210526e+00	4.777214e-03
2.137742e-01	4.210526e+00	-9.048270e-03
2.782849e-01	4.210526e+00	-2.799567e-02
3.468570e-01	4.210526e+00	-5.051783e-02
4.187060e-01	4.210526e+00	-7.662000e-02
4.916930e-01	4.210526e+00	-1.047585e-01
5.642168e-01	4.210526e+00	-1.343226e-01
6.348639e-01	4.210526e+00	-1.641238e-01
7.013280e-01	4.210526e+00	-1.931337e-01
7.630418e-01	4.210526e+00	-2.206893e-01
8.172084e-01	4.210526e+00	-2.454799e-01
8.641863e-01	4.210526e+00	-2.673591e-01
9.009752e-01	4.210526e+00	-2.848204e-01
9.288372e-01	4.210526e+00	-2.982085e-01
9.448555e-01	4.210526e+00	-3.059908e-01
9.510565e-01	4.210526e+00	-3.090170e-01
9.510565e-01	5.263158e+00	-3.090170e-01
9.442611e-01	5.263158e+00	-3.078203e-01
9.267277e-01	5.263158e+00	-3.047010e-01
8.963175e-01	5.263158e+00	-2.991555e-01
8.562911e-01	5.263158e+00	-2.916579e-01
8.054250e-01	5.263158e+00	-2.817457e-01
7.470317e-01	5.263158e+00	-2.699633e-01
6.809074e-01	5.263158e+00	-2.559818e-01
6.100852e-01	5.263158e+00	-2.403847e-01
5.354138e-01	5.263158e+00	-2.229691e-01
4.593635e-01	5.263158e+00	-2.042585e-01
3.837764e-01	5.263158e+00	-1.841224e-01
3.103069e-01	5.263158e+00	-1.630077e-01
2.415927e-01	5.263158e+00	-1.409228e-01
1.782654e-01	5.263158e+00	-1.183331e-01
1.234349e-01	5.263158e+00	-9.558566e-02
7.662509e-02	5.263158e+00	-7.318920e-02
4.106998e-02	5.263158e+00	-5.193053e-02
1.528206e-02	5.263158e+00	-3.215886e-02
2.347037e-03	5.263158e+00	-1.488740e-02
0.000000e+00	5.263158e+00	0.000000e+00
1.064939e-02	5.263158e+00	1.066461e-02
3.126595e-02	5.263158e+00	1.703450e-02
6.375031e-02	5.263158e+00	1.787236e-02
1.050105e-01	5.263158e+00	1.417221e-02
1.560448e-01	5.263158e+00	4.777214e-03
2.137742e-01	5.263158e+00	-9.048270e-03
2.782849e-01	5.263158e+00	-2.799567e-02
3.468570e-01	5.263158e+00	-5.051783e-02
4.187060e-01	5.263158e+00	-7.662000e-02
4.916930e-01	5.263158e+00	-1.047585e-01
5.642168e-01	5.263158e+00	-1.343226e-01
6.348639e-01	5.263158e+00	-1.641238e-01
7.013280e-01	5.263158e+00	-1.931337e-01
7.630418e-01	5.263158e+00	-2.206893e-01
8.172084e-01	5.263158e+00	-2.454799e-01
8.641863e-01	5.263158e+00	-2.673591e-01
9.009752e-01	5.263158e+00	-2.848204e-01
9.288372e-01	5.263158e+00	-2.982085e-01
9.448555e-01	5.263158e+00	-3.059908e-01
9.510565e-01	5.263158e+00	-3.090170e-01
9.510565e-01	6.315789e+00	-3.090170e-01
9.442611e-01	6.315789e+00	-3.078203e-01
[...]
CELL_DATA 760
VECTORS V double
8.414502e-01	-6.899768e-02	-1.481763e-01
8.655787e-01	-6.882415e-02	-1.539918e-01
8.836034e-01	-6.837457e-02	-1.611335e-01
8.953807e-01	-6.758049e-02	-1.677186e-01
8.978585e-01	-6.642001e-02	-1.749646e-01
8.991848e-01	-6.487547e-02	-1.814343e-01
8.921616e-01	-6.293658e-02	-1.886410e-01
8.848672e-01	-6.057927e-02	-1.948735e-01
8.705520e-01	-5.777507e-02	-2.030391e-01
8.548765e-01	-5.449133e-02	-2.103242e-01
8.296431e-01	-5.069982e-02	-2.210142e-01
7.987948e-01	-4.639800e-02	-2.295687e-01
7.514140e-01	-4.160684e-02	-2.415057e-01
6.894290e-01	-3.638064e-02	-2.459287e-01
6.028247e-01	-3.075745e-02	-2.500929e-01
4.722093e-01	-2.485997e-02	-2.259317e-01
2.705757e-01	-1.869620e-02	-1.617792e-01
-1.688816e-02	-1.243206e-02	1.294820e-02
-4.212176e-01	-5.869033e-03	5.624299e-01
-3.424478e-01	7.069125e-04	2.172167e+00
2.325952e+00	8.414873e-03	2.329276e+00
2.540833e+00	1.517530e-02	7.850399e-01
2.209958e+00	2.211716e-02	5.700083e-02
1.925103e+00	2.896038e-02	-1.726401e-01
1.719870e+00	3.594579e-02	-3.166143e-01
1.570164e+00	4.290834e-02	-3.760350e-01
1.435367e+00	4.984225e-02	-4.215805e-01
1.336590e+00	5.656899e-02	-4.389963e-01
1.250590e+00	6.297040e-02	-4.543294e-01
1.181620e+00	6.883998e-02	-4.555471e-01
1.121757e+00	7.408986e-02	-4.572804e-01
1.071572e+00	7.855531e-02	-4.520235e-01
1.027443e+00	8.218316e-02	-4.484530e-01
9.871782e-01	8.496576e-02	-4.407817e-01
9.499658e-01	8.695454e-02	-4.347726e-01
9.115215e-01	8.824748e-02	-4.245273e-01
8.743612e-01	8.897283e-02	-4.150008e-01
8.341925e-01	8.927961e-02	-4.008447e-01
7.910686e-01	8.932335e-02	-3.843317e-01
7.483205e-01	8.927763e-02	-3.651875e-01
8.268894e-01	-4.832421e-02	-1.456122e-01
8.473870e-01	-4.819997e-02	-1.507554e-01
8.618612e-01	-4.788162e-02	-1.571686e-01
8.705602e-01	-4.731811e-02	-1.630693e-01
8.703253e-01	-4.648681e-02	-1.695993e-01
8.689559e-01	-4.536890e-02	-1.753348e-01
8.589728e-01	-4.395372e-02	-1.816235e-01
8.481210e-01	-4.222631e-02	-1.867809e-01
8.294709e-01	-4.017185e-02	-1.934577e-01
8.084302e-01	-3.777513e-02	-1.988971e-01
7.767555e-01	-3.501121e-02	-2.069251e-01
7.382110e-01	-3.191691e-02	-2.121573e-01
6.818582e-01	-2.848314e-02	-2.191503e-01
6.088529e-01	-2.476029e-02	-2.171861e-01
5.091088e-01	-2.077433e-02	-2.112131e-01
3.611820e-01	-1.660826e-02	-1.728099e-01
1.378666e-01	-1.226381e-02	-8.243145e-02
-1.808864e-01	-7.854348e-03	1.386861e-01
-6.025186e-01	-3.240024e-03	8.045116e-01
-4.195604e-01	1.376370e-03	2.661297e+00
2.681228e+00	6.772992e-03	2.685060e+00
2.843067e+00	1.148602e-02	8.784211e-01
2.432547e+00	1.629713e-02	6.274201e-02
2.096830e+00	2.100354e-02	-1.880403e-01
1.860106e+00	2.576388e-02	-3.424305e-01
1.689350e+00	3.045856e-02	-4.045785e-01
1.538825e+00	3.508176e-02	-4.519671e-01
1.427611e+00	3.951540e-02	-4.688918e-01
1.330562e+00	4.368774e-02	-4.833823e-01
1.251786e+00	4.748817e-02	-4.825981e-01
1.182579e+00	5.081432e-02	-4.820746e-01
1.123266e+00	5.362941e-02	-4.738298e-01
1.070333e+00	5.588696e-02	-4.671735e-01
1.021694e+00	5.759133e-02	-4.561930e-01
9.765541e-01	5.878369e-02	-4.469413e-01
9.307354e-01	5.953486e-02	-4.334758e-01
8.867347e-01	5.993317e-02	-4.208737e-01
8.402876e-01	6.007938e-02	-4.037735e-01
7.917040e-01	6.007569e-02	-3.846404e-01
7.448196e-01	6.003239e-02	-3.634791e-01
8.206000e-01	-2.041127e-02	-1.445047e-01
8.397689e-01	-2.036011e-02	-1.494001e-01
8.527640e-01	-2.022922e-02	-1.555096e-01
8.599361e-01	-1.999343e-02	-1.610792e-01
8.581598e-01	-1.963520e-02	-1.672286e-01
8.552091e-01	-1.913761e-02	-1.725610e-01
8.436030e-01	-1.849119e-02	-1.783736e-01
8.310188e-01	-1.769048e-02	-1.830145e-01
8.104815e-01	-1.670836e-02	-1.890288e-01
7.871216e-01	-1.559456e-02	-1.936546e-01
7.530764e-01	-1.432350e-02	-2.006170e-01
7.118024e-01	-1.290903e-02	-2.045676e-01
6.520199e-01	-1.135374e-02	-2.095603e-01
5.749120e-01	-9.687598e-03	-2.050789e-01
4.701832e-01	-7.920775e-03	-1.950641e-01
3.155101e-01	-6.085729e-03	-1.509579e-01
8.360773e-02	-4.179194e-03	-4.998968e-02
-2.476527e-01	-2.249058e-03	1.898761e-01
-6.760014e-01	-2.344938e-04	9.026293e-01
-4.505852e-01	1.772639e-03	2.858090e+00
2.822256e+00	4.100413e-03	2.826289e+00
2.960732e+00	6.107247e-03	9.147760e-01
2.517129e+00	8.119590e-03	6.492361e-02
2.160098e+00	1.004237e-02	-1.937141e-01
1.909906e+00	1.193181e-02	-3.515984e-01
1.729940e+00	1.373442e-02	-4.142993e-01
1.572512e+00	1.544563e-02	-4.618611e-01
1.455904e+00	1.702493e-02	-4.781845e-01
1.354502e+00	1.845498e-02	-4.920797e-01
1.271555e+00	1.972067e-02	-4.902194e-01
1.198652e+00	2.077997e-02	-4.886265e-01
1.136381e+00	2.164458e-02	-4.793619e-01
1.080471e+00	2.228084e-02	-4.715987e-01
1.029108e+00	2.275201e-02	-4.595036e-01
9.814893e-01	2.305391e-02	-4.492000e-01
9.334583e-01	2.321852e-02	-4.347440e-01
8.875078e-01	2.328098e-02	-4.212406e-01
8.393975e-01	2.327880e-02	-4.033458e-01
7.894828e-01	2.324770e-02	-3.835612e-01
7.416896e-01	2.322157e-02	-3.619516e-01
8.183037e-01	-1.022617e-02	-1.441003e-01
8.367722e-01	-1.020516e-02	-1.488669e-01
8.490193e-01	-1.014898e-02	-1.548267e-01
8.554385e-01	-1.004339e-02	-1.602368e-01
8.528701e-01	-9.878594e-03	-1.661978e-01
8.490788e-01	-9.631427e-03	-1.713241e-01
8.366043e-01	-9.319515e-03	-1.768938e-01
8.227239e-01	-8.935460e-03	-1.811877e-01
8.011931e-01	-8.448408e-03	-1.868625e-01
7.771198e-01	-7.883659e-03	-1.911938e-01
7.416551e-01	-7.243123e-03	-1.975745e-01
6.986326e-01	-6.505292e-03	-2.007827e-01
6.371091e-01	-5.699772e-03	-2.047679e-01
5.578432e-01	-4.824432e-03	-1.989903e-01
4.504909e-01	-3.890625e-03	-1.868944e-01
2.922791e-01	-2.915391e-03	-1.398429e-01
5.590989e-02	-1.901858e-03	-3.342894e-02
-2.817850e-01	-8.816012e-04	2.160454e-01
-7.135714e-01	1.988013e-04	9.527947e-01
-4.664090e-01	1.273826e-03	2.958461e+00
2.893780e+00	2.515687e-03	2.897916e+00
3.019941e+00	3.579345e-03	9.330698e-01
2.559310e+00	4.651131e-03	6.601158e-02
2.191303e+00	5.652359e-03	-1.965124e-01
1.934203e+00	6.630214e-03	-3.560714e-01
1.749531e+00	7.549035e-03	-4.189911e-01
1.588606e+00	8.412532e-03	-4.665882e-01
1.469307e+00	9.201712e-03	-4.825868e-01
1.365686e+00	9.917433e-03	-4.961428e-01
1.281123e+00	1.053456e-02	-4.939081e-01
1.206671e+00	1.107556e-02	-4.918954e-01
1.142457e+00	1.150853e-02	-4.819251e-01
1.085160e+00	1.184852e-02	-4.736451e-01
1.032906e+00	1.208509e-02	-4.611996e-01
9.841539e-01	1.224368e-02	-4.504196e-01
9.351244e-01	1.232416e-02	-4.355199e-01
8.882965e-01	1.236784e-02	-4.216149e-01
8.394424e-01	1.237791e-02	-4.033674e-01
7.889618e-01	1.237105e-02	-3.833081e-01
7.408184e-01	1.236238e-02	-3.615265e-01
8.170743e-01	-5.655839e-03	-1.438838e-01
8.352455e-01	-5.644084e-03	-1.485953e-01
8.470787e-01	-5.613213e-03	-1.544729e-01
8.530420e-01	-5.553700e-03	-1.597879e-01
8.497290e-01	-5.456259e-03	-1.655857e-01
8.455041e-01	-5.331789e-03	-1.706028e-01
8.328469e-01	-5.144367e-03	-1.760993e-01
8.186032e-01	-4.926001e-03	-1.802802e-01
7.962878e-01	-4.661708e-03	-1.857184e-01
7.712978e-01	-4.320557e-03	-1.897615e-01
7.350628e-01	-3.935430e-03	-1.958183e-01
6.912325e-01	-3.498949e-03	-1.986560e-01
6.286763e-01	-3.026976e-03	-2.020576e-01
5.480341e-01	-2.605938e-03	-1.954912e-01
4.391204e-01	-2.062366e-03	-1.821772e-01
2.788866e-01	-1.456509e-03	-1.334351e-01
4.014875e-02	-8.487762e-04	-2.400523e-02
-3.013214e-01	-2.303611e-04	2.310240e-01
-7.355280e-01	4.169782e-04	9.821121e-01
-4.756332e-01	1.046399e-03	3.016970e+00
2.935244e+00	1.788025e-03	2.939439e+00
3.054755e+00	2.435497e-03	9.438261e-01
2.583786e+00	3.061604e-03	6.664287e-02
2.209126e+00	3.650686e-03	-1.981107e-01
1.947946e+00	4.218967e-03	-3.586013e-01
1.760456e+00	4.721992e-03	-4.216074e-01
1.597508e+00	5.226414e-03	-4.692029e-01
1.476756e+00	5.769602e-03	-4.850332e-01
1.371864e+00	6.173355e-03	-4.983872e-01
1.286170e+00	6.511275e-03	-4.958540e-01
1.210849e+00	6.797197e-03	-4.935985e-01
1.146258e+00	7.021439e-03	-4.835285e-01
1.088198e+00	7.219342e-03	-4.749712e-01
1.034834e+00	7.362890e-03	-4.620602e-01
9.853922e-01	7.444821e-03	-4.509863e-01
9.358254e-01	7.508836e-03	-4.358464e-01
8.888309e-01	7.530961e-03	-4.218686e-01
8.395935e-01	7.537240e-03	-4.034400e-01
7.887865e-01	7.534055e-03	-3.832229e-01
7.403623e-01	7.529149e-03	-3.613038e-01
8.163310e-01	-3.276830e-03	-1.437529e-01
8.342795e-01	-3.269761e-03	-1.484235e-01
8.458363e-01	-3.250693e-03	-1.542463e-01
8.514254e-01	-3.212432e-03	-1.594850e-01
8.483610e-01	-3.172432e-03	-1.653191e-01
8.436342e-01	-3.096636e-03	-1.702255e-01
8.303411e-01	-2.980810e-03	-1.755695e-01
8.158497e-01	-2.823964e-03	-1.796738e-01
7.930146e-01	-2.653537e-03	-1.849550e-01
7.675848e-01	-2.422027e-03	-1.888480e-01
7.309172e-01	-2.182172e-03	-1.947139e-01
6.865235e-01	-1.955851e-03	-1.973026e-01
6.246679e-01	-1.644638e-03	-2.007693e-01
5.435780e-01	-1.428631e-03	-1.939017e-01
4.318274e-01	-1.065688e-03	-1.791515e-01
2.698956e-01	-6.893244e-04	-1.291333e-01
2.972544e-02	-2.950406e-04	-1.777306e-02
-3.141533e-01	1.119478e-04	2.408622e-01
-7.489150e-01	5.229315e-04	9.999872e-01
-4.812056e-01	9.084602e-04	3.052316e+00
2.961972e+00	1.377463e-03	2.966205e+00
3.075780e+00	1.799338e-03	9.503223e-01
2.598407e+00	2.179421e-03	6.701998e-02
2.219953e+00	2.548857e-03	-1.990818e-01
1.955633e+00	2.898460e-03	-3.600164e-01
1.766816e+00	3.224290e-03	-4.231306e-01
1.604514e+00	3.636679e-03	-4.712605e-01
1.482387e+00	3.892572e-03	-4.868826e-01
1.375345e+00	4.109810e-03	-4.996516e-01
1.288994e+00	4.351852e-03	-4.969429e-01
1.213060e+00	4.516101e-03	-4.944999e-01
1.147846e+00	4.620777e-03	-4.841982e-01
1.089733e+00	4.713662e-03	-4.756411e-01
1.036185e+00	4.790568e-03	-4.626637e-01
9.865051e-01	4.839941e-03	-4.514956e-01
9.367947e-01	4.878983e-03	-4.362979e-01
8.889901e-01	4.910606e-03	-4.219441e-01
8.395914e-01	4.910972e-03	-4.034390e-01
7.886110e-01	4.907941e-03	-3.831377e-01
7.400671e-01	4.904811e-03	-3.611598e-01
8.158880e-01	-2.044929e-03	-1.436749e-01
8.337124e-01	-2.040966e-03	-1.483226e-01
8.450533e-01	-2.031039e-03	-1.541035e-01
8.510953e-01	-2.013125e-03	-1.594232e-01
8.473358e-01	-1.985361e-03	-1.651193e-01
8.421575e-01	-2.015258e-03	-1.699275e-01
8.286232e-01	-1.940168e-03	-1.752063e-01
8.139499e-01	-1.801373e-03	-1.792554e-01
7.908557e-01	-1.698981e-03	-1.844515e-01
7.651108e-01	-1.555767e-03	-1.882393e-01
7.289667e-01	-1.398357e-03	-1.941943e-01
6.840846e-01	-1.227279e-03	-1.966017e-01
6.213023e-01	-1.027913e-03	-1.996876e-01
5.395251e-01	-7.493278e-04	-1.924560e-01
4.270881e-01	-5.154190e-04	-1.771854e-01
2.647000e-01	-3.076190e-04	-1.266475e-01
2.305177e-02	-9.166604e-05	-1.378283e-02
-3.222994e-01	1.602557e-04	2.471079e-01
-7.576579e-01	4.199204e-04	1.011661e+00
-4.848294e-01	6.917707e-04	3.075303e+00
2.979094e+00	9.883354e-04	2.983351e+00
3.089661e+00	1.226035e-03	9.546110e-01
2.607964e+00	1.469842e-03	6.726648e-02
2.226905e+00	1.729292e-03	-1.997052e-01
1.961488e+00	1.948893e-03	-3.610942e-01
1.773216e+00	2.180605e-03	-4.246634e-01
1.607523e+00	2.358394e-03	-4.721444e-01
1.483305e+00	2.459026e-03	-4.871841e-01
1.377862e+00	2.603724e-03	-5.005662e-01
1.291293e+00	2.740596e-03	-4.978292e-01
1.214218e+00	2.854677e-03	-4.949721e-01
1.148780e+00	2.947405e-03	-4.845922e-01
1.090467e+00	3.049910e-03	-4.759617e-01
1.036665e+00	3.120164e-03	-4.628779e-01
9.868159e-01	3.252336e-03	-4.516379e-01
9.371495e-01	3.224674e-03	-4.364631e-01
8.896510e-01	3.218711e-03	-4.222578e-01
8.395320e-01	3.215374e-03	-4.034105e-01
7.885009e-01	3.211982e-03	-3.830842e-01
7.398829e-01	3.209669e-03	-3.610699e-01
8.156659e-01	-1.133611e-03	-1.436358e-01
8.334716e-01	-1.129676e-03	-1.482797e-01
8.448611e-01	-1.142918e-03	-1.540685e-01
8.502612e-01	-1.131184e-03	-1.592670e-01
8.485109e-01	-1.091266e-03	-1.653483e-01
8.427362e-01	-1.063520e-03	-1.700443e-01
8.270046e-01	-1.021541e-03	-1.748640e-01
8.124410e-01	-9.936030e-04	-1.789231e-01
7.896944e-01	-1.002579e-03	-1.841806e-01
7.636383e-01	-9.243527e-04	-1.878770e-01
7.266234e-01	-8.243600e-04	-1.935701e-01
6.815895e-01	-7.038756e-04	-1.958846e-01
6.180566e-01	-5.900615e-04	-1.986444e-01
5.359200e-01	-3.537077e-04	-1.911700e-01
4.246026e-01	-2.618044e-04	-1.761542e-01
2.620921e-01	-1.328790e-04	-1.253997e-01
1.981321e-02	4.702710e-06	-1.184647e-02
-3.272520e-01	1.465028e-04	2.509050e-01
-7.635176e-01	2.947668e-04	1.019485e+00
-4.873819e-01	4.654660e-04	3.091493e+00
2.988002e+00	6.373280e-04	2.992272e+00
3.097019e+00	7.616856e-04	9.568845e-01
2.614759e+00	9.067824e-04	6.744175e-02
2.231722e+00	1.041683e-03	-2.001372e-01
1.964731e+00	1.170344e-03	-3.616912e-01
1.773782e+00	1.291339e-03	-4.247988e-01
1.608678e+00	1.319571e-03	-4.724834e-01
1.485811e+00	1.432668e-03	-4.880073e-01
1.379016e+00	1.565547e-03	-5.009853e-01
1.292161e+00	1.599332e-03	-4.981637e-01
1.215649e+00	1.663930e-03	-4.955555e-01
1.150332e+00	1.806666e-03	-4.852472e-01
1.092049e+00	1.826044e-03	-4.766519e-01
1.039048e+00	1.866149e-03	-4.639417e-01
9.883439e-01	1.875647e-03	-4.523372e-01
9.361335e-01	1.883664e-03	-4.359899e-01
8.887704e-01	1.865788e-03	-4.218399e-01
8.393869e-01	1.866145e-03	-4.033407e-01
7.883288e-01	1.884489e-03	-3.830005e-01
7.397130e-01	1.881800e-03	-3.609870e-01
8.152275e-01	-1.349127e-03	-1.435586e-01
8.344735e-01	-1.349193e-03	-1.484580e-01
8.449455e-01	-1.349884e-03	-1.540838e-01
8.497250e-01	-1.332012e-03	-1.591665e-01
8.459988e-01	-1.288729e-03	-1.648588e-01
8.409402e-01	-1.237885e-03	-1.696819e-01
8.275586e-01	-1.119570e-03	-1.749811e-01
8.136971e-01	-1.179891e-03	-1.791997e-01
7.899001e-01	-9.611659e-04	-1.842286e-01
7.627704e-01	-1.009797e-03	-1.876635e-01
7.260857e-01	-6.514016e-04	-1.934268e-01
6.809573e-01	-7.382914e-04	-1.957030e-01
6.164872e-01	-3.046994e-04	-1.981400e-01
5.345368e-01	-3.702612e-04	-1.906766e-01
4.235288e-01	8.726777e-05	-1.757087e-01
2.597979e-01	4.220205e-04	-1.243020e-01
1.709000e-02	6.405325e-04	-1.021824e-02
-3.297177e-01	6.548505e-04	2.527955e-01
-7.663355e-01	6.985249e-04	1.023248e+00
-4.885781e-01	7.560570e-04	3.099080e+00
2.993396e+00	8.328207e-04	2.997674e+00
3.101702e+00	9.070604e-04	9.583314e-01
2.616964e+00	9.986645e-04	6.749861e-02
2.233425e+00	1.076962e-03	-2.002899e-01
1.966495e+00	1.008931e-03	-3.620160e-01
1.775673e+00	7.891323e-04	-4.252519e-01
1.609728e+00	4.387054e-04	-4.727919e-01
1.486727e+00	6.004576e-04	-4.883082e-01
1.380011e+00	2.522849e-04	-5.013467e-01
1.292538e+00	4.109916e-04	-4.983089e-01
1.216808e+00	1.159956e-04	-4.960279e-01
1.150877e+00	2.669208e-04	-4.854767e-01
1.091251e+00	9.089281e-06	-4.763039e-01
1.037398e+00	6.745823e-05	-4.632053e-01
9.870974e-01	-1.781644e-04	-4.517667e-01
9.370109e-01	-9.476624e-05	-4.363986e-01
8.891986e-01	-1.114786e-04	-4.220431e-01
8.399969e-01	-1.177278e-04	-4.036338e-01
7.895509e-01	-1.127012e-04	-3.835943e-01
7.394711e-01	-1.116230e-04	-3.608690e-01
8.156770e-01	4.411230e-05	-1.436377e-01
8.335206e-01	4.271518e-05	-1.482885e-01
8.441731e-01	6.240227e-05	-1.539430e-01
8.486640e-01	6.109840e-05	-1.589678e-01
8.466055e-01	6.067017e-05	-1.649770e-01
8.397453e-01	6.054148e-05	-1.694408e-01
8.262459e-01	6.078994e-05	-1.747036e-01
8.100673e-01	6.490006e-05	-1.784004e-01
7.874709e-01	1.122798e-04	-1.836620e-01
7.595464e-01	9.688016e-05	-1.868703e-01
7.230386e-01	8.611272e-05	-1.926151e-01
6.771035e-01	8.360279e-05	-1.945954e-01
6.127167e-01	1.978168e-05	-1.969281e-01
5.304639e-01	1.951221e-05	-1.892237e-01
4.115640e-01	4.860228e-05	-1.707449e-01
2.516971e-01	1.450369e-05	-1.204261e-01
1.432867e-02	1.379167e-05	-8.567219e-03
-3.286195e-01	1.177281e-05	2.519535e-01
-7.662329e-01	8.847331e-06	1.023111e+00
-4.888154e-01	5.449570e-06	3.100586e+00
2.995482e+00	1.068599e-06	2.999763e+00
3.104472e+00	-3.096069e-06	9.591872e-01
2.620183e+00	-7.778820e-06	6.758165e-02
2.231555e+00	-1.306543e-05	-2.001222e-01
1.958673e+00	-1.955172e-05	-3.605760e-01
1.763854e+00	8.363897e-06	-4.224214e-01
1.606193e+00	-2.849049e-05	-4.717537e-01
1.482998e+00	1.960725e-05	-4.870833e-01
1.376676e+00	-2.641399e-05	-5.001354e-01
1.290406e+00	-8.800315e-06	-4.974870e-01
1.213819e+00	-1.674860e-05	-4.948092e-01
1.149069e+00	-9.837200e-05	-4.847141e-01
1.089258e+00	-5.815224e-05	-4.754339e-01
1.036571e+00	-5.738518e-05	-4.628361e-01
9.854042e-01	-5.544964e-05	-4.509918e-01
9.375427e-01	-5.512013e-05	-4.366462e-01
8.882165e-01	-5.523492e-05	-4.215770e-01
8.392844e-01	-5.456108e-05	-4.032915e-01
7.886734e-01	-7.469206e-05	-3.831680e-01
7.398781e-01	-7.341459e-05	-3.610676e-01
8.154620e-01	1.482373e-03	-1.435999e-01
8.331890e-01	1.482578e-03	-1.482295e-01
8.444676e-01	1.483948e-03	-1.539967e-01
8.497652e-01	1.468193e-03	-1.591741e-01
8.460094e-01	1.428245e-03	-1.648609e-01
8.409377e-01	1.468958e-03	-1.696814e-01
8.274887e-01	1.339089e-03	-1.749664e-01
8.129466e-01	1.366621e-03	-1.790345e-01
7.894853e-01	1.097587e-03	-1.841318e-01
7.631135e-01	1.140980e-03	-1.877479e-01
7.262600e-01	7.829861e-04	-1.934732e-01
6.818258e-01	7.894115e-04	-1.959525e-01
6.174067e-01	3.547000e-04	-1.984355e-01
5.341291e-01	4.421621e-04	-1.905311e-01
4.235440e-01	-5.261726e-05	-1.757150e-01
2.604944e-01	-3.902243e-04	-1.246353e-01
1.714513e-02	-5.841884e-04	-1.025120e-02
-3.295945e-01	-6.064168e-04	2.527010e-01
-7.661637e-01	-6.837862e-04	1.023018e+00
-4.884948e-01	-7.474556e-04	3.098552e+00
2.992974e+00	-8.335369e-04	2.997251e+00
3.101308e+00	-9.177975e-04	9.582097e-01
2.616638e+00	-9.871403e-04	6.749022e-02
2.233130e+00	-1.103279e-03	-2.002634e-01
1.966987e+00	-1.043029e-03	-3.621065e-01
1.775448e+00	-7.986269e-04	-4.251980e-01
1.609961e+00	-4.593361e-04	-4.728602e-01
1.486714e+00	-6.610018e-04	-4.883039e-01
1.379657e+00	-3.295797e-04	-5.012181e-01
1.292658e+00	-4.276018e-04	-4.983552e-01
1.215692e+00	-1.526284e-04	-4.955728e-01
1.150319e+00	-2.955651e-04	-4.852415e-01
1.091814e+00	-5.423335e-05	-4.765495e-01
1.037436e+00	-1.640563e-04	-4.632223e-01
9.871353e-01	-2.213692e-05	-4.517840e-01
9.370157e-01	-7.771775e-05	-4.364008e-01
8.892091e-01	-4.848001e-05	-4.220481e-01
8.395253e-01	-3.908247e-05	-4.034072e-01
7.883462e-01	-4.327504e-05	-3.830090e-01
7.396668e-01	-4.420093e-05	-3.609644e-01
8.156427e-01	1.271682e-03	-1.436317e-01
8.334209e-01	1.269092e-03	-1.482707e-01
8.447592e-01	1.262506e-03	-1.540499e-01
8.501221e-01	1.257096e-03	-1.592409e-01
8.464404e-01	1.146429e-03	-1.649448e-01
8.414753e-01	1.124237e-03	-1.697899e-01
8.277023e-01	1.052778e-03	-1.750115e-01
8.136288e-01	1.020606e-03	-1.791847e-01
7.904313e-01	9.816368e-04	-1.843525e-01
7.637015e-01	8.990346e-04	-1.878925e-01
7.276638e-01	8.058665e-04	-1.938472e-01
6.826990e-01	7.294760e-04	-1.962035e-01
6.177778e-01	6.461437e-04	-1.985548e-01
5.361059e-01	4.939908e-04	-1.912363e-01
4.252922e-01	3.546008e-04	-1.764403e-01
2.617365e-01	2.425078e-04	-1.252296e-01
1.937690e-02	9.149570e-05	-1.158559e-02
-3.262904e-01	-6.089414e-05	2.501678e-01
-7.622624e-01	-2.193696e-04	1.017809e+00
-4.872188e-01	-3.765109e-04	3.090458e+00
2.987035e+00	-5.570508e-04	2.991304e+00
3.097848e+00	-7.103848e-04	9.571407e-01
2.613943e+00	-8.610700e-04	6.742071e-02
2.230677e+00	-1.001375e-03	-2.000434e-01
1.965127e+00	-1.134039e-03	-3.617641e-01
1.773973e+00	-1.290971e-03	-4.248447e-01
1.607883e+00	-1.404000e-03	-4.722500e-01
1.485035e+00	-1.539429e-03	-4.877524e-01
1.379609e+00	-1.598757e-03	-5.012008e-01
1.292668e+00	-1.697562e-03	-4.983592e-01
1.215497e+00	-1.755824e-03	-4.954934e-01
1.150230e+00	-1.801018e-03	-4.852039e-01
1.091158e+00	-1.866839e-03	-4.762630e-01
1.036857e+00	-1.915019e-03	-4.629636e-01
9.869924e-01	-1.904453e-03	-4.517186e-01
9.369084e-01	-1.925554e-03	-4.363508e-01
8.891550e-01	-1.842918e-03	-4.220224e-01
8.395215e-01	-1.853030e-03	-4.034054e-01
7.883851e-01	-1.853084e-03	-3.830279e-01
7.397363e-01	-1.852159e-03	-3.609984e-01
8.158967e-01	2.116470e-03	-1.436764e-01
8.337237e-01	2.116285e-03	-1.483246e-01
8.448586e-01	2.034079e-03	-1.540680e-01
8.529771e-01	2.013850e-03	-1.597757e-01
8.485147e-01	1.976873e-03	-1.653491e-01
8.426071e-01	1.939800e-03	-1.700182e-01
8.290530e-01	1.860741e-03	-1.752971e-01
8.139599e-01	1.765367e-03	-1.792576e-01
7.911348e-01	1.666731e-03	-1.845166e-01
7.654211e-01	1.526102e-03	-1.883156e-01
7.284782e-01	1.362719e-03	-1.940642e-01
6.839546e-01	1.263593e-03	-1.965644e-01
6.206509e-01	1.044894e-03	-1.994782e-01
5.384764e-01	8.356657e-04	-1.920819e-01