# vtk DataFile Version 2.0
OUTPUT by 3D-VPM
ASCII
DATASET UNSTRUCTURED_GRID
POINTS 820 double
9.510565e-01	0.000000e+00	-3.090170e-01
9.442611e-01	0.000000e+00	-3.078203e-01
9.267277e-01	0.000000e+00	-3.047010e-01
8.963175e-01	0.000000e+00	-2.991555e-01
8.562911e-01	0.000000e+00	-2.916579e-01
8.054250e-01	0.000000e+00	-2.817457e-01
7.470317e-01	0.000000e+00	-2.699633e-01
6.809074e-01	0.000000e+00	-2.559818e-01
6.100852e-01	0.000000e+00	-2.403847e-01
5.354138e-01	0.000000e+00	-2.229691e-01
4.593635e-01	0.000000e+00	-2.042585e-01
3.837764e-01	0.000000e+00	-1.841224e-01
3.103069e-01	0.000000e+00	-1.630077e-01
2.415927e-01	0.000000e+00	-1.409228e-01
1.782654e-01	0.000000e+00	-1.183331e-01
1.234349e-01	0.000000e+00	-9.558566e-02
7.662509e-02	0.000000e+00	-7.318920e-02
4.106998e-02	0.000000e+00	-5.193053e-02
1.528206e-02	0.000000e+00	-3.215886e-02
2.347037e-03	0.000000e+00	-1.488740e-02
0.000000e+00	0.000000e+00	0.000000e+00
1.064939e-02	0.000000e+00	1.066461e-02
3.126595e-02	0.000000e+00	1.703450e-02
6.375031e-02	0.000000e+00	1.787236e-02
1.050105e-01	0.000000e+00	1.417221e-02
1.560448e-01	0.000000e+00	4.777214e-03
2.137742e-01	0.000000e+00	-9.048270e-03
2.782849e-01	0.000000e+00	-2.799567e-02
3.468570e-01	0.000000e+00	-5.051783e-02
4.187060e-01	0.000000e+00	-7.662000e-02
4.916930e-01	0.000000e+00	-1.047585e-01
5.642168e-01	0.000000e+00	-1.343226e-01
6.348639e-01	0.000000e+00	-1.641238e-01
7.013280e-01	0.000000e+00	-1.931337e-01
7.630418e-01	0.000000e+00	-2.206893e-01
8.172084e-01	0.000000e+00	-2.454799e-01
8.641863e-01	0.000000e+00	-2.673591e-01
9.009752e-01	0.000000e+00	-2.848204e-01
9.288372e-01	0.000000e+00	-2.982085e-01
9.448555e-01	0.000000e+00	-3.059908e-01
9.510565e-01	0.000000e+00	-3.090170e-01
9.510565e-01	1.052632e+00	-3.090170e-01
9.442611e-01	1.052632e+00	-3.078203e-01
9.267277e-01	1.052632e+00	-3.047010e-01
8.963175e-01	1.052632e+00	-2.991555e-01
8.562911e-01	1.052632e+00	-2.916579e-01
8.054250e-01	1.052632e+00	-2.817457e-01
7.470317e-01	1.052632e+00	-2.699633e-01
6.809074e-01	1.052632e+00	-2.559818e-01
6.100852e-01	1.052632e+00	-2.403847e-01
5.354138e-01	1.052632e+00	-2.229691e-01
4.593635e-01	1.052632e+00	-2.042585e-01
3.837764e-01	1.052632e+00	-1.841224e-01
3.103069e-01	1.052632e+00	-1.630077e-01
2.415927e-01	1.052632e+00	-1.409228e-01
1.782654e-01	1.052632e+00	-1.183331e-01
1.234349e-01	1.052632e+00	-9.558566e-02
7.662509e-02	1.052632e+00	-7.318920e-02
4.106998e-02	1.052632e+00	-5.193053e-02
1.528206e-02	1.052632e+00	-3.215886e-02
2.347037e-03	1.052632e+00	-1.488740e-02
0.000000e+00	1.052632e+00	0.000000e+00
1.064939e-02	1.052632e+00	1.066461e-02
3.126595e-02	1.052632e+00	1.703450e-02
6.375031e-02	1.052632e+00	1.787236e-02
1.050105e-01	1.052632e+00	1.417221e-02
1.560448e-01	1.052632e+00	4.777214e-03
2.137742e-01	1.052632e+00	-9.048270e-03
2.782849e-01	1.052632e+00	-2.799567e-02
3.468570e-01	1.052632e+00	-5.051783e-02
4.187060e-01	1.052632e+00	-7.662000e-02
4.916930e-01	1.052632e+00	-1.047585e-01
5.642168e-01	1.052632e+00	-1.343226e-01
6.348639e-01	1.052632e+00	-1.641238e-01
7.013280e-01	1.052632e+00	-1.931337e-01
7.630418e-01	1.052632e+00	-2.206893e-01
8.172084e-01	1.052632e+00	-2.454799e-01
8.641863e-01	1.052632e+00	-2.673591e-01
9.009752e-01	1.052632e+00	-2.848204e-01
9.288372e-01	1.052632e+00	-2.982085e-01
9.448555e-01	1.052632e+00	-3.059908e-01
9.510565e-01	1.052632e+00	-3.090170e-01
9.510565e-01	2.105263e+00	-3.090170e-01
9.442611e-01	2.105263e+00	-3.078203e-01
9.267277e-01	2.105263e+00	-3.047010e-01
8.963175e-01	2.105263e+00	-2.991555e-01
8.562911e-01	2.105263e+00	-2.916579e-01
8.054250e-01	2.105263e+00	-2.817457e-01
7.470317e-01	2.105263e+00	-2.699633e-01
6.809074e-01	2.105263e+00	-2.559818e-01
6.100852e-01	2.105263e+00	-2.403847e-01
5.354138e-01	2.105263e+00	-2.229691e-01
4.593635e-01	2.105263e+00	-2.042585e-01
3.837764e-01	2.105263e+00	-1.841224e-01
3.103069e-01	2.105263e+00	-1.630077e-01
2.415927e-01	2.105263e+00	-1.409228e-01
1.782654e-01	2.105263e+00	-1.183331e-01
1.234349e-01	2.105263e+00	-9.558566e-02
7.662509e-02	2.105263e+00	-7.318920e-02
4.106998e-02	2.105263e+00	-5.193053e-02
1.528206e-02	2.105263e+00	-3.215886e-02
2.347037e-03	2.105263e+00	-1.488740e-02
0.000000e+00	2.105263e+00	0.000000e+00
1.064939e-02	2.105263e+00	1.066461e-02
3.126595e-02	2.105263e+00	1.703450e-02
6.375031e-02	2.105263e+00	1.787236e-02
1.050105e-01	2.105263e+00	1.417221e-02
1.560448e-01	2.105263e+00	4.777214e-03
2.137742e-01	2.105263e+00	-9.048270e-03
2.782849e-01	2.105263e+00	-2.799567e-02
3.468570e-01	2.105263e+00	-5.051783e-02
4.187060e-01	2.105263e+00	-7.662000e-02
4.916930e-01	2.105263e+00	-1.047585e-01
5.642168e-01	2.105263e+00	-1.343226e-01
6.348639e-01	2.105263e+00	-1.641238e-01
7.013280e-01	2.105263e+00	-1.931337e-01
7.630418e-01	2.105263e+00	-2.206893e-01
8.172084e-01	2.105263e+00	-2.454799e-01
8.641863e-01	2.105263e+00	-2.673591e-01
9.009752e-01	2.105263e+00	-2.848204e-01
9.288372e-01	2.105263e+00	-2.982085e-01
9.448555e-01	2.105263e+00	-3.059908e-01
9.510565e-01	2.105263e+00	-3.090170e-01
9.510565e-01	3.157895e+00	-3.090170e-01
9.442611e-01	3.157895e+00	-3.078203e-01
9.267277e-01	3.157895e+00	-3.047010e-01
8.963175e-01	3.157895e+00	-2.991555e-01
8.562911e-01	3.157895e+00	-2.916579e-01
8.054250e-01	3.157895e+00	-2.817457e-01
7.470317e-01	3.157895e+00	-2.699633e-01
6.809074e-01	3.157895e+00	-2.559818e-01
6.100852e-01	3.157895e+00	-2.403847e-01
5.354138e-01	3.157895e+00	-2.229691e-01
4.593635e-01	3.157895e+00	-2.042585e-01
3.837764e-01	3.157895e+00	-1.841224e-01
3.103069e-01	3.157895e+00	-1.630077e-01
2.415927e-01	3.157895e+00	-1.409228e-01
1.782654e-01	3.157895e+00	-1.183331e-01
1.234349e-01	3.157895e+00	-9.558566e-02
7.662509e-02	3.157895e+00	-7.318920e-02
4.106998e-02	3.157895e+00	-5.193053e-02
1.528206e-02	3.157895e+00	-3.215886e-02
2.347037e-03	3.157895e+00	-1.488740e-02
0.000000e+00	3.157895e+00	0.000000e+00
1.064939e-02	3.157895e+00	1.066461e-02
3.126595e-02	3.157895e+00	1.703450e-02
6.375031e-02	3.157895e+00	1.787236e-02
1.050105e-01	3.157895e+00	1.417221e-02
1.560448e-01	3.157895e+00	4.777214e-03
2.137742e-01	3.157895e+00	-9.048270e-03
2.782849e-01	3.157895e+00	-2.799567e-02
3.468570e-01	3.157895e+00	-5.051783e-02
4.187060e-01	3.157895e+00	-7.662000e-02
4.916930e-01	3.157895e+00	-1.047585e-01
5.642168e-01	3.157895e+00	-1.343226e-01
6.348639e-01	3.157895e+00	-1.641238e-01
7.013280e-01	3.157895e+00	-1.931337e-01
7.630418e-01	3.157895e+00	-2.206893e-01
8.172084e-01	3.157895e+00	-2.454799e-01
8.641863e-01	3.157895e+00	-2.673591e-01
9.009752e-01	3.157895e+00	-2.848204e-01
9.288372e-01	3.157895e+00	-2.982085e-01
9.448555e-01	3.157895e+00	-3.059908e-01
9.510565e-01	3.157895e+00	-3.090170e-01
9.510565e-01	4.210526e+00	-3.090170e-01
9.442611e-01	4.210526e+00	-3.078203e-01
9.267277e-01	4.210526e+00	-3.047010e-01
8.963175e-01	4.210526e+00	-2.991555e-01
8.562911e-01	4.210526e+00	-2.916579e-01
8.054250e-01	4.210526e+00	-2.817457e-01
7.470317e-01	4.210526e+00	-2.699633e-01
6.809074e-01	4.210526e+00	-2.559818e-01
6.100852e-01	4.210526e+00	-2.403847e-01
5.354138e-01	4.210526e+00	-2.229691e-01
4.593635e-01	4.210526e+00	-2.042585e-01
3.837764e-01	4.210526e+00	-1.841224e-01
3.103069e-01	4.210526e+00	-1.630077e-01
2.415927e-01	4.210526e+00	-1.409228e-01
1.782654e-01	4.210526e+00	-1.183331e-01
1.234349e-01	4.210526e+00	-9.558566e-02
7.662509e-02	4.210526e+00	-7.318920e-02
4.106998e-02	4.210526e+00	-5.193053e-02
1.528206e-02	4.210526e+00	-3.215886e-02
2.347037e-03	4.210526e+00	-1.488740e-02
0.000000e+00	4.210526e+00	0.000000e+00
1.064939e-02	4.210526e+00	1.066461e-02
3.126595e-02	4.210526e+00	1.703450e-02
6.375031e-02	4.210526e+00	1.787236e-02
1.050105e-01	4.210526e+00	1.417221e-02
1.560448e-01	4.210526e+00	4.777214e-03
2.137742e-01	4.210526e+00	-9.048270e-03
2.782849e-01	4.210526e+00	-2.799567e-02
3.468570e-01	4.210526e+00	-5.051783e-02
4.187060e-01	4.210526e+00	-7.662000e-02
4.916930e-01	4.210526e+00	-1.047585e-01
5.642168e-01	4.210526e+00	-1.343226e-01
6.348639e-01	4.210526e+00	-1.641238e-01
7.013280e-01	4.210526e+00	-1.931337e-01
7.630418e-01	4.210526e+00	-2.206893e-01
8.172084e-01	4.210526e+00	-2.454799e-01
8.641863e-01	4.210526e+00	-2.673591e-01
9.009752e-01	4.210526e+00	-2.848204e-01
9.288372e-01	4.210526e+00	-2.982085e-01
9.448555e-01	4.210526e+00	-3.059908e-01
9.510565e-01	4.210526e+00	-3.090170e-01
9.510565e-01	5.263158e+00	-3.090170e-01
9.442611e-01	5.263158e+00	-3.078203e-01
9.267277e-01	5.263158e+00	-3.047010e-01
8.963175e-01	5.263158e+00	-2.991555e-01
8.562911e-01	5.263158e+00	-2.916579e-01
8.054250e-01	5.263158e+00	-2.817457e-01
7.470317e-01	5.263158e+00	-2.699633e-01
6.809074e-01	5.263158e+00	-2.559818e-01
6.100852e-01	5.263158e+00	-2.403847e-01
5.354138e-01	5.263158e+00	-2.229691e-01
4.593635e-01	5.263158e+00	-2.042585e-01
3.837764e-01	5.263158e+00	-1.841224e-01
3.103069e-01	5.263158e+00	-1.630077e-01
2.415927e-01	5.263158e+00	-1.409228e-01
1.782654e-01	5.263158e+00	-1.183331e-01
1.234349e-01	5.263158e+00	-9.558566e-02
7.662509e-02	5.263158e+00	-7.318920e-02
4.106998e-02	5.263158e+00	-5.193053e-02
1.528206e-02	5.263158e+00	-3.215886e-02
2.347037e-03	5.263158e+00	-1.488740e-02
0.000000e+00	5.263158e+00	0.000000e+00
1.064939e-02	5.263158e+00	1.066461e-02
3.126595e-02	5.263158e+00	1.703450e-02
6.375031e-02	5.263158e+00	1.787236e-02
1.050105e-01	5.263158e+00	1.417221e-02
1.560448e-01	5.263158e+00	4.777214e-03
2.137742e-01	5.263158e+00	-9.048270e-03
2.782849e-01	5.263158e+00	-2.799567e-02
3.468570e-01	5.263158e+00	-5.051783e-02
4.187060e-01	5.263158e+00	-7.662000e-02
4.916930e-01	5.263158e+00	-1.047585e-01
5.642168e-01	5.263158e+00	-1.343226e-01
6.348639e-01	5.263158e+00	-1.641238e-01
7.013280e-01	5.263158e+00	-1.931337e-01
7.630418e-01	5.263158e+00	-2.206893e-01
8.172084e-01	5.263158e+00	-2.454799e-01
8.641863e-01	5.263158e+00	-2.673591e-01
9.009752e-01	5.263158e+00	-2.848204e-01
9.288372e-01	5.263158e+00	-2.982085e-01
9.448555e-01	5.263158e+00	-3.059908e-01
9.510565e-01	5.263158e+00	-3.090170e-01
9.510565e-01	6.315789e+00	-3.090170e-01
9.442611e-01	6.315789e+00	-3.078203e-01
[...]
CELL_DATA 760
VECTORS V double
8.414237e-01	-6.903443e-02	-1.481716e-01
8.655448e-01	-6.886085e-02	-1.539858e-01
8.835596e-01	-6.841109e-02	-1.611255e-01
8.953254e-01	-6.761670e-02	-1.677082e-01
8.977902e-01	-6.645578e-02	-1.749513e-01
8.991026e-01	-6.491070e-02	-1.814177e-01
8.920646e-01	-6.297114e-02	-1.886205e-01
8.847541e-01	-6.061303e-02	-1.948486e-01
8.704198e-01	-5.780784e-02	-2.030082e-01
8.547796e-01	-5.452309e-02	-2.103004e-01
8.294746e-01	-5.073321e-02	-2.209693e-01
7.985526e-01	-4.642400e-02	-2.294991e-01
7.512032e-01	-4.162845e-02	-2.414379e-01
6.891785e-01	-3.639774e-02	-2.458394e-01
6.025273e-01	-3.076979e-02	-2.499695e-01
4.718498e-01	-2.486744e-02	-2.257597e-01
2.701382e-01	-1.869862e-02	-1.615176e-01
-1.743791e-02	-1.242948e-02	1.336969e-02
-4.218296e-01	-5.861500e-03	5.632471e-01
-3.427053e-01	7.193553e-04	2.173801e+00
2.327106e+00	8.432823e-03	2.330432e+00
2.541766e+00	1.519787e-02	7.853281e-01
2.210604e+00	2.214445e-02	5.701748e-02
1.925565e+00	2.899210e-02	-1.726815e-01
1.720214e+00	3.598185e-02	-3.166776e-01
1.570427e+00	4.294873e-02	-3.760980e-01
1.435572e+00	4.988702e-02	-4.216406e-01
1.336752e+00	5.661823e-02	-4.390496e-01
1.250652e+00	6.302418e-02	-4.543518e-01
1.181709e+00	6.890705e-02	-4.555813e-01
1.121878e+00	7.415138e-02	-4.573298e-01
1.071619e+00	7.861994e-02	-4.520434e-01
1.027479e+00	8.225054e-02	-4.484687e-01
9.872036e-01	8.503554e-02	-4.407930e-01
9.499818e-01	8.702627e-02	-4.347799e-01
9.115294e-01	8.832062e-02	-4.245310e-01
8.743621e-01	8.904693e-02	-4.150012e-01
8.341875e-01	8.935424e-02	-4.008423e-01
7.910589e-01	8.939820e-02	-3.843270e-01
7.483076e-01	8.935253e-02	-3.651812e-01
8.268581e-01	-4.834442e-02	-1.456067e-01
8.473462e-01	-4.822011e-02	-1.507481e-01
8.618090e-01	-4.790159e-02	-1.571591e-01
8.704953e-01	-4.733778e-02	-1.630571e-01
8.702470e-01	-4.650604e-02	-1.695840e-01
8.688632e-01	-4.538756e-02	-1.753161e-01
8.588645e-01	-4.397166e-02	-1.816005e-01
8.479950e-01	-4.224333e-02	-1.867531e-01
8.293252e-01	-4.018776e-02	-1.934237e-01
8.083375e-01	-3.778977e-02	-1.988743e-01
7.765496e-01	-3.501961e-02	-2.068702e-01
7.378899e-01	-3.192769e-02	-2.120650e-01
6.815855e-01	-2.849144e-02	-2.190627e-01
6.085334e-01	-2.476591e-02	-2.170722e-01
5.087329e-01	-2.077705e-02	-2.110572e-01
3.607310e-01	-1.660792e-02	-1.725941e-01
1.373217e-01	-1.226033e-02	-8.210566e-02
-1.815639e-01	-7.847642e-03	1.392056e-01
-6.032668e-01	-3.230070e-03	8.055107e-01
-4.198744e-01	1.389557e-03	2.663289e+00
2.682630e+00	6.789840e-03	2.686464e+00
2.844206e+00	1.150596e-02	8.787728e-01
2.433340e+00	1.632019e-02	6.276246e-02
2.097401e+00	2.102956e-02	-1.880914e-01
1.860537e+00	2.579277e-02	-3.425099e-01
1.689688e+00	3.049019e-02	-4.046594e-01
1.539097e+00	3.511602e-02	-4.520469e-01
1.427836e+00	3.955214e-02	-4.689657e-01
1.330741e+00	4.372665e-02	-4.834474e-01
1.251923e+00	4.753200e-02	-4.826508e-01
1.182685e+00	5.085781e-02	-4.821176e-01
1.123351e+00	5.367529e-02	-4.738655e-01
1.070403e+00	5.593475e-02	-4.672042e-01
1.021750e+00	5.764059e-02	-4.562184e-01
9.765973e-01	5.883405e-02	-4.469611e-01
9.307658e-01	5.958597e-02	-4.334900e-01
8.867532e-01	5.998474e-02	-4.208824e-01
8.402950e-01	6.013116e-02	-4.037771e-01
7.917020e-01	6.012753e-02	-3.846394e-01
7.448106e-01	6.008423e-02	-3.634747e-01
8.205621e-01	-2.041174e-02	-1.444980e-01
8.397206e-01	-2.035990e-02	-1.493915e-01
8.527034e-01	-2.022953e-02	-1.554986e-01
8.598620e-01	-1.999348e-02	-1.610653e-01
8.580711e-01	-1.963485e-02	-1.672113e-01
8.551044e-01	-1.913695e-02	-1.725399e-01
8.434808e-01	-1.849004e-02	-1.783478e-01
8.308769e-01	-1.768880e-02	-1.829832e-01
8.103172e-01	-1.670610e-02	-1.889905e-01
7.869257e-01	-1.558579e-02	-1.936064e-01
7.528567e-01	-1.431364e-02	-2.005585e-01
7.115602e-01	-1.290445e-02	-2.044980e-01
6.517375e-01	-1.134823e-02	-2.094695e-01
5.745786e-01	-9.681174e-03	-2.049600e-01
4.697888e-01	-7.913329e-03	-1.949005e-01
3.150362e-01	-6.077231e-03	-1.507312e-01
8.303413e-02	-4.169573e-03	-4.964673e-02
-2.483684e-01	-2.238272e-03	1.904247e-01
-6.767924e-01	-2.224723e-04	9.036855e-01
-4.509175e-01	1.785902e-03	2.860197e+00
2.823741e+00	4.115122e-03	2.827776e+00
2.961939e+00	6.123197e-03	9.151488e-01
2.517971e+00	8.136772e-03	6.494531e-02
2.160704e+00	1.006070e-02	-1.937684e-01
1.910363e+00	1.195124e-02	-3.516825e-01
1.730295e+00	1.375478e-02	-4.143843e-01
1.572793e+00	1.546682e-02	-4.619439e-01
1.456131e+00	1.704668e-02	-4.782589e-01
1.354657e+00	1.847687e-02	-4.921360e-01
1.271701e+00	1.974294e-02	-4.902757e-01
1.198798e+00	2.080821e-02	-4.886863e-01
1.136483e+00	2.166855e-02	-4.794050e-01
1.080552e+00	2.230562e-02	-4.716341e-01
1.029171e+00	2.277725e-02	-4.595315e-01
9.815352e-01	2.307933e-02	-4.492210e-01
9.334890e-01	2.324398e-02	-4.347583e-01
8.875247e-01	2.330645e-02	-4.212486e-01
8.394020e-01	2.330421e-02	-4.033480e-01
7.894768e-01	2.327375e-02	-3.835583e-01
7.416760e-01	2.324695e-02	-3.619450e-01
8.181582e-01	-1.022082e-02	-1.440747e-01
8.367435e-01	-1.019978e-02	-1.488618e-01
8.489709e-01	-1.014349e-02	-1.548179e-01
8.553568e-01	-1.003767e-02	-1.602215e-01
8.527777e-01	-9.872474e-03	-1.661798e-01
8.489721e-01	-9.624564e-03	-1.713025e-01
8.364803e-01	-9.311866e-03	-1.768676e-01
8.225822e-01	-8.914385e-03	-1.811565e-01
8.009504e-01	-8.441032e-03	-1.868058e-01
7.769277e-01	-7.877123e-03	-1.911466e-01
7.415036e-01	-7.237697e-03	-1.975341e-01
6.983713e-01	-6.500141e-03	-2.007076e-01
6.368108e-01	-5.694584e-03	-2.046720e-01
5.574949e-01	-4.818360e-03	-1.988660e-01
4.500812e-01	-3.883515e-03	-1.867245e-01
2.917882e-01	-2.907483e-03	-1.396080e-01
5.531620e-02	-1.893502e-03	-3.307397e-02
-2.825239e-01	-8.598306e-04	2.166119e-01
-7.143880e-01	2.203562e-04	9.538850e-01
-4.667521e-01	1.280544e-03	2.960637e+00
2.895314e+00	2.539237e-03	2.899451e+00
3.021188e+00	3.602964e-03	9.334551e-01
2.560180e+00	4.662106e-03	6.603400e-02
2.191929e+00	5.665122e-03	-1.965686e-01
1.934675e+00	6.644753e-03	-3.561582e-01
1.749899e+00	7.564886e-03	-4.190792e-01
1.588898e+00	8.429334e-03	-4.666741e-01
1.469542e+00	9.226422e-03	-4.826638e-01
1.365872e+00	9.935225e-03	-4.962103e-01
1.281340e+00	1.055438e-02	-4.939919e-01
1.206798e+00	1.109293e-02	-4.919474e-01
1.142496e+00	1.152434e-02	-4.819416e-01
1.085247e+00	1.186247e-02	-4.736832e-01
1.032973e+00	1.210068e-02	-4.612291e-01
9.842008e-01	1.226079e-02	-4.504410e-01
9.351559e-01	1.234179e-02	-4.355346e-01
8.883142e-01	1.238576e-02	-4.216234e-01
8.394634e-01	1.239597e-02	-4.033775e-01
7.889782e-01	1.238914e-02	-3.833160e-01
7.407066e-01	1.238048e-02	-3.614719e-01
8.170307e-01	-5.654401e-03	-1.438761e-01
8.351886e-01	-5.643278e-03	-1.485852e-01
8.470061e-01	-5.611764e-03	-1.544596e-01
8.529518e-01	-5.552376e-03	-1.597710e-01
8.496168e-01	-5.456167e-03	-1.655638e-01
8.453731e-01	-5.315846e-03	-1.705763e-01
8.324967e-01	-5.144447e-03	-1.760253e-01
8.184773e-01	-4.924678e-03	-1.802525e-01
7.963161e-01	-4.659689e-03	-1.857250e-01
7.711276e-01	-4.323807e-03	-1.897196e-01
7.348612e-01	-3.932786e-03	-1.957646e-01
6.909936e-01	-3.496338e-03	-1.985873e-01
6.283815e-01	-3.024656e-03	-2.019628e-01
5.476722e-01	-2.604159e-03	-1.953621e-01
4.386958e-01	-2.060685e-03	-1.820010e-01
2.783892e-01	-1.452884e-03	-1.331971e-01
3.931103e-02	-8.432519e-04	-2.350436e-02
-3.024319e-01	-2.234483e-04	2.318754e-01
-7.359861e-01	4.245762e-04	9.827238e-01
-4.759265e-01	1.069459e-03	3.018830e+00
2.937422e+00	1.812944e-03	2.941620e+00
3.055294e+00	2.447919e-03	9.439926e-01
2.584352e+00	3.076531e-03	6.665746e-02
2.209820e+00	3.667497e-03	-1.981730e-01
1.948464e+00	4.237283e-03	-3.586966e-01
1.760849e+00	4.760756e-03	-4.217017e-01
1.597930e+00	5.246663e-03	-4.693266e-01
1.476990e+00	5.790617e-03	-4.851100e-01
1.371958e+00	6.195027e-03	-4.984212e-01
1.286310e+00	6.533517e-03	-4.959080e-01
1.210945e+00	6.814491e-03	-4.936378e-01
1.146317e+00	7.043988e-03	-4.835532e-01
1.088275e+00	7.241517e-03	-4.750046e-01
1.034942e+00	7.383944e-03	-4.621083e-01
9.854717e-01	7.482083e-03	-4.510227e-01
9.358717e-01	7.530560e-03	-4.358680e-01
8.888580e-01	7.553894e-03	-4.218815e-01
8.396035e-01	7.560314e-03	-4.034448e-01
7.887829e-01	7.556463e-03	-3.832212e-01
7.403489e-01	7.552201e-03	-3.612973e-01
8.162914e-01	-3.266802e-03	-1.437459e-01
8.342289e-01	-3.273765e-03	-1.484145e-01
8.457755e-01	-3.254484e-03	-1.542352e-01
8.513808e-01	-3.217973e-03	-1.594767e-01
8.479431e-01	-3.156237e-03	-1.652377e-01
8.435667e-01	-3.103577e-03	-1.702118e-01
8.304290e-01	-2.986367e-03	-1.755881e-01
8.156785e-01	-2.842369e-03	-1.796361e-01
7.928350e-01	-2.658049e-03	-1.849131e-01
7.673839e-01	-2.425546e-03	-1.887985e-01
7.306885e-01	-2.185972e-03	-1.946530e-01
6.862664e-01	-1.959989e-03	-1.972288e-01
6.243810e-01	-1.645625e-03	-2.006771e-01
5.432396e-01	-1.427165e-03	-1.937810e-01
4.313897e-01	-1.062350e-03	-1.789699e-01
2.693337e-01	-6.843563e-04	-1.288645e-01
2.906020e-02	-2.883459e-04	-1.737531e-02
-3.149482e-01	1.069233e-04	2.414717e-01
-7.500939e-01	5.190175e-04	1.001561e+00
-4.817644e-01	9.432543e-04	3.055861e+00
2.962852e+00	1.398308e-03	2.967086e+00
3.076723e+00	1.800905e-03	9.506136e-01
2.599415e+00	2.197565e-03	6.704598e-02
2.220663e+00	2.568227e-03	-1.991454e-01
1.956580e+00	2.918695e-03	-3.601906e-01
1.767174e+00	3.245594e-03	-4.232163e-01
1.604552e+00	3.659498e-03	-4.712716e-01
1.482641e+00	3.909454e-03	-4.869661e-01
1.375546e+00	4.160012e-03	-4.997249e-01
1.289156e+00	4.378941e-03	-4.970053e-01
1.213191e+00	4.544127e-03	-4.945532e-01
1.147948e+00	4.649893e-03	-4.842414e-01
1.089801e+00	4.744516e-03	-4.756706e-01
1.036456e+00	4.819496e-03	-4.627845e-01
9.865962e-01	4.865541e-03	-4.515373e-01
9.365316e-01	4.927062e-03	-4.361753e-01
8.890417e-01	4.936150e-03	-4.219686e-01
8.396011e-01	4.937982e-03	-4.034436e-01
7.886064e-01	4.934633e-03	-3.831354e-01
7.400539e-01	4.945517e-03	-3.611534e-01
8.181992e-01	-2.033385e-03	-1.440819e-01
8.341227e-01	-2.029349e-03	-1.483956e-01
8.450441e-01	-2.019156e-03	-1.541018e-01
8.504351e-01	-2.000537e-03	-1.592995e-01
8.473350e-01	-1.970390e-03	-1.651192e-01
8.423733e-01	-2.014315e-03	-1.699710e-01
8.284599e-01	-1.892061e-03	-1.751717e-01
8.137972e-01	-1.787213e-03	-1.792218e-01
7.906868e-01	-1.688176e-03	-1.844121e-01
7.649313e-01	-1.547061e-03	-1.881951e-01
7.287732e-01	-1.391206e-03	-1.941428e-01
6.838091e-01	-1.221586e-03	-1.965225e-01
6.209292e-01	-1.023434e-03	-1.995676e-01
5.390984e-01	-7.451909e-04	-1.923038e-01
4.266062e-01	-5.092845e-04	-1.769854e-01
2.641408e-01	-3.012621e-04	-1.263799e-01
2.239425e-02	-5.712072e-05	-1.338969e-02
-3.230848e-01	1.658467e-04	2.477100e-01
-7.590027e-01	4.275355e-04	1.013457e+00
-4.854950e-01	6.868435e-04	3.079524e+00
2.979575e+00	9.842630e-04	2.983833e+00
3.090404e+00	1.235602e-03	9.548405e-01
2.609025e+00	1.507969e-03	6.729386e-02
2.227651e+00	1.737524e-03	-1.997720e-01
1.962045e+00	1.958083e-03	-3.611967e-01
1.773654e+00	2.171937e-03	-4.247684e-01
1.607872e+00	2.398459e-03	-4.722468e-01
1.483936e+00	2.470965e-03	-4.873914e-01
1.378074e+00	2.614921e-03	-5.006432e-01
1.291155e+00	2.750676e-03	-4.977760e-01
1.214340e+00	2.863018e-03	-4.950217e-01
1.148874e+00	2.953050e-03	-4.846321e-01
1.090543e+00	3.051264e-03	-4.759947e-01
1.036699e+00	3.116466e-03	-4.628929e-01
9.871743e-01	3.237016e-03	-4.518019e-01
9.372720e-01	3.228481e-03	-4.365201e-01
8.891280e-01	3.222517e-03	-4.220096e-01
8.395873e-01	3.219558e-03	-4.034370e-01
7.889171e-01	3.216308e-03	-3.832864e-01
7.420158e-01	3.214018e-03	-3.621108e-01
8.156141e-01	-1.152880e-03	-1.436267e-01
8.334005e-01	-1.135996e-03	-1.482671e-01
8.447653e-01	-1.127552e-03	-1.540510e-01
8.501348e-01	-1.136574e-03	-1.592433e-01
8.483575e-01	-1.116389e-03	-1.653184e-01
8.420282e-01	-1.064886e-03	-1.699014e-01
8.269497e-01	-1.023486e-03	-1.748524e-01
8.127859e-01	-9.946931e-04	-1.789991e-01
7.895880e-01	-1.001355e-03	-1.841558e-01
7.634853e-01	-9.208086e-04	-1.878394e-01
7.264342e-01	-8.173049e-04	-1.935196e-01
6.813681e-01	-6.617874e-04	-1.958210e-01
6.177917e-01	-5.812969e-04	-1.985593e-01
5.355586e-01	-3.462185e-04	-1.910411e-01
4.241269e-01	-2.555446e-04	-1.759568e-01
2.610517e-01	-1.267388e-04	-1.249019e-01
1.902235e-02	1.118321e-05	-1.137360e-02
-3.272281e-01	1.538700e-04	2.508867e-01
-7.644884e-01	3.039960e-04	1.020781e+00
-4.877871e-01	4.535912e-04	3.094063e+00
2.989713e+00	6.257745e-04	2.993986e+00
3.099953e+00	7.720644e-04	9.577909e-01
2.615420e+00	9.158774e-04	6.745881e-02
2.231803e+00	1.050145e-03	-2.001444e-01
1.965304e+00	1.178267e-03	-3.617968e-01
1.774743e+00	1.298586e-03	-4.250290e-01
1.608971e+00	1.325734e-03	-4.725697e-01
1.485677e+00	1.436676e-03	-4.879632e-01
1.379193e+00	1.543821e-03	-5.010498e-01
1.292287e+00	1.604334e-03	-4.982121e-01
1.215725e+00	1.672585e-03	-4.955863e-01
1.150346e+00	1.818234e-03	-4.852530e-01
1.091992e+00	1.838972e-03	-4.766272e-01
1.039083e+00	1.880856e-03	-4.639577e-01
9.885225e-01	1.892767e-03	-4.524189e-01
9.362582e-01	1.878000e-03	-4.360480e-01
8.888295e-01	1.881017e-03	-4.218679e-01
8.394138e-01	1.902736e-03	-4.033536e-01
7.883337e-01	1.899552e-03	-3.830029e-01
7.397033e-01	1.883956e-03	-3.609823e-01
8.153657e-01	-1.387180e-03	-1.435829e-01
8.329717e-01	-1.387231e-03	-1.481908e-01
8.451737e-01	-1.387872e-03	-1.541255e-01
8.500659e-01	-1.369925e-03	-1.592304e-01
8.458364e-01	-1.328123e-03	-1.648271e-01
8.407843e-01	-1.250194e-03	-1.696504e-01
8.273899e-01	-1.152941e-03	-1.749455e-01
8.134987e-01	-1.215211e-03	-1.791561e-01
7.896687e-01	-9.946630e-04	-1.841746e-01
7.625142e-01	-1.042617e-03	-1.876005e-01
7.253908e-01	-6.844035e-04	-1.932417e-01
6.806408e-01	-7.706685e-04	-1.956120e-01
6.166095e-01	-3.335285e-04	-1.981793e-01
5.341474e-01	-3.954923e-04	-1.905377e-01
4.230700e-01	6.554706e-05	-1.755184e-01
2.592354e-01	4.069424e-04	-1.240329e-01
1.640760e-02	6.042385e-04	-9.810229e-03
-3.305696e-01	6.539367e-04	2.534486e-01
-7.672789e-01	7.022805e-04	1.024507e+00
-4.889749e-01	7.638621e-04	3.101597e+00
2.995171e+00	8.458233e-04	2.999451e+00
3.103144e+00	9.257553e-04	9.587770e-01
2.617966e+00	9.932683e-04	6.752447e-02
2.234142e+00	1.106399e-03	-2.003542e-01
1.967027e+00	1.042609e-03	-3.621140e-01
1.776081e+00	8.614367e-04	-4.253495e-01
1.610027e+00	4.827411e-04	-4.728797e-01
1.486961e+00	6.457856e-04	-4.883849e-01
1.380249e+00	3.304196e-04	-5.014334e-01
1.292782e+00	4.618556e-04	-4.984030e-01
1.217012e+00	1.685692e-04	-4.961111e-01
1.151026e+00	3.205146e-04	-4.855398e-01
1.091369e+00	6.240892e-05	-4.763551e-01
1.037492e+00	1.189001e-04	-4.632469e-01
9.871568e-01	-9.841161e-05	-4.517939e-01
9.370234e-01	-4.046249e-05	-4.364044e-01
8.896377e-01	-5.490976e-05	-4.222515e-01
8.402956e-01	-6.095849e-05	-4.037774e-01
7.882312e-01	-5.592883e-05	-3.829531e-01
7.396272e-01	-5.486353e-05	-3.609451e-01
8.156227e-01	-2.098404e-04	-1.436282e-01
8.334456e-01	-2.379354e-04	-1.482751e-01
8.440729e-01	-1.834525e-04	-1.539247e-01
8.485773e-01	-1.305741e-04	-1.589516e-01
8.458846e-01	-1.078486e-04	-1.648365e-01
8.389884e-01	-8.749881e-05	-1.692880e-01
8.265306e-01	-7.040604e-05	-1.747638e-01
8.104122e-01	-5.355800e-05	-1.784763e-01
7.873312e-01	2.701439e-06	-1.836294e-01
7.593869e-01	2.702044e-06	-1.868310e-01
7.228436e-01	4.457019e-06	-1.925631e-01
6.768272e-01	-1.998700e-05	-1.945160e-01
6.123525e-01	-3.925651e-05	-1.968111e-01
5.299966e-01	-2.858633e-05	-1.890570e-01
4.109261e-01	9.536619e-06	-1.704803e-01
2.508801e-01	-1.701917e-05	-1.200352e-01
1.337565e-02	-8.145372e-06	-7.997403e-03
-3.297501e-01	-5.051680e-07	2.528203e-01
-7.674479e-01	5.711703e-06	1.024733e+00
-4.893196e-01	1.080184e-05	3.103784e+00
2.997739e+00	1.602891e-05	3.002023e+00
3.106328e+00	2.028250e-05	9.597606e-01
2.621498e+00	2.441366e-05	6.761555e-02
2.232516e+00	2.793918e-05	-2.002084e-01
1.960169e+00	6.674264e-05	-3.608515e-01
1.764919e+00	7.007317e-05	-4.226764e-01
1.606100e+00	4.465879e-05	-4.717262e-01
1.483351e+00	1.063770e-04	-4.871992e-01
1.376910e+00	1.043635e-04	-5.002204e-01
1.290211e+00	1.047296e-04	-4.974119e-01
1.213928e+00	1.100484e-04	-4.948539e-01
1.149092e+00	8.157302e-05	-4.847241e-01
1.089174e+00	1.026370e-04	-4.753970e-01
1.036966e+00	1.219049e-04	-4.630121e-01
9.856853e-01	1.460322e-04	-4.511204e-01
9.371896e-01	1.717756e-04	-4.364818e-01
8.883378e-01	2.017554e-04	-4.216346e-01
8.393186e-01	2.130141e-04	-4.033079e-01
7.886781e-01	2.915237e-04	-3.831702e-01
7.398665e-01	2.809748e-04	-3.610619e-01
8.200808e-01	1.456046e-03	-1.444132e-01
8.302486e-01	1.456400e-03	-1.477064e-01
8.416181e-01	1.458011e-03	-1.534771e-01
8.482858e-01	1.442516e-03	-1.588969e-01
8.449752e-01	1.404106e-03	-1.646593e-01
8.401430e-01	1.417488e-03	-1.695210e-01
8.268682e-01	1.278789e-03	-1.748352e-01
8.124430e-01	1.340575e-03	-1.789236e-01
7.889251e-01	1.072019e-03	-1.840012e-01
7.624911e-01	1.125488e-03	-1.875948e-01
7.256854e-01	7.780747e-04	-1.933202e-01
6.812253e-01	7.924945e-04	-1.957800e-01
6.167424e-01	3.624828e-04	-1.982220e-01
5.334411e-01	4.537490e-04	-1.902857e-01
4.228136e-01	-4.063400e-05	-1.754120e-01
2.596193e-01	-3.809585e-04	-1.242166e-01
1.605152e-02	-5.782335e-04	-9.597326e-03
-3.309311e-01	-6.033273e-04	2.537258e-01
-7.675974e-01	-6.544055e-04	1.024933e+00
-4.890876e-01	-7.480456e-04	3.102312e+00
2.995634e+00	-8.347209e-04	2.999915e+00
3.103512e+00	-8.899666e-04	9.588906e-01
2.618211e+00	-9.872134e-04	6.753078e-02
2.235294e+00	-1.102464e-03	-2.004575e-01
1.967812e+00	-1.041510e-03	-3.622584e-01
1.775671e+00	-8.308746e-04	-4.252512e-01
1.610641e+00	-4.866844e-04	-4.730600e-01
1.487761e+00	-6.554215e-04	-4.886478e-01
1.380228e+00	-3.496260e-04	-5.014258e-01
1.292854e+00	-4.123838e-04	-4.984308e-01
1.216725e+00	-1.306557e-04	-4.959938e-01
1.150920e+00	-2.287659e-04	-4.854948e-01
1.091907e+00	-1.586511e-05	-4.765900e-01
1.038111e+00	-1.160550e-04	-4.635235e-01
9.879521e-01	-5.809851e-06	-4.521578e-01
9.380502e-01	-3.851083e-05	-4.368826e-01
8.906322e-01	-1.210254e-05	-4.227236e-01
8.426377e-01	-3.090947e-06	-4.049028e-01
7.927547e-01	-7.441204e-06	-3.851508e-01
7.380117e-01	-8.425832e-06	-3.601567e-01
8.155632e-01	1.517114e-03	-1.436177e-01
8.333244e-01	1.542392e-03	-1.482536e-01
8.446422e-01	1.479318e-03	-1.540285e-01
8.499868e-01	1.442576e-03	-1.592156e-01
8.462913e-01	1.306681e-03	-1.649158e-01
8.413203e-01	1.261538e-03	-1.697586e-01
8.275639e-01	1.202843e-03	-1.749823e-01
8.134957e-01	1.128216e-03	-1.791554e-01
7.901469e-01	1.082610e-03	-1.842861e-01
7.632708e-01	9.852632e-04	-1.877866e-01
7.272258e-01	8.800050e-04	-1.937305e-01
6.822524e-01	7.946587e-04	-1.960752e-01
6.172950e-01	7.005343e-04	-1.983996e-01
5.355737e-01	5.389381e-04	-1.910464e-01
4.246890e-01	3.927537e-04	-1.761900e-01
2.610298e-01	2.747609e-04	-1.248914e-01
1.855702e-02	1.158381e-04	-1.109538e-02
-3.279021e-01	-4.472646e-05	2.514035e-01
-7.636937e-01	-2.108837e-04	1.019720e+00
-4.873318e-01	-3.750893e-04	3.091176e+00
2.990962e+00	-5.635852e-04	2.995236e+00
3.099241e+00	-7.238698e-04	9.575709e-01
2.614534e+00	-8.817984e-04	6.743594e-02
2.231678e+00	-1.029313e-03	-2.001332e-01
1.965897e+00	-1.205453e-03	-3.619059e-01
1.774585e+00	-1.335645e-03	-4.249913e-01
1.608383e+00	-1.457789e-03	-4.723969e-01
1.485463e+00	-1.602938e-03	-4.878930e-01
1.379985e+00	-1.703575e-03	-5.013373e-01
1.293002e+00	-1.785761e-03	-4.984878e-01
1.216250e+00	-1.858813e-03	-4.958003e-01
1.150480e+00	-1.958086e-03	-4.853096e-01
1.090807e+00	-2.006688e-03	-4.761098e-01
1.036964e+00	-2.042718e-03	-4.630112e-01
9.870754e-01	-2.084082e-03	-4.517566e-01
9.369715e-01	-2.127873e-03	-4.363802e-01
8.891959e-01	-2.073076e-03	-4.220418e-01
8.395379e-01	-2.116576e-03	-4.034133e-01
7.883782e-01	-2.193456e-03	-3.830246e-01
7.397157e-01	-2.181851e-03	-3.609883e-01
8.158385e-01	2.166119e-03	-1.436662e-01
8.336498e-01	2.161682e-03	-1.483114e-01
8.447668e-01	2.154864e-03	-1.540512e-01
8.528813e-01	2.055288e-03	-1.597578e-01
8.484444e-01	2.022458e-03	-1.653354e-01
8.419473e-01	1.984970e-03	-1.698851e-01
8.289302e-01	1.904598e-03	-1.752712e-01
8.141374e-01	1.808466e-03	-1.792967e-01
7.908647e-01	1.708915e-03	-1.844536e-01
7.651507e-01	1.562554e-03	-1.882491e-01
7.281790e-01	1.393009e-03	-1.939844e-01
6.836170e-01	1.287981e-03	-1.964673e-01
6.202685e-01	1.063969e-03	-1.993553e-01
5.380319e-01	8.522993e-04	-1.919233e-01