# vtk DataFile Version 2.0
OUTPUT by 3D-VPM
ASCII
DATASET UNSTRUCTURED_GRID
POINTS 820 double
9.510565e-01	0.000000e+00	-3.090170e-01
9.442611e-01	0.000000e+00	-3.078203e-01
9.267277e-01	0.000000e+00	-3.047010e-01
8.963175e-01	0.000000e+00	-2.991555e-01
8.562911e-01	0.000000e+00	-2.916579e-01
8.054250e-01	0.000000e+00	-2.817457e-01
7.470317e-01	0.000000e+00	-2.699633e-01
6.809074e-01	0.000000e+00	-2.559818e-01
6.100852e-01	0.000000e+00	-2.403847e-01
5.354138e-01	0.000000e+00	-2.229691e-01
4.593635e-01	0.000000e+00	-2.042585e-01
3.837764e-01	0.000000e+00	-1.841224e-01
3.103069e-01	0.000000e+00	-1.630077e-01
2.415927e-01	0.000000e+00	-1.409228e-01
1.782654e-01	0.000000e+00	-1.183331e-01
1.234349e-01	0.000000e+00	-9.558566e-02
7.662509e-02	0.000000e+00	-7.318920e-02
4.106998e-02	0.000000e+00	-5.193053e-02
1.528206e-02	0.000000e+00	-3.215886e-02
2.347037e-03	0.000000e+00	-1.488740e-02
0.000000e+00	0.000000e+00	0.000000e+00
1.064939e-02	0.000000e+00	1.066461e-02
3.126595e-02	0.000000e+00	1.703450e-02
6.375031e-02	0.000000e+00	1.787236e-02
1.050105e-01	0.000000e+00	1.417221e-02
1.560448e-01	0.000000e+00	4.777214e-03
2.137742e-01	0.000000e+00	-9.048270e-03
2.782849e-01	0.000000e+00	-2.799567e-02
3.468570e-01	0.000000e+00	-5.051783e-02
4.187060e-01	0.000000e+00	-7.662000e-02
4.916930e-01	0.000000e+00	-1.047585e-01
5.642168e-01	0.000000e+00	-1.343226e-01
6.348639e-01	0.000000e+00	-1.641238e-01
7.013280e-01	0.000000e+00	-1.931337e-01
7.630418e-01	0.000000e+00	-2.206893e-01
8.172084e-01	0.000000e+00	-2.454799e-01
8.641863e-01	0.000000e+00	-2.673591e-01
9.009752e-01	0.000000e+00	-2.848204e-01
9.288372e-01	0.000000e+00	-2.982085e-01
9.448555e-01	0.000000e+00	-3.059908e-01
9.510565e-01	0.000000e+00	-3.090170e-01
9.510565e-01	1.052632e+00	-3.090170e-01
9.442611e-01	1.052632e+00	-3.078203e-01
9.267277e-01	1.052632e+00	-3.047010e-01
8.963175e-01	1.052632e+00	-2.991555e-01
8.562911e-01	1.052632e+00	-2.916579e-01
8.054250e-01	1.052632e+00	-2.817457e-01
7.470317e-01	1.052632e+00	-2.699633e-01
6.809074e-01	1.052632e+00	-2.559818e-01
6.100852e-01	1.052632e+00	-2.403847e-01
5.354138e-01	1.052632e+00	-2.229691e-01
4.593635e-01	1.052632e+00	-2.042585e-01
3.837764e-01	1.052632e+00	-1.841224e-01
3.103069e-01	1.052632e+00	-1.630077e-01
2.415927e-01	1.052632e+00	-1.409228e-01
1.782654e-01	1.052632e+00	-1.183331e-01
1.234349e-01	1.052632e+00	-9.558566e-02
7.662509e-02	1.052632e+00	-7.318920e-02
4.106998e-02	1.052632e+00	-5.193053e-02
1.528206e-02	1.052632e+00	-3.215886e-02
2.347037e-03	1.052632e+00	-1.488740e-02
0.000000e+00	1.052632e+00	0.000000e+00
1.064939e-02	1.052632e+00	1.066461e-02
3.126595e-02	1.052632e+00	1.703450e-02
6.375031e-02	1.052632e+00	1.787236e-02
1.050105e-01	1.052632e+00	1.417221e-02
1.560448e-01	1.052632e+00	4.777214e-03
2.137742e-01	1.052632e+00	-9.048270e-03
2.782849e-01	1.052632e+00	-2.799567e-02
3.468570e-01	1.052632e+00	-5.051783e-02
4.187060e-01	1.052632e+00	-7.662000e-02
4.916930e-01	1.052632e+00	-1.047585e-01
5.642168e-01	1.052632e+00	-1.343226e-01
6.348639e-01	1.052632e+00	-1.641238e-01
7.013280e-01	1.052632e+00	-1.931337e-01
7.630418e-01	1.052632e+00	-2.206893e-01
8.172084e-01	1.052632e+00	-2.454799e-01
8.641863e-01	1.052632e+00	-2.673591e-01
9.009752e-01	1.052632e+00	-2.848204e-01
9.288372e-01	1.052632e+00	-2.982085e-01
9.448555e-01	1.052632e+00	-3.059908e-01
9.510565e-01	1.052632e+00	-3.090170e-01
9.510565e-01	2.105263e+00	-3.090170e-01
9.442611e-01	2.105263e+00	-3.078203e-01
9.267277e-01	2.105263e+00	-3.047010e-01
8.963175e-01	2.105263e+00	-2.991555e-01
8.562911e-01	2.105263e+00	-2.916579e-01
8.054250e-01	2.105263e+00	-2.817457e-01
7.470317e-01	2.105263e+00	-2.699633e-01
6.809074e-01	2.105263e+00	-2.559818e-01
6.100852e-01	2.105263e+00	-2.403847e-01
5.354138e-01	2.105263e+00	-2.229691e-01
4.593635e-01	2.105263e+00	-2.042585e-01
3.837764e-01	2.105263e+00	-1.841224e-01
3.103069e-01	2.105263e+00	-1.630077e-01
2.415927e-01	2.105263e+00	-1.409228e-01
1.782654e-01	2.105263e+00	-1.183331e-01
1.234349e-01	2.105263e+00	-9.558566e-02
7.662509e-02	2.105263e+00	-7.318920e-02
4.106998e-02	2.105263e+00	-5.193053e-02
1.528206e-02	2.105263e+00	-3.215886e-02
2.347037e-03	2.105263e+00	-1.488740e-02
0.000000e+00	2.105263e+00	0.000000e+00
1.064939e-02	2.105263e+00	1.066461e-02
3.126595e-02	2.105263e+00	1.703450e-02
6.375031e-02	2.105263e+00	1.787236e-02
1.050105e-01	2.105263e+00	1.417221e-02
1.560448e-01	2.105263e+00	4.777214e-03
2.137742e-01	2.105263e+00	-9.048270e-03
2.782849e-01	2.105263e+00	-2.799567e-02
3.468570e-01	2.105263e+00	-5.051783e-02
4.187060e-01	2.105263e+00	-7.662000e-02
4.916930e-01	2.105263e+00	-1.047585e-01
5.642168e-01	2.105263e+00	-1.343226e-01
6.348639e-01	2.105263e+00	-1.641238e-01
7.013280e-01	2.105263e+00	-1.931337e-01
7.630418e-01	2.105263e+00	-2.206893e-01
8.172084e-01	2.105263e+00	-2.454799e-01
8.641863e-01	2.105263e+00	-2.673591e-01
9.009752e-01	2.105263e+00	-2.848204e-01
9.288372e-01	2.105263e+00	-2.982085e-01
9.448555e-01	2.105263e+00	-3.059908e-01
9.510565e-01	2.105263e+00	-3.090170e-01
9.510565e-01	3.157895e+00	-3.090170e-01
9.442611e-01	3.157895e+00	-3.078203e-01
9.267277e-01	3.157895e+00	-3.047010e-01
8.963175e-01	3.157895e+00	-2.991555e-01
8.562911e-01	3.157895e+00	-2.916579e-01
8.054250e-01	3.157895e+00	-2.817457e-01
7.470317e-01	3.157895e+00	-2.699633e-01
6.809074e-01	3.157895e+00	-2.559818e-01
6.100852e-01	3.157895e+00	-2.403847e-01
5.354138e-01	3.157895e+00	-2.229691e-01
4.593635e-01	3.157895e+00	-2.042585e-01
3.837764e-01	3.157895e+00	-1.841224e-01
3.103069e-01	3.157895e+00	-1.630077e-01
2.415927e-01	3.157895e+00	-1.409228e-01
1.782654e-01	3.157895e+00	-1.183331e-01
1.234349e-01	3.157895e+00	-9.558566e-02
7.662509e-02	3.157895e+00	-7.318920e-02
4.106998e-02	3.157895e+00	-5.193053e-02
1.528206e-02	3.157895e+00	-3.215886e-02
2.347037e-03	3.157895e+00	-1.488740e-02
0.000000e+00	3.157895e+00	0.000000e+00
1.064939e-02	3.157895e+00	1.066461e-02
3.126595e-02	3.157895e+00	1.703450e-02
6.375031e-02	3.157895e+00	1.787236e-02
1.050105e-01	3.157895e+00	1.417221e-02
1.560448e-01	3.157895e+00	4.777214e-03
2.137742e-01	3.157895e+00	-9.048270e-03
2.782849e-01	3.157895e+00	-2.799567e-02
3.468570e-01	3.157895e+00	-5.051783e-02
4.187060e-01	3.157895e+00	-7.662000e-02
4.916930e-01	3.157895e+00	-1.047585e-01
5.642168e-01	3.157895e+00	-1.343226e-01
6.348639e-01	3.157895e+00	-1.641238e-01
7.013280e-01	3.157895e+00	-1.931337e-01
7.630418e-01	3.157895e+00	-2.206893e-01
8.172084e-01	3.157895e+00	-2.454799e-01
8.641863e-01	3.157895e+00	-2.673591e-01
9.009752e-01	3.157895e+00	-2.848204e-01
9.288372e-01	3.157895e+00	-2.982085e-01
9.448555e-01	3.157895e+00	-3.059908e-01
9.510565e-01	3.157895e+00	-3.090170e-01
9.510565e-01	4.210526e+00	-3.090170e-01
9.442611e-01	4.210526e+00	-3.078203e-01
9.267277e-01	4.210526e+00	-3.047010e-01
8.963175e-01	4.210526e+00	-2.991555e-01
8.562911e-01	4.210526e+00	-2.916579e-01
8.054250e-01	4.210526e+00	-2.817457e-01
7.470317e-01	4.210526e+00	-2.699633e-01
6.809074e-01	4.210526e+00	-2.559818e-01
6.100852e-01	4.210526e+00	-2.403847e-01
5.354138e-01	4.210526e+00	-2.229691e-01
4.593635e-01	4.210526e+00	-2.042585e-01
3.837764e-01	4.210526e+00	-1.841224e-01
3.103069e-01	4.210526e+00	-1.630077e-01
2.415927e-01	4.210526e+00	-1.409228e-01
1.782654e-01	4.210526e+00	-1.183331e-01
1.234349e-01	4.210526e+00	-9.558566e-02
7.662509e-02	4.210526e+00	-7.318920e-02
4.106998e-02	4.210526e+00	-5.193053e-02
1.528206e-02	4.210526e+00	-3.215886e-02
2.347037e-03	4.210526e+00	-1.488740e-02
0.000000e+00	4.210526e+00	0.000000e+00
1.064939e-02	4.210526e+00	1.066461e-02
3.126595e-02	4.210526e+00	1.703450e-02
6.375031e-02	4.210526e+00	1.787236e-02
1.050105e-01	4.210526e+00	1.417221e-02
1.560448e-01	4.210526e+00	4.777214e-03
2.137742e-01	4.210526e+00	-9.048270e-03
2.782849e-01	4.210526e+00	-2.799567e-02
3.468570e-01	4.210526e+00	-5.051783e-02
4.187060e-01	4.210526e+00	-7.662000e-02
4.916930e-01	4.210526e+00	-1.047585e-01
5.642168e-01	4.210526e+00	-1.343226e-01
6.348639e-01	4.210526e+00	-1.641238e-01
7.013280e-01	4.210526e+00	-1.931337e-01
7.630418e-01	4.210526e+00	-2.206893e-01
8.172084e-01	4.210526e+00	-2.454799e-01
8.641863e-01	4.210526e+00	-2.673591e-01
9.009752e-01	4.210526e+00	-2.848204e-01
9.288372e-01	4.210526e+00	-2.982085e-01
9.448555e-01	4.210526e+00	-3.059908e-01
9.510565e-01	4.210526e+00	-3.090170e-01
9.510565e-01	5.263158e+00	-3.090170e-01
9.442611e-01	5.263158e+00	-3.078203e-01
9.267277e-01	5.263158e+00	-3.047010e-01
8.963175e-01	5.263158e+00	-2.991555e-01
8.562911e-01	5.263158e+00	-2.916579e-01
8.054250e-01	5.263158e+00	-2.817457e-01
7.470317e-01	5.263158e+00	-2.699633e-01
6.809074e-01	5.263158e+00	-2.559818e-01
6.100852e-01	5.263158e+00	-2.403847e-01
5.354138e-01	5.263158e+00	-2.229691e-01
4.593635e-01	5.263158e+00	-2.042585e-01
3.837764e-01	5.263158e+00	-1.841224e-01
3.103069e-01	5.263158e+00	-1.630077e-01
2.415927e-01	5.263158e+00	-1.409228e-01
1.782654e-01	5.263158e+00	-1.183331e-01
1.234349e-01	5.263158e+00	-9.558566e-02
7.662509e-02	5.263158e+00	-7.318920e-02
4.106998e-02	5.263158e+00	-5.193053e-02
1.528206e-02	5.263158e+00	-3.215886e-02
2.347037e-03	5.263158e+00	-1.488740e-02
0.000000e+00	5.263158e+00	0.000000e+00
1.064939e-02	5.263158e+00	1.066461e-02
3.126595e-02	5.263158e+00	1.703450e-02
6.375031e-02	5.263158e+00	1.787236e-02
1.050105e-01	5.263158e+00	1.417221e-02
1.560448e-01	5.263158e+00	4.777214e-03
2.137742e-01	5.263158e+00	-9.048270e-03
2.782849e-01	5.263158e+00	-2.799567e-02
3.468570e-01	5.263158e+00	-5.051783e-02
4.187060e-01	5.263158e+00	-7.662000e-02
4.916930e-01	5.263158e+00	-1.047585e-01
5.642168e-01	5.263158e+00	-1.343226e-01
6.348639e-01	5.263158e+00	-1.641238e-01
7.013280e-01	5.263158e+00	-1.931337e-01
7.630418e-01	5.263158e+00	-2.206893e-01
8.172084e-01	5.263158e+00	-2.454799e-01
8.641863e-01	5.263158e+00	-2.673591e-01
9.009752e-01	5.263158e+00	-2.848204e-01
9.288372e-01	5.263158e+00	-2.982085e-01
9.448555e-01	5.263158e+00	-3.059908e-01
9.510565e-01	5.263158e+00	-3.090170e-01
9.510565e-01	6.315789e+00	-3.090170e-01
9.442611e-01	6.315789e+00	-3.078203e-01
[...]
CELL_DATA 760
VECTORS V double
8.414233e-01	-6.903448e-02	-1.481716e-01
8.655442e-01	-6.886090e-02	-1.539857e-01
8.835590e-01	-6.841114e-02	-1.611254e-01
8.953247e-01	-6.761674e-02	-1.677081e-01
8.977893e-01	-6.645581e-02	-1.749511e-01
8.991016e-01	-6.491071e-02	-1.814175e-01
8.920635e-01	-6.297113e-02	-1.886202e-01
8.847527e-01	-6.061299e-02	-1.948483e-01
8.704182e-01	-5.780782e-02	-2.030078e-01
8.547779e-01	-5.452303e-02	-2.103000e-01
8.294726e-01	-5.073311e-02	-2.209687e-01
7.985504e-01	-4.642389e-02	-2.294985e-01
7.512006e-01	-4.162830e-02	-2.414371e-01
6.891755e-01	-3.639753e-02	-2.458383e-01
6.025238e-01	-3.076953e-02	-2.499681e-01
4.718453e-01	-2.486712e-02	-2.257575e-01
2.701326e-01	-1.869829e-02	-1.615143e-01
-1.744368e-02	-1.242911e-02	1.337412e-02
-4.218357e-01	-5.861006e-03	5.632551e-01
-3.427084e-01	7.198861e-04	2.173820e+00
2.327119e+00	8.433410e-03	2.330445e+00
2.541778e+00	1.519851e-02	7.853319e-01
2.210612e+00	2.214506e-02	5.701770e-02
1.925570e+00	2.899275e-02	-1.726819e-01
1.720217e+00	3.598261e-02	-3.166783e-01
1.570430e+00	4.294953e-02	-3.760986e-01
1.435574e+00	4.988786e-02	-4.216412e-01
1.336754e+00	5.661910e-02	-4.390501e-01
1.250653e+00	6.302510e-02	-4.543522e-01
1.181709e+00	6.890802e-02	-4.555816e-01
1.121878e+00	7.415234e-02	-4.573300e-01
1.071620e+00	7.862096e-02	-4.520435e-01
1.027479e+00	8.225166e-02	-4.484688e-01
9.872038e-01	8.503669e-02	-4.407931e-01
9.499819e-01	8.702743e-02	-4.347800e-01
9.115294e-01	8.832181e-02	-4.245309e-01
8.743620e-01	8.904813e-02	-4.150012e-01
8.341873e-01	8.935545e-02	-4.008422e-01
7.910587e-01	8.939941e-02	-3.843268e-01
7.483073e-01	8.935374e-02	-3.651811e-01
8.268576e-01	-4.834432e-02	-1.456066e-01
8.473455e-01	-4.822001e-02	-1.507480e-01
8.618082e-01	-4.790149e-02	-1.571589e-01
8.704944e-01	-4.733767e-02	-1.630570e-01
8.702459e-01	-4.650593e-02	-1.695838e-01
8.688619e-01	-4.538743e-02	-1.753158e-01
8.588630e-01	-4.397152e-02	-1.816002e-01
8.479936e-01	-4.224318e-02	-1.867528e-01
8.293234e-01	-4.018760e-02	-1.934233e-01
8.083352e-01	-3.778960e-02	-1.988737e-01
7.765474e-01	-3.501941e-02	-2.068696e-01
7.378872e-01	-3.192748e-02	-2.120643e-01
6.815823e-01	-2.849119e-02	-2.190617e-01
6.085297e-01	-2.476563e-02	-2.170708e-01
5.087285e-01	-2.077673e-02	-2.110554e-01
3.607259e-01	-1.660757e-02	-1.725917e-01
1.373155e-01	-1.225991e-02	-8.210198e-02
-1.815717e-01	-7.847200e-03	1.392115e-01
-6.032753e-01	-3.229556e-03	8.055221e-01
-4.198780e-01	1.390102e-03	2.663312e+00
2.682646e+00	6.790427e-03	2.686479e+00
2.844218e+00	1.150659e-02	8.787767e-01
2.433349e+00	1.632082e-02	6.276268e-02
2.097407e+00	2.103020e-02	-1.880920e-01
1.860541e+00	2.579344e-02	-3.425108e-01
1.689691e+00	3.049090e-02	-4.046602e-01
1.539099e+00	3.511677e-02	-4.520476e-01
1.427838e+00	3.955292e-02	-4.689664e-01
1.330743e+00	4.372750e-02	-4.834480e-01
1.251924e+00	4.753288e-02	-4.826512e-01
1.182686e+00	5.085870e-02	-4.821180e-01
1.123352e+00	5.367623e-02	-4.738660e-01
1.070404e+00	5.593570e-02	-4.672047e-01
1.021751e+00	5.764155e-02	-4.562186e-01
9.765977e-01	5.883502e-02	-4.469613e-01
9.307660e-01	5.958694e-02	-4.334901e-01
8.867532e-01	5.998572e-02	-4.208824e-01
8.402950e-01	6.013214e-02	-4.037771e-01
7.917018e-01	6.012851e-02	-3.846393e-01
7.448103e-01	6.008521e-02	-3.634745e-01
8.205615e-01	-2.041139e-02	-1.444979e-01
8.397198e-01	-2.035955e-02	-1.493913e-01
8.527025e-01	-2.022918e-02	-1.554984e-01
8.598609e-01	-1.999313e-02	-1.610652e-01
8.580699e-01	-1.963449e-02	-1.672111e-01
8.551030e-01	-1.913659e-02	-1.725396e-01
8.434793e-01	-1.848968e-02	-1.783474e-01
8.308752e-01	-1.768843e-02	-1.829829e-01
8.103152e-01	-1.670569e-02	-1.889900e-01
7.869234e-01	-1.558539e-02	-1.936058e-01
7.528544e-01	-1.431323e-02	-2.005579e-01
7.115575e-01	-1.290402e-02	-2.044972e-01
6.517339e-01	-1.134778e-02	-2.094683e-01
5.745745e-01	-9.680707e-03	-2.049586e-01
4.697841e-01	-7.912876e-03	-1.948986e-01
3.150301e-01	-6.076751e-03	-1.507282e-01
8.302663e-02	-4.169064e-03	-4.964224e-02
-2.483766e-01	-2.237735e-03	1.904311e-01
-6.768015e-01	-2.219090e-04	9.036977e-01
-4.509213e-01	1.786491e-03	2.860221e+00
2.823758e+00	4.115739e-03	2.827793e+00
2.961953e+00	6.123838e-03	9.151530e-01
2.517979e+00	8.137436e-03	6.494553e-02
2.160710e+00	1.006139e-02	-1.937689e-01
1.910368e+00	1.195195e-02	-3.516834e-01
1.730299e+00	1.375555e-02	-4.143853e-01
1.572796e+00	1.546760e-02	-4.619448e-01
1.456134e+00	1.704748e-02	-4.782599e-01
1.354660e+00	1.847767e-02	-4.921369e-01
1.271702e+00	1.974375e-02	-4.902762e-01
1.198800e+00	2.080904e-02	-4.886868e-01
1.136484e+00	2.166938e-02	-4.794054e-01
1.080553e+00	2.230641e-02	-4.716343e-01
1.029171e+00	2.277802e-02	-4.595318e-01
9.815355e-01	2.308010e-02	-4.492212e-01
9.334892e-01	2.324475e-02	-4.347584e-01
8.875247e-01	2.330722e-02	-4.212486e-01
8.394019e-01	2.330498e-02	-4.033479e-01
7.894766e-01	2.327451e-02	-3.835582e-01
7.416757e-01	2.324771e-02	-3.619448e-01
8.181575e-01	-1.022007e-02	-1.440745e-01
8.367426e-01	-1.019902e-02	-1.488617e-01
8.489699e-01	-1.014273e-02	-1.548177e-01
8.553557e-01	-1.003690e-02	-1.602213e-01
8.527765e-01	-9.871694e-03	-1.661795e-01
8.489706e-01	-9.623771e-03	-1.713022e-01
8.364785e-01	-9.311058e-03	-1.768672e-01
8.225802e-01	-8.913561e-03	-1.811561e-01
8.009483e-01	-8.440195e-03	-1.868054e-01
7.769254e-01	-7.876273e-03	-1.911460e-01
7.415009e-01	-7.236844e-03	-1.975334e-01
6.983681e-01	-6.499241e-03	-2.007067e-01
6.368070e-01	-5.693695e-03	-2.046708e-01
5.574911e-01	-4.817478e-03	-1.988647e-01
4.500767e-01	-3.882640e-03	-1.867226e-01
2.917820e-01	-2.906614e-03	-1.396050e-01
5.530885e-02	-1.892732e-03	-3.306957e-02
-2.825330e-01	-8.590680e-04	2.166189e-01
-7.143980e-01	2.211065e-04	9.538983e-01
-4.667562e-01	1.281278e-03	2.960663e+00
2.895332e+00	2.539948e-03	2.899470e+00
3.021203e+00	3.603655e-03	9.334596e-01
2.560190e+00	4.662776e-03	6.603426e-02
2.191936e+00	5.665861e-03	-1.965692e-01
1.934681e+00	6.645490e-03	-3.561594e-01
1.749904e+00	7.565607e-03	-4.190803e-01
1.588901e+00	8.430045e-03	-4.666750e-01
1.469544e+00	9.227131e-03	-4.826645e-01
1.365874e+00	9.935890e-03	-4.962110e-01
1.281342e+00	1.055502e-02	-4.939925e-01
1.206800e+00	1.109358e-02	-4.919479e-01
1.142497e+00	1.152499e-02	-4.819419e-01
1.085248e+00	1.186314e-02	-4.736834e-01
1.032973e+00	1.210135e-02	-4.612292e-01
9.842012e-01	1.226148e-02	-4.504412e-01
9.351561e-01	1.234248e-02	-4.355347e-01
8.883142e-01	1.238646e-02	-4.216234e-01
8.394632e-01	1.239666e-02	-4.033774e-01
7.889778e-01	1.238983e-02	-3.833159e-01
7.407062e-01	1.238117e-02	-3.614717e-01
8.170297e-01	-5.652406e-03	-1.438759e-01
8.351875e-01	-5.641283e-03	-1.485850e-01
8.470047e-01	-5.609772e-03	-1.544594e-01
8.529503e-01	-5.550386e-03	-1.597707e-01
8.496151e-01	-5.454183e-03	-1.655635e-01
8.453712e-01	-5.313874e-03	-1.705759e-01
8.324947e-01	-5.142500e-03	-1.760248e-01
8.184751e-01	-4.922782e-03	-1.802520e-01
7.963138e-01	-4.657845e-03	-1.857245e-01
7.711250e-01	-4.322035e-03	-1.897190e-01
7.348582e-01	-3.931066e-03	-1.957638e-01
6.909904e-01	-3.494767e-03	-1.985864e-01
6.283781e-01	-3.023229e-03	-2.019617e-01
5.476683e-01	-2.602867e-03	-1.953608e-01
4.386914e-01	-2.059539e-03	-1.819992e-01
2.783848e-01	-1.451944e-03	-1.331950e-01
3.930602e-02	-8.425238e-04	-2.350136e-02
-3.024397e-01	-2.229398e-04	2.318814e-01
-7.359944e-01	4.248546e-04	9.827349e-01
-4.759299e-01	1.069508e-03	3.018852e+00
2.937437e+00	1.812734e-03	2.941635e+00
3.055305e+00	2.447490e-03	9.439962e-01
2.584362e+00	3.075893e-03	6.665773e-02
2.209827e+00	3.666666e-03	-1.981737e-01
1.948468e+00	4.236281e-03	-3.586974e-01
1.760853e+00	4.759553e-03	-4.217025e-01
1.597932e+00	5.245292e-03	-4.693275e-01
1.476992e+00	5.789150e-03	-4.851108e-01
1.371959e+00	6.193488e-03	-4.984217e-01
1.286311e+00	6.531926e-03	-4.959085e-01
1.210946e+00	6.812864e-03	-4.936383e-01
1.146318e+00	7.042346e-03	-4.835537e-01
1.088276e+00	7.239871e-03	-4.750051e-01
1.034942e+00	7.382320e-03	-4.621086e-01
9.854722e-01	7.480469e-03	-4.510229e-01
9.358720e-01	7.528955e-03	-4.358681e-01
8.888581e-01	7.552298e-03	-4.218815e-01
8.396034e-01	7.558725e-03	-4.034447e-01
7.887826e-01	7.554881e-03	-3.832210e-01
7.403484e-01	7.550620e-03	-3.612971e-01
8.162908e-01	-3.276975e-03	-1.437458e-01
8.342281e-01	-3.269954e-03	-1.484143e-01
8.457746e-01	-3.251082e-03	-1.542350e-01
8.513800e-01	-3.214660e-03	-1.594765e-01
8.479422e-01	-3.152993e-03	-1.652375e-01
8.435659e-01	-3.100412e-03	-1.702117e-01
8.304284e-01	-2.983304e-03	-1.755879e-01
8.156779e-01	-2.839445e-03	-1.796360e-01
7.928346e-01	-2.655273e-03	-1.849130e-01
7.673831e-01	-2.422969e-03	-1.887983e-01
7.306884e-01	-2.183624e-03	-1.946530e-01
6.862672e-01	-1.957933e-03	-1.972290e-01
6.243812e-01	-1.643865e-03	-2.006771e-01
5.432399e-01	-1.425740e-03	-1.937811e-01
4.313909e-01	-1.061286e-03	-1.789704e-01
2.693353e-01	-6.836306e-04	-1.288652e-01
2.906206e-02	-2.879489e-04	-1.737642e-02
-3.149459e-01	1.069009e-04	2.414699e-01
-7.500912e-01	5.185612e-04	1.001558e+00
-4.817633e-01	9.423723e-04	3.055854e+00
2.962847e+00	1.396944e-03	2.967081e+00
3.076719e+00	1.799137e-03	9.506123e-01
2.599412e+00	2.195407e-03	6.704591e-02
2.220661e+00	2.565620e-03	-1.991452e-01
1.956579e+00	2.915696e-03	-3.601904e-01
1.767172e+00	3.242303e-03	-4.232160e-01
1.604551e+00	3.655950e-03	-4.712713e-01
1.482641e+00	3.905673e-03	-4.869661e-01
1.375547e+00	4.156041e-03	-4.997250e-01
1.289157e+00	4.374846e-03	-4.970054e-01
1.213191e+00	4.539904e-03	-4.945534e-01
1.147949e+00	4.645594e-03	-4.842417e-01
1.089801e+00	4.740166e-03	-4.756709e-01
1.036457e+00	4.815120e-03	-4.627848e-01
9.865968e-01	4.861161e-03	-4.515376e-01
9.365322e-01	4.922694e-03	-4.361756e-01
8.890421e-01	4.931811e-03	-4.219688e-01
8.396013e-01	4.933712e-03	-4.034437e-01
7.886065e-01	4.930764e-03	-3.831355e-01
7.400538e-01	4.927656e-03	-3.611533e-01
8.158514e-01	-2.030253e-03	-1.436684e-01
8.336692e-01	-2.026214e-03	-1.483149e-01
8.450573e-01	-2.016020e-03	-1.541042e-01
8.504374e-01	-1.997404e-03	-1.593000e-01
8.473363e-01	-1.967267e-03	-1.651194e-01
8.423746e-01	-2.011220e-03	-1.699713e-01
8.284617e-01	-1.889006e-03	-1.751721e-01
8.137991e-01	-1.784218e-03	-1.792222e-01
7.906891e-01	-1.685275e-03	-1.844126e-01
7.649344e-01	-1.544280e-03	-1.881959e-01
7.287771e-01	-1.388618e-03	-1.941438e-01
6.838137e-01	-1.219144e-03	-1.965238e-01
6.209346e-01	-1.021194e-03	-1.995694e-01
5.391049e-01	-7.432095e-04	-1.923061e-01
4.266132e-01	-5.075500e-04	-1.769883e-01
2.641487e-01	-2.998053e-04	-1.263837e-01
2.240501e-02	-5.594906e-05	-1.339612e-02
-3.230707e-01	1.667353e-04	2.476992e-01
-7.589873e-01	4.281199e-04	1.013436e+00
-4.854886e-01	6.871271e-04	3.079484e+00
2.979546e+00	9.841984e-04	2.983804e+00
3.090381e+00	1.235241e-03	9.548334e-01
2.609008e+00	1.507332e-03	6.729342e-02
2.227637e+00	1.736572e-03	-1.997708e-01
1.962036e+00	1.956876e-03	-3.611950e-01
1.773648e+00	2.170462e-03	-4.247669e-01
1.607868e+00	2.396794e-03	-4.722455e-01
1.483932e+00	2.469092e-03	-4.873903e-01
1.378072e+00	2.612863e-03	-5.006423e-01
1.291153e+00	2.748468e-03	-4.977752e-01
1.214339e+00	2.860687e-03	-4.950212e-01
1.148874e+00	2.950624e-03	-4.846319e-01
1.090543e+00	3.048771e-03	-4.759947e-01
1.036699e+00	3.113926e-03	-4.628930e-01
9.871749e-01	3.234451e-03	-4.518022e-01
9.372730e-01	3.225896e-03	-4.365206e-01
8.891302e-01	3.219919e-03	-4.220107e-01
8.395996e-01	3.216952e-03	-4.034429e-01
7.885029e-01	3.213696e-03	-3.830851e-01
7.398724e-01	3.211402e-03	-3.610648e-01
8.156130e-01	-1.132473e-03	-1.436265e-01
8.333996e-01	-1.129585e-03	-1.482669e-01
8.447645e-01	-1.120764e-03	-1.540508e-01
8.501342e-01	-1.129769e-03	-1.592432e-01
8.483574e-01	-1.109635e-03	-1.653184e-01
8.420286e-01	-1.058237e-03	-1.699015e-01
8.269506e-01	-1.016997e-03	-1.748526e-01
8.127875e-01	-9.883908e-04	-1.789994e-01
7.895905e-01	-9.953446e-04	-1.841564e-01
7.634887e-01	-9.151023e-04	-1.878402e-01
7.264385e-01	-8.119471e-04	-1.935208e-01
6.813735e-01	-6.568126e-04	-1.958225e-01
6.177983e-01	-5.767464e-04	-1.985614e-01
5.355665e-01	-3.421048e-04	-1.910439e-01
4.241366e-01	-2.518798e-04	-1.759609e-01
2.610636e-01	-1.235994e-04	-1.249076e-01
1.903636e-02	1.384230e-05	-1.138198e-02
-3.272107e-01	1.560801e-04	2.508734e-01
-7.644690e-01	3.057383e-04	1.020756e+00
-4.877789e-01	4.548744e-04	3.094011e+00
2.989677e+00	6.265245e-04	2.993949e+00
3.099924e+00	7.723501e-04	9.577819e-01
2.615398e+00	9.156944e-04	6.745824e-02
2.231787e+00	1.049534e-03	-2.001430e-01
1.965293e+00	1.177278e-03	-3.617946e-01
1.774733e+00	1.297135e-03	-4.250268e-01
1.608964e+00	1.323831e-03	-4.725676e-01
1.485671e+00	1.434361e-03	-4.879614e-01
1.379189e+00	1.541139e-03	-5.010483e-01
1.292283e+00	1.601352e-03	-4.982109e-01
1.215723e+00	1.669360e-03	-4.955854e-01
1.150345e+00	1.814819e-03	-4.852524e-01
1.091991e+00	1.835439e-03	-4.766268e-01
1.039083e+00	1.877227e-03	-4.639575e-01
9.885224e-01	1.889109e-03	-4.524189e-01
9.362581e-01	1.874331e-03	-4.360479e-01
8.888294e-01	1.877335e-03	-4.218679e-01
8.394136e-01	1.899007e-03	-4.033535e-01
7.883332e-01	1.895435e-03	-3.830027e-01
7.397025e-01	1.893837e-03	-3.609819e-01
8.153667e-01	-1.364422e-03	-1.435831e-01
8.329731e-01	-1.364452e-03	-1.481911e-01
8.451761e-01	-1.365060e-03	-1.541259e-01
8.500693e-01	-1.347130e-03	-1.592310e-01
8.458409e-01	-1.305485e-03	-1.648280e-01
8.407903e-01	-1.227928e-03	-1.696516e-01
8.273970e-01	-1.131317e-03	-1.749470e-01
8.135075e-01	-1.194531e-03	-1.791580e-01
7.896791e-01	-9.751947e-04	-1.841770e-01
7.625259e-01	-1.024585e-03	-1.876033e-01
7.254042e-01	-6.679881e-04	-1.932453e-01
6.806561e-01	-7.559715e-04	-1.956164e-01
6.166269e-01	-3.206370e-04	-1.981849e-01
5.341670e-01	-3.844461e-04	-1.905447e-01
4.230928e-01	7.475239e-05	-1.755278e-01
2.592620e-01	4.143737e-04	-1.240456e-01
1.643831e-02	6.098979e-04	-9.828587e-03
-3.305320e-01	6.578578e-04	2.534199e-01
-7.672379e-01	7.044393e-04	1.024453e+00
-4.889577e-01	7.642839e-04	3.101489e+00
2.995094e+00	8.442205e-04	2.999374e+00
3.103080e+00	9.223691e-04	9.587573e-01
2.617921e+00	9.880123e-04	6.752329e-02
2.234109e+00	1.099320e-03	-2.003512e-01
1.967001e+00	1.033576e-03	-3.621091e-01
1.776060e+00	8.504489e-04	-4.253444e-01
1.610009e+00	4.697644e-04	-4.728745e-01
1.486946e+00	6.307721e-04	-4.883802e-01
1.380238e+00	3.134224e-04	-5.014293e-01
1.292773e+00	4.429289e-04	-4.983995e-01
1.217006e+00	1.479670e-04	-4.961084e-01
1.151022e+00	2.985217e-04	-4.855379e-01
1.091366e+00	3.935956e-05	-4.763538e-01
1.037490e+00	9.517017e-05	-4.632462e-01
9.871568e-01	-1.224946e-04	-4.517939e-01
9.370240e-01	-6.462218e-05	-4.364047e-01
8.896386e-01	-7.900520e-05	-4.222520e-01
8.402966e-01	-8.496668e-05	-4.037778e-01
7.882319e-01	-7.989055e-05	-3.829535e-01
7.396278e-01	-7.881785e-05	-3.609454e-01
8.156180e-01	2.931468e-05	-1.436273e-01
8.334417e-01	1.173842e-05	-1.482744e-01
8.440720e-01	1.031126e-05	-1.539245e-01
8.485815e-01	3.198737e-05	-1.589523e-01
8.458956e-01	2.993417e-05	-1.648387e-01
8.390065e-01	2.912061e-05	-1.692917e-01
8.265561e-01	2.787818e-05	-1.747692e-01
8.104446e-01	2.889372e-05	-1.784835e-01
7.873694e-01	7.158885e-05	-1.836383e-01
7.594304e-01	6.003013e-05	-1.868417e-01
7.228915e-01	5.197317e-05	-1.925759e-01
6.768795e-01	1.921294e-05	-1.945310e-01
6.124098e-01	-7.142766e-06	-1.968295e-01
5.300593e-01	-2.547063e-06	-1.890794e-01
4.109948e-01	3.033671e-05	-1.705087e-01
2.509574e-01	-9.330622e-07	-1.200722e-01
1.346479e-02	3.677064e-06	-8.050699e-03
-3.296430e-01	7.398892e-06	2.527382e-01
-7.673317e-01	9.779665e-06	1.024578e+00
-4.892708e-01	1.116189e-05	3.103474e+00
2.997515e+00	1.207655e-05	3.001799e+00
3.106137e+00	1.246974e-05	9.597017e-01
2.621357e+00	1.245175e-05	6.761191e-02
2.232407e+00	1.160287e-05	-2.001985e-01
1.960079e+00	4.554427e-05	-3.608349e-01
1.764842e+00	4.337013e-05	-4.226580e-01
1.606031e+00	1.146980e-05	-4.717062e-01
1.483289e+00	6.580045e-05	-4.871791e-01
1.376855e+00	5.505824e-05	-5.002004e-01
1.290162e+00	4.510088e-05	-4.973932e-01
1.213888e+00	3.818326e-05	-4.948374e-01
1.149060e+00	-4.711106e-06	-4.847103e-01
1.089149e+00	-5.543497e-07	-4.753864e-01
1.036950e+00	-8.029063e-07	-4.630052e-01
9.856780e-01	1.036112e-06	-4.511171e-01
9.371890e-01	1.666800e-06	-4.364815e-01
8.883411e-01	3.272189e-06	-4.216361e-01
8.393227e-01	-1.889532e-05	-4.033099e-01
7.886807e-01	-1.769110e-05	-3.831715e-01
7.398668e-01	-1.476643e-07	-3.610621e-01
8.183164e-01	1.462532e-03	-1.441025e-01
8.336730e-01	1.462770e-03	-1.483156e-01
8.443575e-01	1.464135e-03	-1.539766e-01
8.496575e-01	1.448221e-03	-1.591539e-01
8.458962e-01	1.409285e-03	-1.648388e-01
8.408262e-01	1.422099e-03	-1.696589e-01
8.273988e-01	1.282834e-03	-1.749474e-01
8.128682e-01	1.344107e-03	-1.790172e-01
7.892735e-01	1.075079e-03	-1.840824e-01
7.627831e-01	1.128141e-03	-1.876666e-01
7.259359e-01	7.803731e-04	-1.933869e-01
6.814464e-01	7.944610e-04	-1.958435e-01
6.169433e-01	3.641650e-04	-1.982866e-01
5.336297e-01	4.551613e-04	-1.903530e-01
4.229991e-01	-3.949792e-05	-1.754889e-01
2.598122e-01	-3.800694e-04	-1.243089e-01
1.625799e-02	-5.774069e-04	-9.720774e-03
-3.306942e-01	-6.027240e-04	2.535442e-01
-7.673474e-01	-6.540189e-04	1.024599e+00
-4.889838e-01	-7.478608e-04	3.101654e+00
2.995154e+00	-8.347738e-04	2.999434e+00
3.103093e+00	-8.902314e-04	9.587612e-01
2.617888e+00	-9.876896e-04	6.752246e-02
2.235030e+00	-1.103147e-03	-2.004338e-01
1.967576e+00	-1.042640e-03	-3.622150e-01
1.775442e+00	-8.322133e-04	-4.251965e-01
1.610412e+00	-4.883136e-04	-4.729929e-01
1.487523e+00	-6.572992e-04	-4.885694e-01
1.379968e+00	-3.518357e-04	-5.013313e-01
1.292560e+00	-4.149098e-04	-4.983175e-01
1.216384e+00	-1.335967e-04	-4.958552e-01
1.150516e+00	-2.321685e-04	-4.853248e-01
1.091420e+00	-1.979796e-05	-4.763774e-01
1.037511e+00	-1.205615e-04	-4.632557e-01
9.871975e-01	-1.088949e-05	-4.518125e-01
9.370639e-01	-4.412532e-05	-4.364232e-01
8.892388e-01	-1.813479e-05	-4.220622e-01
8.395233e-01	-9.365286e-06	-4.034062e-01
7.888565e-01	-1.375933e-05	-3.832569e-01
7.423145e-01	-1.475069e-05	-3.622565e-01
8.155782e-01	1.284811e-03	-1.436203e-01
8.333412e-01	1.299545e-03	-1.482565e-01
8.446645e-01	1.292318e-03	-1.540326e-01
8.500149e-01	1.286663e-03	-1.592208e-01
8.463243e-01	1.175381e-03	-1.649222e-01
8.413580e-01	1.151167e-03	-1.697662e-01
8.276060e-01	1.110520e-03	-1.749912e-01
8.135420e-01	1.051350e-03	-1.791656e-01
7.901969e-01	1.018939e-03	-1.842978e-01
7.633243e-01	9.327198e-04	-1.877997e-01
7.272827e-01	8.368043e-04	-1.937457e-01
6.823131e-01	7.592877e-04	-1.960926e-01
6.173600e-01	6.717410e-04	-1.984205e-01
5.356445e-01	5.156986e-04	-1.910717e-01
4.247662e-01	3.742053e-04	-1.762220e-01
2.611131e-01	2.604322e-04	-1.249313e-01
1.865187e-02	1.051150e-04	-1.115209e-02
-3.277837e-01	-5.210614e-05	2.513127e-01
-7.635659e-01	-2.150186e-04	1.019550e+00
-4.872783e-01	-3.761124e-04	3.090836e+00
2.990716e+00	-5.609890e-04	2.994990e+00
3.099031e+00	-7.180137e-04	9.575063e-01
2.614379e+00	-8.724082e-04	6.743195e-02
2.231551e+00	-1.016108e-03	-2.001218e-01
1.965794e+00	-1.187947e-03	-3.618870e-01
1.774500e+00	-1.313201e-03	-4.249708e-01
1.608307e+00	-1.429418e-03	-4.723745e-01
1.485394e+00	-1.567714e-03	-4.878703e-01
1.379921e+00	-1.660134e-03	-5.013142e-01
1.292944e+00	-1.732486e-03	-4.984655e-01
1.216198e+00	-1.793746e-03	-4.957793e-01
1.150435e+00	-1.879009e-03	-4.852904e-01
1.090768e+00	-1.911063e-03	-4.760928e-01
1.036932e+00	-1.927823e-03	-4.629970e-01
9.870503e-01	-1.947126e-03	-4.517452e-01
9.369530e-01	-1.965958e-03	-4.363716e-01
8.891836e-01	-1.882882e-03	-4.220360e-01
8.395321e-01	-1.892995e-03	-4.034105e-01
7.883779e-01	-1.892572e-03	-3.830244e-01
7.397150e-01	-1.909052e-03	-3.609880e-01
8.158436e-01	2.145813e-03	-1.436671e-01
8.336564e-01	2.141442e-03	-1.483126e-01
8.447754e-01	2.134724e-03	-1.540528e-01
8.528918e-01	2.035447e-03	-1.597597e-01
8.484571e-01	2.003089e-03	-1.653378e-01
8.419622e-01	1.966295e-03	-1.698881e-01
8.289476e-01	1.886769e-03	-1.752748e-01
8.141567e-01	1.791669e-03	-1.793010e-01
7.908859e-01	1.693303e-03	-1.844585e-01
7.651742e-01	1.548254e-03	-1.882549e-01
7.282049e-01	1.380100e-03	-1.939913e-01
6.836457e-01	1.276503e-03	-1.964756e-01
6.203002e-01	1.053904e-03	-1.993655e-01
5.380675e-01	8.436799e-04	-1.919360e-01