# vtk DataFile Version 2.0
OUTPUT by 3D-VPM
ASCII
DATASET UNSTRUCTURED_GRID
POINTS 820 double
9.510565e-01	0.000000e+00	-3.090170e-01
9.442611e-01	0.000000e+00	-3.078203e-01
9.267277e-01	0.000000e+00	-3.047010e-01
8.963175e-01	0.000000e+00	-2.991555e-01
8.562911e-01	0.000000e+00	-2.916579e-01
8.054250e-01	0.000000e+00	-2.817457e-01
7.470317e-01	0.000000e+00	-2.699633e-01
6.809074e-01	0.000000e+00	-2.559818e-01
6.100852e-01	0.000000e+00	-2.403847e-01
5.354138e-01	0.000000e+00	-2.229691e-01
4.593635e-01	0.000000e+00	-2.042585e-01
3.837764e-01	0.000000e+00	-1.841224e-01
3.103069e-01	0.000000e+00	-1.630077e-01
2.415927e-01	0.000000e+00	-1.409228e-01
1.782654e-01	0.000000e+00	-1.183331e-01
1.234349e-01	0.000000e+00	-9.558566e-02
7.662509e-02	0.000000e+00	-7.318920e-02
4.106998e-02	0.000000e+00	-5.193053e-02
1.528206e-02	0.000000e+00	-3.215886e-02
2.347037e-03	0.000000e+00	-1.488740e-02
0.000000e+00	0.000000e+00	0.000000e+00
1.064939e-02	0.000000e+00	1.066461e-02
3.126595e-02	0.000000e+00	1.703450e-02
6.375031e-02	0.000000e+00	1.787236e-02
1.050105e-01	0.000000e+00	1.417221e-02
1.560448e-01	0.000000e+00	4.777214e-03
2.137742e-01	0.000000e+00	-9.048270e-03
2.782849e-01	0.000000e+00	-2.799567e-02
3.468570e-01	0.000000e+00	-5.051783e-02
4.187060e-01	0.000000e+00	-7.662000e-02
4.916930e-01	0.000000e+00	-1.047585e-01
5.642168e-01	0.000000e+00	-1.343226e-01
6.348639e-01	0.000000e+00	-1.641238e-01
7.013280e-01	0.000000e+00	-1.931337e-01
7.630418e-01	0.000000e+00	-2.206893e-01
8.172084e-01	0.000000e+00	-2.454799e-01
8.641863e-01	0.000000e+00	-2.673591e-01
9.009752e-01	0.000000e+00	-2.848204e-01
9.288372e-01	0.000000e+00	-2.982085e-01
9.448555e-01	0.000000e+00	-3.059908e-01
9.510565e-01	0.000000e+00	-3.090170e-01
9.510565e-01	1.052632e+00	-3.090170e-01
9.442611e-01	1.052632e+00	-3.078203e-01
9.267277e-01	1.052632e+00	-3.047010e-01
8.963175e-01	1.052632e+00	-2.991555e-01
8.562911e-01	1.052632e+00	-2.916579e-01
8.054250e-01	1.052632e+00	-2.817457e-01
7.470317e-01	1.052632e+00	-2.699633e-01
6.809074e-01	1.052632e+00	-2.559818e-01
6.100852e-01	1.052632e+00	-2.403847e-01
5.354138e-01	1.052632e+00	-2.229691e-01
4.593635e-01	1.052632e+00	-2.042585e-01
3.837764e-01	1.052632e+00	-1.841224e-01
3.103069e-01	1.052632e+00	-1.630077e-01
2.415927e-01	1.052632e+00	-1.409228e-01
1.782654e-01	1.052632e+00	-1.183331e-01
1.234349e-01	1.052632e+00	-9.558566e-02
7.662509e-02	1.052632e+00	-7.318920e-02
4.106998e-02	1.052632e+00	-5.193053e-02
1.528206e-02	1.052632e+00	-3.215886e-02
2.347037e-03	1.052632e+00	-1.488740e-02
0.000000e+00	1.052632e+00	0.000000e+00
1.064939e-02	1.052632e+00	1.066461e-02
3.126595e-02	1.052632e+00	1.703450e-02
6.375031e-02	1.052632e+00	1.787236e-02
1.050105e-01	1.052632e+00	1.417221e-02
1.560448e-01	1.052632e+00	4.777214e-03
2.137742e-01	1.052632e+00	-9.048270e-03
2.782849e-01	1.052632e+00	-2.799567e-02
3.468570e-01	1.052632e+00	-5.051783e-02
4.187060e-01	1.052632e+00	-7.662000e-02
4.916930e-01	1.052632e+00	-1.047585e-01
5.642168e-01	1.052632e+00	-1.343226e-01
6.348639e-01	1.052632e+00	-1.641238e-01
7.013280e-01	1.052632e+00	-1.931337e-01
7.630418e-01	1.052632e+00	-2.206893e-01
8.172084e-01	1.052632e+00	-2.454799e-01
8.641863e-01	1.052632e+00	-2.673591e-01
9.009752e-01	1.052632e+00	-2.848204e-01
9.288372e-01	1.052632e+00	-2.982085e-01
9.448555e-01	1.052632e+00	-3.059908e-01
9.510565e-01	1.052632e+00	-3.090170e-01
9.510565e-01	2.105263e+00	-3.090170e-01
9.442611e-01	2.105263e+00	-3.078203e-01
9.267277e-01	2.105263e+00	-3.047010e-01
8.963175e-01	2.105263e+00	-2.991555e-01
8.562911e-01	2.105263e+00	-2.916579e-01
8.054250e-01	2.105263e+00	-2.817457e-01
7.470317e-01	2.105263e+00	-2.699633e-01
6.809074e-01	2.105263e+00	-2.559818e-01
6.100852e-01	2.105263e+00	-2.403847e-01
5.354138e-01	2.105263e+00	-2.229691e-01
4.593635e-01	2.105263e+00	-2.042585e-01
3.837764e-01	2.105263e+00	-1.841224e-01
3.103069e-01	2.105263e+00	-1.630077e-01
2.415927e-01	2.105263e+00	-1.409228e-01
1.782654e-01	2.105263e+00	-1.183331e-01
1.234349e-01	2.105263e+00	-9.558566e-02
7.662509e-02	2.105263e+00	-7.318920e-02
4.106998e-02	2.105263e+00	-5.193053e-02
1.528206e-02	2.105263e+00	-3.215886e-02
2.347037e-03	2.105263e+00	-1.488740e-02
0.000000e+00	2.105263e+00	0.000000e+00
1.064939e-02	2.105263e+00	1.066461e-02
3.126595e-02	2.105263e+00	1.703450e-02
6.375031e-02	2.105263e+00	1.787236e-02
1.050105e-01	2.105263e+00	1.417221e-02
1.560448e-01	2.105263e+00	4.777214e-03
2.137742e-01	2.105263e+00	-9.048270e-03
2.782849e-01	2.105263e+00	-2.799567e-02
3.468570e-01	2.105263e+00	-5.051783e-02
4.187060e-01	2.105263e+00	-7.662000e-02
4.916930e-01	2.105263e+00	-1.047585e-01
5.642168e-01	2.105263e+00	-1.343226e-01
6.348639e-01	2.105263e+00	-1.641238e-01
7.013280e-01	2.105263e+00	-1.931337e-01
7.630418e-01	2.105263e+00	-2.206893e-01
8.172084e-01	2.105263e+00	-2.454799e-01
8.641863e-01	2.105263e+00	-2.673591e-01
9.009752e-01	2.105263e+00	-2.848204e-01
9.288372e-01	2.105263e+00	-2.982085e-01
9.448555e-01	2.105263e+00	-3.059908e-01
9.510565e-01	2.105263e+00	-3.090170e-01
9.510565e-01	3.157895e+00	-3.090170e-01
9.442611e-01	3.157895e+00	-3.078203e-01
9.267277e-01	3.157895e+00	-3.047010e-01
8.963175e-01	3.157895e+00	-2.991555e-01
8.562911e-01	3.157895e+00	-2.916579e-01
8.054250e-01	3.157895e+00	-2.817457e-01
7.470317e-01	3.157895e+00	-2.699633e-01
6.809074e-01	3.157895e+00	-2.559818e-01
6.100852e-01	3.157895e+00	-2.403847e-01
5.354138e-01	3.157895e+00	-2.229691e-01
4.593635e-01	3.157895e+00	-2.042585e-01
3.837764e-01	3.157895e+00	-1.841224e-01
3.103069e-01	3.157895e+00	-1.630077e-01
2.415927e-01	3.157895e+00	-1.409228e-01
1.782654e-01	3.157895e+00	-1.183331e-01
1.234349e-01	3.157895e+00	-9.558566e-02
7.662509e-02	3.157895e+00	-7.318920e-02
4.106998e-02	3.157895e+00	-5.193053e-02
1.528206e-02	3.157895e+00	-3.215886e-02
2.347037e-03	3.157895e+00	-1.488740e-02
0.000000e+00	3.157895e+00	0.000000e+00
1.064939e-02	3.157895e+00	1.066461e-02
3.126595e-02	3.157895e+00	1.703450e-02
6.375031e-02	3.157895e+00	1.787236e-02
1.050105e-01	3.157895e+00	1.417221e-02
1.560448e-01	3.157895e+00	4.777214e-03
2.137742e-01	3.157895e+00	-9.048270e-03
2.782849e-01	3.157895e+00	-2.799567e-02
3.468570e-01	3.157895e+00	-5.051783e-02
4.187060e-01	3.157895e+00	-7.662000e-02
4.916930e-01	3.157895e+00	-1.047585e-01
5.642168e-01	3.157895e+00	-1.343226e-01
6.348639e-01	3.157895e+00	-1.641238e-01
7.013280e-01	3.157895e+00	-1.931337e-01
7.630418e-01	3.157895e+00	-2.206893e-01
8.172084e-01	3.157895e+00	-2.454799e-01
8.641863e-01	3.157895e+00	-2.673591e-01
9.009752e-01	3.157895e+00	-2.848204e-01
9.288372e-01	3.157895e+00	-2.982085e-01
9.448555e-01	3.157895e+00	-3.059908e-01
9.510565e-01	3.157895e+00	-3.090170e-01
9.510565e-01	4.210526e+00	-3.090170e-01
9.442611e-01	4.210526e+00	-3.078203e-01
9.267277e-01	4.210526e+00	-3.047010e-01
8.963175e-01	4.210526e+00	-2.991555e-01
8.562911e-01	4.210526e+00	-2.916579e-01
8.054250e-01	4.210526e+00	-2.817457e-01
7.470317e-01	4.210526e+00	-2.699633e-01
6.809074e-01	4.210526e+00	-2.559818e-01
6.100852e-01	4.210526e+00	-2.403847e-01
5.354138e-01	4.210526e+00	-2.229691e-01
4.593635e-01	4.210526e+00	-2.042585e-01
3.837764e-01	4.210526e+00	-1.841224e-01
3.103069e-01	4.210526e+00	-1.630077e-01
2.415927e-01	4.210526e+00	-1.409228e-01
1.782654e-01	4.210526e+00	-1.183331e-01
1.234349e-01	4.210526e+00	-9.558566e-02
7.662509e-02	4.210526e+00	-7.318920e-02
4.106998e-02	4.210526e+00	-5.193053e-02
1.528206e-02	4.210526e+00	-3.215886e-02
2.347037e-03	4.210526e+00	-1.488740e-02
0.000000e+00	4.210526e+00	0.000000e+00
1.064939e-02	4.210526e+00	1.066461e-02
3.126595e-02	4.210526e+00	1.703450e-02
6.375031e-02	4.210526e+00	1.787236e-02
1.050105e-01	4.210526e+00	1.417221e-02
1.560448e-01	4.210526e+00	4.777214e-03
2.137742e-01	4.210526e+00	-9.048270e-03
2.782849e-01	4.210526e+00	-2.799567e-02
3.468570e-01	4.210526e+00	-5.051783e-02
4.187060e-01	4.210526e+00	-7.662000e-02
4.916930e-01	4.210526e+00	-1.047585e-01
5.642168e-01	4.210526e+00	-1.343226e-01
6.348639e-01	4.210526e+00	-1.641238e-01
7.013280e-01	4.210526e+00	-1.931337e-01
7.630418e-01	4.210526e+00	-2.206893e-01
8.172084e-01	4.210526e+00	-2.454799e-01
8.641863e-01	4.210526e+00	-2.673591e-01
9.009752e-01	4.210526e+00	-2.848204e-01
9.288372e-01	4.210526e+00	-2.982085e-01
9.448555e-01	4.210526e+00	-3.059908e-01
9.510565e-01	4.210526e+00	-3.090170e-01
9.510565e-01	5.263158e+00	-3.090170e-01
9.442611e-01	5.263158e+00	-3.078203e-01
9.267277e-01	5.263158e+00	-3.047010e-01
8.963175e-01	5.263158e+00	-2.991555e-01
8.562911e-01	5.263158e+00	-2.916579e-01
8.054250e-01	5.263158e+00	-2.817457e-01
7.470317e-01	5.263158e+00	-2.699633e-01
6.809074e-01	5.263158e+00	-2.559818e-01
6.100852e-01	5.263158e+00	-2.403847e-01
5.354138e-01	5.263158e+00	-2.229691e-01
4.593635e-01	5.263158e+00	-2.042585e-01
3.837764e-01	5.263158e+00	-1.841224e-01
3.103069e-01	5.263158e+00	-1.630077e-01
2.415927e-01	5.263158e+00	-1.409228e-01
1.782654e-01	5.263158e+00	-1.183331e-01
1.234349e-01	5.263158e+00	-9.558566e-02
7.662509e-02	5.263158e+00	-7.318920e-02
4.106998e-02	5.263158e+00	-5.193053e-02
1.528206e-02	5.263158e+00	-3.215886e-02
2.347037e-03	5.263158e+00	-1.488740e-02
0.000000e+00	5.263158e+00	0.000000e+00
1.064939e-02	5.263158e+00	1.066461e-02
3.126595e-02	5.263158e+00	1.703450e-02
6.375031e-02	5.263158e+00	1.787236e-02
1.050105e-01	5.263158e+00	1.417221e-02
1.560448e-01	5.263158e+00	4.777214e-03
2.137742e-01	5.263158e+00	-9.048270e-03
2.782849e-01	5.263158e+00	-2.799567e-02
3.468570e-01	5.263158e+00	-5.051783e-02
4.187060e-01	5.263158e+00	-7.662000e-02
4.916930e-01	5.263158e+00	-1.047585e-01
5.642168e-01	5.263158e+00	-1.343226e-01
6.348639e-01	5.263158e+00	-1.641238e-01
7.013280e-01	5.263158e+00	-1.931337e-01
7.630418e-01	5.263158e+00	-2.206893e-01
8.172084e-01	5.263158e+00	-2.454799e-01
8.641863e-01	5.263158e+00	-2.673591e-01
9.009752e-01	5.263158e+00	-2.848204e-01
9.288372e-01	5.263158e+00	-2.982085e-01
9.448555e-01	5.263158e+00	-3.059908e-01
9.510565e-01	5.263158e+00	-3.090170e-01
9.510565e-01	6.315789e+00	-3.090170e-01
9.442611e-01	6.315789e+00	-3.078203e-01
[...]
CELL_DATA 760
VECTORS V double
8.414580e-01	-6.898705e-02	-1.481777e-01
8.655879e-01	-6.881357e-02	-1.539934e-01
8.836159e-01	-6.836413e-02	-1.611358e-01
8.953969e-01	-6.757026e-02	-1.677216e-01
8.978783e-01	-6.641009e-02	-1.749685e-01
8.992085e-01	-6.486600e-02	-1.814390e-01
8.921892e-01	-6.292765e-02	-1.886468e-01
8.848981e-01	-6.057111e-02	-1.948803e-01
8.705849e-01	-5.776798e-02	-2.030467e-01
8.549140e-01	-5.448580e-02	-2.103335e-01
8.296979e-01	-5.069566e-02	-2.210287e-01
7.988679e-01	-4.639420e-02	-2.295897e-01
7.514953e-01	-4.160344e-02	-2.415318e-01
6.895197e-01	-3.637807e-02	-2.459611e-01
6.029288e-01	-3.075598e-02	-2.501361e-01
4.723328e-01	-2.485977e-02	-2.259908e-01
2.707240e-01	-1.869738e-02	-1.618679e-01
-1.670419e-02	-1.243470e-02	1.280715e-02
-4.210143e-01	-5.873175e-03	5.621585e-01
-3.423627e-01	7.012517e-04	2.171627e+00
2.325572e+00	8.407482e-03	2.328896e+00
2.540527e+00	1.516644e-02	7.849454e-01
2.209747e+00	2.210680e-02	5.699538e-02
1.924952e+00	2.894862e-02	-1.726265e-01
1.719757e+00	3.593265e-02	-3.165935e-01
1.570077e+00	4.289390e-02	-3.760141e-01
1.435298e+00	4.982658e-02	-4.215603e-01
1.336535e+00	5.655220e-02	-4.389783e-01
1.250486e+00	6.295256e-02	-4.542916e-01
1.181589e+00	6.883004e-02	-4.555353e-01
1.121793e+00	7.406941e-02	-4.572954e-01
1.071558e+00	7.853350e-02	-4.520175e-01
1.027433e+00	8.216013e-02	-4.484486e-01
9.871710e-01	8.494175e-02	-4.407784e-01
9.499611e-01	8.692976e-02	-4.347704e-01
9.115190e-01	8.822219e-02	-4.245261e-01
8.743608e-01	8.894723e-02	-4.150006e-01
8.341936e-01	8.925384e-02	-4.008452e-01
7.910706e-01	8.929755e-02	-3.843327e-01
7.483242e-01	8.925183e-02	-3.651894e-01
8.269006e-01	-4.832010e-02	-1.456142e-01
8.474016e-01	-4.819589e-02	-1.507580e-01
8.618798e-01	-4.787764e-02	-1.571720e-01
8.705831e-01	-4.731427e-02	-1.630736e-01
8.703529e-01	-4.648318e-02	-1.696046e-01
8.689883e-01	-4.536554e-02	-1.753413e-01
8.590106e-01	-4.395073e-02	-1.816314e-01
8.481650e-01	-4.222378e-02	-1.867906e-01
8.295215e-01	-4.016993e-02	-1.934695e-01
8.084870e-01	-3.777410e-02	-1.989111e-01
7.768216e-01	-3.501113e-02	-2.069427e-01
7.382891e-01	-3.191709e-02	-2.121798e-01
6.819480e-01	-2.848365e-02	-2.191792e-01
6.089577e-01	-2.476135e-02	-2.172235e-01
5.092321e-01	-2.077611e-02	-2.112643e-01
3.613298e-01	-1.661085e-02	-1.728806e-01
1.380451e-01	-1.226728e-02	-8.253821e-02
-1.806645e-01	-7.858741e-03	1.385160e-01
-6.022737e-01	-3.245379e-03	8.041847e-01
-4.194577e-01	1.370037e-03	2.660646e+00
2.680770e+00	6.765533e-03	2.684601e+00
2.842696e+00	1.147760e-02	8.783063e-01
2.432289e+00	1.628772e-02	6.273535e-02
2.096645e+00	2.099319e-02	-1.880236e-01
1.859966e+00	2.575262e-02	-3.424048e-01
1.689241e+00	3.044643e-02	-4.045524e-01
1.538739e+00	3.506881e-02	-4.519417e-01
1.427541e+00	3.950170e-02	-4.688689e-01
1.330503e+00	4.367335e-02	-4.833612e-01
1.251738e+00	4.747768e-02	-4.825797e-01
1.182541e+00	5.079846e-02	-4.820592e-01
1.123236e+00	5.361274e-02	-4.738168e-01
1.070308e+00	5.586958e-02	-4.671627e-01
1.021674e+00	5.757340e-02	-4.561842e-01
9.765390e-01	5.876537e-02	-4.469344e-01
9.307252e-01	5.951627e-02	-4.334711e-01
8.867286e-01	5.991444e-02	-4.208708e-01
8.402853e-01	6.006057e-02	-4.037724e-01
7.917050e-01	6.005688e-02	-3.846409e-01
7.448232e-01	6.001358e-02	-3.634808e-01
8.206130e-01	-2.041587e-02	-1.445069e-01
8.397854e-01	-2.036417e-02	-1.494030e-01
8.527846e-01	-2.023339e-02	-1.555134e-01
8.599611e-01	-1.999811e-02	-1.610839e-01
8.581895e-01	-1.963954e-02	-1.672344e-01
8.552440e-01	-1.914205e-02	-1.725680e-01
8.436435e-01	-1.849585e-02	-1.783822e-01
8.310651e-01	-1.769549e-02	-1.830247e-01
8.105346e-01	-1.671413e-02	-1.890412e-01
7.871832e-01	-1.560097e-02	-1.936697e-01
7.531471e-01	-1.432964e-02	-2.006359e-01
7.118833e-01	-1.291472e-02	-2.045909e-01
6.521135e-01	-1.135929e-02	-2.095903e-01
5.750214e-01	-9.693168e-03	-2.051180e-01
4.703119e-01	-7.926450e-03	-1.951175e-01
3.156646e-01	-6.091564e-03	-1.510318e-01
8.379440e-02	-4.185231e-03	-5.010129e-02
-2.474204e-01	-2.255325e-03	1.896979e-01
-6.757447e-01	-2.410241e-04	9.022866e-01
-4.504774e-01	1.765832e-03	2.857406e+00
2.821774e+00	4.093278e-03	2.825807e+00
2.960340e+00	6.099825e-03	9.146549e-01
2.516855e+00	8.111886e-03	6.491655e-02
2.159901e+00	1.003439e-02	-1.936964e-01
1.909757e+00	1.192361e-02	-3.515710e-01
1.729824e+00	1.372603e-02	-4.142714e-01
1.572419e+00	1.543710e-02	-4.618339e-01
1.455829e+00	1.701632e-02	-4.781600e-01
1.354441e+00	1.844637e-02	-4.920576e-01
1.271505e+00	1.971223e-02	-4.902002e-01
1.198611e+00	2.077727e-02	-4.886098e-01
1.136347e+00	2.163606e-02	-4.793477e-01
1.080444e+00	2.227222e-02	-4.715869e-01
1.029087e+00	2.274322e-02	-4.594943e-01
9.814739e-01	2.304506e-02	-4.491930e-01
9.334479e-01	2.320971e-02	-4.347391e-01
8.875020e-01	2.327234e-02	-4.212379e-01
8.393960e-01	2.327004e-02	-4.033451e-01
7.894848e-01	2.323893e-02	-3.835622e-01
7.416943e-01	2.321221e-02	-3.619539e-01
8.182236e-01	-1.023837e-02	-1.440862e-01
8.367761e-01	-1.021746e-02	-1.488676e-01
8.490610e-01	-1.016165e-02	-1.548343e-01
8.554629e-01	-1.005692e-02	-1.602413e-01
8.528938e-01	-9.905089e-03	-1.662024e-01
8.491168e-01	-9.642186e-03	-1.713317e-01
8.366509e-01	-9.327341e-03	-1.769036e-01
8.227839e-01	-8.928377e-03	-1.812009e-01
8.012626e-01	-8.453965e-03	-1.868787e-01
7.771812e-01	-7.889087e-03	-1.912089e-01
7.417118e-01	-7.248540e-03	-1.975896e-01
6.987030e-01	-6.510729e-03	-2.008029e-01
6.371971e-01	-5.705179e-03	-2.047962e-01
5.579497e-01	-4.829852e-03	-1.990283e-01
4.506185e-01	-3.896027e-03	-1.869473e-01
2.924335e-01	-2.925163e-03	-1.399168e-01
5.609762e-02	-1.907248e-03	-3.354119e-02
-2.815505e-01	-8.735427e-04	2.158656e-01
-7.133118e-01	1.926747e-04	9.524480e-01
-4.662998e-01	1.267496e-03	2.957768e+00
2.893292e+00	2.508677e-03	2.897427e+00
3.019545e+00	3.571630e-03	9.329473e-01
2.559034e+00	4.642995e-03	6.600446e-02
2.191105e+00	5.644677e-03	-1.964947e-01
1.934055e+00	6.623140e-03	-3.560440e-01
1.749416e+00	7.542209e-03	-4.189636e-01
1.588516e+00	8.405723e-03	-4.665618e-01
1.469237e+00	9.194952e-03	-4.825635e-01
1.365630e+00	9.910704e-03	-4.961224e-01
1.281150e+00	1.052791e-02	-4.939187e-01
1.206633e+00	1.106884e-02	-4.918799e-01
1.142349e+00	1.150115e-02	-4.818797e-01
1.085131e+00	1.184077e-02	-4.736326e-01
1.032883e+00	1.208102e-02	-4.611892e-01
9.841385e-01	1.224451e-02	-4.504125e-01
9.351179e-01	1.233092e-02	-4.355169e-01
8.882925e-01	1.237193e-02	-4.216131e-01
8.394355e-01	1.238056e-02	-4.033640e-01
7.889435e-01	1.237338e-02	-3.832992e-01
7.407319e-01	1.236466e-02	-3.614842e-01
8.171033e-01	-5.665820e-03	-1.438889e-01
8.352906e-01	-5.654762e-03	-1.486033e-01
8.471433e-01	-5.624244e-03	-1.544846e-01
8.534481e-01	-5.565313e-03	-1.598639e-01
8.496497e-01	-5.470999e-03	-1.655702e-01
8.452320e-01	-5.350624e-03	-1.705479e-01
8.326040e-01	-5.158219e-03	-1.760480e-01
8.186295e-01	-4.936236e-03	-1.802860e-01
7.965063e-01	-4.669721e-03	-1.857693e-01
7.713576e-01	-4.327184e-03	-1.897762e-01
7.351335e-01	-3.942169e-03	-1.958371e-01
6.913133e-01	-3.506242e-03	-1.986792e-01
6.287697e-01	-3.034898e-03	-2.020876e-01
5.481435e-01	-2.614905e-03	-1.955303e-01
4.393155e-01	-2.072032e-03	-1.822581e-01
2.790550e-01	-1.465693e-03	-1.335157e-01
3.997678e-02	-8.568812e-04	-2.390241e-02
-3.011840e-01	-2.375042e-04	2.309186e-01
-7.347951e-01	3.962907e-04	9.811336e-01
-4.755166e-01	1.041292e-03	3.016231e+00
2.934693e+00	1.783823e-03	2.938887e+00
3.054316e+00	2.431772e-03	9.436905e-01
2.583518e+00	3.058013e-03	6.663596e-02
2.208955e+00	3.647013e-03	-1.980955e-01
1.947814e+00	4.215195e-03	-3.585769e-01
1.760344e+00	4.737701e-03	-4.215806e-01
1.597417e+00	5.222640e-03	-4.691760e-01
1.476682e+00	5.765588e-03	-4.850090e-01
1.371805e+00	6.169069e-03	-4.983656e-01
1.286120e+00	6.507065e-03	-4.958347e-01
1.210799e+00	6.787696e-03	-4.935781e-01
1.146211e+00	7.018661e-03	-4.835088e-01
1.088213e+00	7.218185e-03	-4.749779e-01
1.034935e+00	7.363946e-03	-4.621054e-01
9.855488e-01	7.467091e-03	-4.510579e-01
9.358905e-01	7.511841e-03	-4.358767e-01
8.887277e-01	7.532620e-03	-4.218196e-01
8.395315e-01	7.538424e-03	-4.034102e-01
7.887672e-01	7.535094e-03	-3.832136e-01
7.403587e-01	7.530779e-03	-3.613021e-01
8.163677e-01	-3.268541e-03	-1.437594e-01
8.343311e-01	-3.261425e-03	-1.484327e-01
8.459105e-01	-3.242112e-03	-1.542598e-01
8.515498e-01	-3.203244e-03	-1.595084e-01
8.485316e-01	-3.150467e-03	-1.653523e-01
8.436466e-01	-3.090917e-03	-1.702280e-01
8.302565e-01	-2.978676e-03	-1.755516e-01
8.158274e-01	-2.837585e-03	-1.796689e-01
7.930357e-01	-2.655647e-03	-1.849599e-01
7.676296e-01	-2.426061e-03	-1.888590e-01
7.309825e-01	-2.188685e-03	-1.947313e-01
6.866096e-01	-1.964184e-03	-1.973274e-01
6.247791e-01	-1.652196e-03	-2.008050e-01
5.437108e-01	-1.434936e-03	-1.939490e-01
4.319597e-01	-1.071555e-03	-1.792064e-01
2.700222e-01	-6.907857e-04	-1.291939e-01
2.986928e-02	-3.009811e-04	-1.785906e-02
-3.136556e-01	9.266552e-05	2.404807e-01
-7.485471e-01	4.957689e-04	9.994958e-01
-4.813051e-01	9.046980e-04	3.052947e+00
2.961549e+00	1.374558e-03	2.965781e+00
3.075408e+00	1.797220e-03	9.502072e-01
2.598131e+00	2.177070e-03	6.701288e-02
2.219751e+00	2.545077e-03	-1.990636e-01
1.955909e+00	2.893353e-03	-3.600672e-01
1.766658e+00	3.218503e-03	-4.230929e-01
1.604139e+00	3.630588e-03	-4.711505e-01
1.482309e+00	3.886267e-03	-4.868571e-01
1.375286e+00	4.127623e-03	-4.996303e-01
1.288956e+00	4.344222e-03	-4.969279e-01
1.213039e+00	4.507430e-03	-4.944914e-01
1.147846e+00	4.611831e-03	-4.841981e-01
1.089755e+00	4.704180e-03	-4.756508e-01
1.036485e+00	4.776707e-03	-4.627975e-01
9.865636e-01	4.820680e-03	-4.515224e-01
9.363750e-01	4.853457e-03	-4.361024e-01
8.889421e-01	4.887380e-03	-4.219214e-01
8.395637e-01	4.889132e-03	-4.034256e-01
7.886023e-01	4.886409e-03	-3.831334e-01
7.400710e-01	4.883346e-03	-3.611617e-01
8.159091e-01	-2.023892e-03	-1.436786e-01
8.337392e-01	-2.019755e-03	-1.483273e-01
8.450873e-01	-2.009223e-03	-1.541097e-01
8.511309e-01	-1.989794e-03	-1.594299e-01
8.473801e-01	-1.958130e-03	-1.651280e-01
8.422126e-01	-1.980404e-03	-1.699386e-01
8.286869e-01	-1.905690e-03	-1.752197e-01
8.140243e-01	-1.777173e-03	-1.792718e-01
7.909485e-01	-1.681912e-03	-1.844731e-01
7.652285e-01	-1.542934e-03	-1.882682e-01
7.290937e-01	-1.388438e-03	-1.942281e-01
6.841800e-01	-1.219403e-03	-1.966291e-01
6.213677e-01	-1.021465e-03	-1.997086e-01
5.396087e-01	-7.433268e-04	-1.924858e-01
4.272084e-01	-5.102504e-04	-1.772353e-01
2.648553e-01	-3.043390e-04	-1.267218e-01
2.323873e-02	-9.174031e-05	-1.389461e-02
-3.215948e-01	1.579732e-04	2.465677e-01
-7.571768e-01	4.303002e-04	1.011019e+00
-4.850218e-01	6.857657e-04	3.076523e+00
2.978624e+00	9.804083e-04	2.982881e+00
3.089237e+00	1.216583e-03	9.544801e-01
2.607636e+00	1.463453e-03	6.725802e-02
2.226667e+00	1.718675e-03	-1.996838e-01
1.961316e+00	1.937045e-03	-3.610626e-01
1.773088e+00	2.147797e-03	-4.246326e-01
1.607424e+00	2.343478e-03	-4.721153e-01
1.483574e+00	2.442383e-03	-4.872724e-01
1.377772e+00	2.585376e-03	-5.005336e-01
1.290911e+00	2.719891e-03	-4.976818e-01
1.214152e+00	2.830920e-03	-4.949450e-01
1.148723e+00	2.919627e-03	-4.845681e-01
1.090419e+00	3.017016e-03	-4.759405e-01
1.036627e+00	3.051397e-03	-4.628608e-01
9.867871e-01	3.192735e-03	-4.516247e-01
9.371263e-01	3.185557e-03	-4.364523e-01
8.896345e-01	3.181607e-03	-4.222500e-01
8.395278e-01	3.179256e-03	-4.034084e-01
7.885028e-01	3.176174e-03	-3.830851e-01
7.398896e-01	3.173901e-03	-3.610732e-01
8.156734e-01	-1.137132e-03	-1.436371e-01
8.334763e-01	-1.133122e-03	-1.482806e-01
8.448592e-01	-1.146213e-03	-1.540681e-01
8.502438e-01	-1.134167e-03	-1.592637e-01
8.484430e-01	-1.094022e-03	-1.653351e-01
8.426328e-01	-1.065770e-03	-1.700234e-01
8.270912e-01	-1.023233e-03	-1.748823e-01
8.126646e-01	-9.943487e-04	-1.789724e-01
7.898679e-01	-1.002616e-03	-1.842211e-01
7.637769e-01	-9.229741e-04	-1.879111e-01
7.267537e-01	-8.209465e-04	-1.936048e-01
6.817220e-01	-7.001623e-04	-1.959227e-01
6.181942e-01	-5.876712e-04	-1.986886e-01
5.360715e-01	-3.531887e-04	-1.912240e-01
4.247781e-01	-2.622226e-04	-1.762270e-01
2.623130e-01	-1.341082e-04	-1.255054e-01
2.007880e-02	2.726537e-06	-1.200526e-02
-3.269613e-01	1.435672e-04	2.506822e-01
-7.632110e-01	3.130002e-04	1.019076e+00
-4.872532e-01	4.596079e-04	3.090677e+00
2.987411e+00	6.302515e-04	2.991680e+00
3.096756e+00	7.536235e-04	9.568031e-01
2.614408e+00	8.984708e-04	6.743270e-02
2.231393e+00	1.033485e-03	-2.001076e-01
1.964526e+00	1.161972e-03	-3.616535e-01
1.773614e+00	1.282598e-03	-4.247587e-01
1.608534e+00	1.310087e-03	-4.724412e-01
1.485686e+00	1.422625e-03	-4.879661e-01
1.378904e+00	1.531676e-03	-5.009447e-01
1.292054e+00	1.590122e-03	-4.981223e-01
1.215540e+00	1.655261e-03	-4.955110e-01
1.150216e+00	1.798530e-03	-4.851981e-01
1.091537e+00	1.818758e-03	-4.764288e-01
1.038933e+00	1.859186e-03	-4.638904e-01
9.888642e-01	1.869178e-03	-4.525753e-01
9.361630e-01	1.877529e-03	-4.360037e-01
8.887938e-01	1.860034e-03	-4.218510e-01
8.394026e-01	1.860456e-03	-4.033482e-01
7.883405e-01	1.878822e-03	-3.830062e-01
7.397228e-01	1.876104e-03	-3.609918e-01
8.152361e-01	-1.357344e-03	-1.435601e-01
8.344876e-01	-1.357320e-03	-1.484605e-01
8.449631e-01	-1.357788e-03	-1.540870e-01
8.497475e-01	-1.339565e-03	-1.591707e-01
8.460279e-01	-1.295978e-03	-1.648644e-01
8.409769e-01	-1.246294e-03	-1.696893e-01
8.275987e-01	-1.096740e-03	-1.749896e-01
8.137481e-01	-1.188804e-03	-1.792110e-01
7.899641e-01	-9.677200e-04	-1.842435e-01
7.628427e-01	-1.015578e-03	-1.876813e-01
7.261821e-01	-6.565681e-04	-1.934525e-01
6.810660e-01	-7.425867e-04	-1.957342e-01
6.165967e-01	-3.072847e-04	-1.981752e-01
5.346629e-01	-4.023985e-04	-1.907215e-01
4.236777e-01	8.776911e-05	-1.757705e-01
2.599821e-01	4.211040e-04	-1.243902e-01
1.731291e-02	6.399600e-04	-1.035152e-02
-3.294406e-01	6.541383e-04	2.525831e-01
-7.660294e-01	6.975133e-04	1.022839e+00
-4.884493e-01	7.547948e-04	3.098264e+00
2.992819e+00	8.314289e-04	2.997096e+00
3.101231e+00	9.057705e-04	9.581858e-01
2.616633e+00	9.932870e-04	6.749009e-02
2.233185e+00	1.075195e-03	-2.002683e-01
1.966312e+00	1.008140e-03	-3.619823e-01
1.775526e+00	7.902669e-04	-4.252165e-01
1.609609e+00	4.070078e-04	-4.727570e-01
1.486647e+00	5.995453e-04	-4.882819e-01
1.379944e+00	2.501896e-04	-5.013226e-01
1.292472e+00	4.085317e-04	-4.982835e-01
1.216755e+00	1.133437e-04	-4.960063e-01
1.150837e+00	2.638138e-04	-4.854601e-01
1.091219e+00	3.506454e-06	-4.762896e-01
1.037372e+00	8.909921e-05	-4.631934e-01
9.870819e-01	-1.817008e-04	-4.517596e-01
9.370010e-01	-9.560705e-05	-4.363939e-01
8.891932e-01	-1.116235e-04	-4.220406e-01
8.399956e-01	-1.176338e-04	-4.036332e-01
7.895532e-01	-1.125602e-04	-3.835954e-01
7.394733e-01	-1.115021e-04	-3.608700e-01
8.156692e-01	3.654966e-05	-1.436364e-01
8.335071e-01	3.514659e-05	-1.482861e-01
8.441513e-01	5.485635e-05	-1.539390e-01
8.486305e-01	5.356598e-05	-1.589615e-01
8.465576e-01	5.322353e-05	-1.649677e-01
8.390869e-01	5.348658e-05	-1.693079e-01
8.263872e-01	5.607795e-05	-1.747334e-01
8.106928e-01	3.019970e-05	-1.785381e-01
7.876027e-01	1.099553e-04	-1.836928e-01
7.596668e-01	9.201018e-05	-1.868999e-01
7.231494e-01	8.042131e-05	-1.926446e-01
6.772018e-01	7.867549e-05	-1.946236e-01
6.132277e-01	1.407140e-05	-1.970924e-01
5.306142e-01	1.267663e-05	-1.892773e-01
4.111950e-01	3.984978e-05	-1.705918e-01
2.519407e-01	6.913844e-06	-1.205427e-01
1.458869e-02	7.435485e-06	-8.722686e-03
-3.283182e-01	7.416238e-06	2.517225e-01
-7.659109e-01	6.198511e-06	1.022681e+00
-4.886823e-01	4.147140e-06	3.099741e+00
2.994892e+00	1.126175e-06	2.999172e+00
3.103995e+00	-1.932496e-06	9.590399e-01
2.619857e+00	-5.560934e-06	6.757323e-02
2.231332e+00	-1.005658e-05	-2.001022e-01
1.958528e+00	1.721943e-05	-3.605493e-01
1.763118e+00	1.071344e-05	-4.222451e-01
1.606065e+00	-2.573817e-05	-4.717160e-01
1.483269e+00	2.231357e-05	-4.871723e-01
1.376545e+00	-2.474172e-05	-5.000876e-01
1.290292e+00	-7.181243e-06	-4.974430e-01
1.213701e+00	-1.445707e-05	-4.947614e-01
1.148915e+00	-9.364658e-05	-4.846495e-01
1.089064e+00	-8.639815e-05	-4.753493e-01
1.036522e+00	-5.514374e-05	-4.628142e-01
9.855358e-01	-5.554918e-05	-4.510520e-01
9.376386e-01	-5.565882e-05	-4.366909e-01
8.882626e-01	-5.591945e-05	-4.215988e-01
8.393098e-01	-5.530758e-05	-4.033037e-01
7.886873e-01	-7.548736e-05	-3.831748e-01
7.398849e-01	-7.421126e-05	-3.610709e-01
8.154716e-01	1.466011e-03	-1.436016e-01
8.332018e-01	1.466153e-03	-1.482317e-01
8.444841e-01	1.467313e-03	-1.539997e-01
8.497850e-01	1.451085e-03	-1.591778e-01
8.460283e-01	1.410256e-03	-1.648645e-01
8.409251e-01	1.449582e-03	-1.696788e-01
8.279781e-01	1.285567e-03	-1.750698e-01
8.129360e-01	1.354787e-03	-1.790321e-01
7.891562e-01	1.094216e-03	-1.840551e-01
7.632299e-01	1.137198e-03	-1.877765e-01
7.263572e-01	7.784560e-04	-1.934991e-01
6.819343e-01	7.848848e-04	-1.959837e-01
6.175426e-01	3.495239e-04	-1.984792e-01
5.342998e-01	4.668754e-04	-1.905920e-01
4.237084e-01	-2.771897e-05	-1.757832e-01
2.606345e-01	-3.638367e-04	-1.247023e-01
1.730083e-02	-5.922080e-04	-1.034429e-02
-3.294138e-01	-6.123008e-04	2.525625e-01
-7.659438e-01	-6.882957e-04	1.022725e+00
-4.883956e-01	-7.514982e-04	3.097923e+00
2.992517e+00	-8.374943e-04	2.996793e+00
3.100931e+00	-9.221341e-04	9.580933e-01
2.616366e+00	-9.929513e-04	6.748320e-02
2.233842e+00	-1.111680e-03	-2.003272e-01
1.966670e+00	-1.017010e-03	-3.620482e-01
1.774755e+00	-8.078565e-04	-4.250320e-01
1.609847e+00	-4.322250e-04	-4.728268e-01
1.486619e+00	-6.608679e-04	-4.882726e-01
1.379576e+00	-3.257177e-04	-5.011890e-01
1.292600e+00	-4.214969e-04	-4.983328e-01
1.215678e+00	-1.445131e-04	-4.955670e-01
1.149899e+00	-3.115063e-04	-4.850643e-01
1.091722e+00	-3.840399e-05	-4.765092e-01
1.037837e+00	-1.401569e-04	-4.634009e-01
9.870734e-01	-2.275466e-06	-4.517557e-01
9.369943e-01	-6.115366e-05	-4.363908e-01
8.891987e-01	-3.311058e-05	-4.220432e-01
8.395206e-01	-2.419582e-05	-4.034050e-01
7.883455e-01	-2.855328e-05	-3.830087e-01
7.396688e-01	-2.950727e-05	-3.609654e-01
8.156454e-01	1.246756e-03	-1.436322e-01
8.334237e-01	1.244199e-03	-1.482712e-01
8.447617e-01	1.237617e-03	-1.540503e-01
8.501235e-01	1.231990e-03	-1.592412e-01
8.464389e-01	1.120682e-03	-1.649445e-01
8.414663e-01	1.094377e-03	-1.697880e-01
8.276711e-01	1.046514e-03	-1.750049e-01
8.135571e-01	1.007328e-03	-1.791689e-01
7.904569e-01	9.449934e-04	-1.843584e-01
7.638371e-01	8.707612e-04	-1.879259e-01
7.277845e-01	7.815153e-04	-1.938794e-01
6.828057e-01	6.785052e-04	-1.962342e-01
6.178957e-01	6.057910e-04	-1.985927e-01
5.357873e-01	4.812197e-04	-1.911226e-01
4.248974e-01	3.466873e-04	-1.762765e-01
2.625289e-01	2.365391e-04	-1.256087e-01
2.041759e-02	8.747963e-05	-1.220783e-02
-3.260824e-01	-6.308713e-05	2.500083e-01
-7.619963e-01	-2.463006e-04	1.017454e+00
-4.870924e-01	-3.998622e-04	3.089657e+00
2.986426e+00	-5.785131e-04	2.990694e+00
3.097280e+00	-7.029269e-04	9.569652e-01
2.613480e+00	-8.545357e-04	6.740875e-02
2.231350e+00	-9.947341e-04	-2.001038e-01
1.964841e+00	-1.159093e-03	-3.617116e-01
1.773335e+00	-1.278384e-03	-4.246918e-01
1.607850e+00	-1.386817e-03	-4.722403e-01
1.484997e+00	-1.516851e-03	-4.877399e-01
1.379555e+00	-1.573826e-03	-5.011812e-01
1.292608e+00	-1.672734e-03	-4.983359e-01
1.215106e+00	-1.731475e-03	-4.953338e-01
1.150161e+00	-1.777542e-03	-4.851750e-01
1.091505e+00	-1.772769e-03	-4.764145e-01
1.036874e+00	-1.856242e-03	-4.629713e-01
9.870060e-01	-1.874878e-03	-4.517249e-01
9.369173e-01	-1.894118e-03	-4.363549e-01
8.891607e-01	-1.811724e-03	-4.220251e-01
8.395254e-01	-1.821916e-03	-4.034073e-01
7.883880e-01	-1.822043e-03	-3.830293e-01
7.397388e-01	-1.821161e-03	-3.609996e-01
8.159006e-01	2.108318e-03	-1.436771e-01
8.337350e-01	2.108160e-03	-1.483266e-01
8.448835e-01	2.026056e-03	-1.540725e-01
8.530195e-01	2.005845e-03	-1.597836e-01
8.486356e-01	1.968795e-03	-1.653726e-01
8.422273e-01	1.931436e-03	-1.699416e-01
8.293102e-01	1.853258e-03	-1.753515e-01
8.143879e-01	1.731985e-03	-1.793519e-01
7.909996e-01	1.652955e-03	-1.844850e-01
7.653764e-01	1.513940e-03	-1.883046e-01
7.288698e-01	1.353161e-03	-1.941685e-01
6.842865e-01	1.255496e-03	-1.966597e-01
6.202631e-01	1.038209e-03	-1.993536e-01
5.381481e-01	8.304559e-04	-1.919648e-01