# vtk DataFile Version 2.0
OUTPUT by 3D-VPM
ASCII
DATASET UNSTRUCTURED_GRID
POINTS 820 double
9.510565e-01	0.000000e+00	-3.090170e-01
9.442611e-01	0.000000e+00	-3.078203e-01
9.267277e-01	0.000000e+00	-3.047010e-01
8.963175e-01	0.000000e+00	-2.991555e-01
8.562911e-01	0.000000e+00	-2.916579e-01
8.054250e-01	0.000000e+00	-2.817457e-01
7.470317e-01	0.000000e+00	-2.699633e-01
6.809074e-01	0.000000e+00	-2.559818e-01
6.100852e-01	0.000000e+00	-2.403847e-01
5.354138e-01	0.000000e+00	-2.229691e-01
4.593635e-01	0.000000e+00	-2.042585e-01
3.837764e-01	0.000000e+00	-1.841224e-01
3.103069e-01	0.000000e+00	-1.630077e-01
2.415927e-01	0.000000e+00	-1.409228e-01
1.782654e-01	0.000000e+00	-1.183331e-01
1.234349e-01	0.000000e+00	-9.558566e-02
7.662509e-02	0.000000e+00	-7.318920e-02
4.106998e-02	0.000000e+00	-5.193053e-02
1.528206e-02	0.000000e+00	-3.215886e-02
2.347037e-03	0.000000e+00	-1.488740e-02
0.000000e+00	0.000000e+00	0.000000e+00
1.064939e-02	0.000000e+00	1.066461e-02
3.126595e-02	0.000000e+00	1.703450e-02
6.375031e-02	0.000000e+00	1.787236e-02
1.050105e-01	0.000000e+00	1.417221e-02
1.560448e-01	0.000000e+00	4.777214e-03
2.137742e-01	0.000000e+00	-9.048270e-03
2.782849e-01	0.000000e+00	-2.799567e-02
3.468570e-01	0.000000e+00	-5.051783e-02
4.187060e-01	0.000000e+00	-7.662000e-02
4.916930e-01	0.000000e+00	-1.047585e-01
5.642168e-01	0.000000e+00	-1.343226e-01
6.348639e-01	0.000000e+00	-1.641238e-01
7.013280e-01	0.000000e+00	-1.931337e-01
7.630418e-01	0.000000e+00	-2.206893e-01
8.172084e-01	0.000000e+00	-2.454799e-01
8.641863e-01	0.000000e+00	-2.673591e-01
9.009752e-01	0.000000e+00	-2.848204e-01
9.288372e-01	0.000000e+00	-2.982085e-01
9.448555e-01	0.000000e+00	-3.059908e-01
9.510565e-01	0.000000e+00	-3.090170e-01
9.510565e-01	1.052632e+00	-3.090170e-01
9.442611e-01	1.052632e+00	-3.078203e-01
9.267277e-01	1.052632e+00	-3.047010e-01
8.963175e-01	1.052632e+00	-2.991555e-01
8.562911e-01	1.052632e+00	-2.916579e-01
8.054250e-01	1.052632e+00	-2.817457e-01
7.470317e-01	1.052632e+00	-2.699633e-01
6.809074e-01	1.052632e+00	-2.559818e-01
6.100852e-01	1.052632e+00	-2.403847e-01
5.354138e-01	1.052632e+00	-2.229691e-01
4.593635e-01	1.052632e+00	-2.042585e-01
3.837764e-01	1.052632e+00	-1.841224e-01
3.103069e-01	1.052632e+00	-1.630077e-01
2.415927e-01	1.052632e+00	-1.409228e-01
1.782654e-01	1.052632e+00	-1.183331e-01
1.234349e-01	1.052632e+00	-9.558566e-02
7.662509e-02	1.052632e+00	-7.318920e-02
4.106998e-02	1.052632e+00	-5.193053e-02
1.528206e-02	1.052632e+00	-3.215886e-02
2.347037e-03	1.052632e+00	-1.488740e-02
0.000000e+00	1.052632e+00	0.000000e+00
1.064939e-02	1.052632e+00	1.066461e-02
3.126595e-02	1.052632e+00	1.703450e-02
6.375031e-02	1.052632e+00	1.787236e-02
1.050105e-01	1.052632e+00	1.417221e-02
1.560448e-01	1.052632e+00	4.777214e-03
2.137742e-01	1.052632e+00	-9.048270e-03
2.782849e-01	1.052632e+00	-2.799567e-02
3.468570e-01	1.052632e+00	-5.051783e-02
4.187060e-01	1.052632e+00	-7.662000e-02
4.916930e-01	1.052632e+00	-1.047585e-01
5.642168e-01	1.052632e+00	-1.343226e-01
6.348639e-01	1.052632e+00	-1.641238e-01
7.013280e-01	1.052632e+00	-1.931337e-01
7.630418e-01	1.052632e+00	-2.206893e-01
8.172084e-01	1.052632e+00	-2.454799e-01
8.641863e-01	1.052632e+00	-2.673591e-01
9.009752e-01	1.052632e+00	-2.848204e-01
9.288372e-01	1.052632e+00	-2.982085e-01
9.448555e-01	1.052632e+00	-3.059908e-01
9.510565e-01	1.052632e+00	-3.090170e-01
9.510565e-01	2.105263e+00	-3.090170e-01
9.442611e-01	2.105263e+00	-3.078203e-01
9.267277e-01	2.105263e+00	-3.047010e-01
8.963175e-01	2.105263e+00	-2.991555e-01
8.562911e-01	2.105263e+00	-2.916579e-01
8.054250e-01	2.105263e+00	-2.817457e-01
7.470317e-01	2.105263e+00	-2.699633e-01
6.809074e-01	2.105263e+00	-2.559818e-01
6.100852e-01	2.105263e+00	-2.403847e-01
5.354138e-01	2.105263e+00	-2.229691e-01
4.593635e-01	2.105263e+00	-2.042585e-01
3.837764e-01	2.105263e+00	-1.841224e-01
3.103069e-01	2.105263e+00	-1.630077e-01
2.415927e-01	2.105263e+00	-1.409228e-01
1.782654e-01	2.105263e+00	-1.183331e-01
1.234349e-01	2.105263e+00	-9.558566e-02
7.662509e-02	2.105263e+00	-7.318920e-02
4.106998e-02	2.105263e+00	-5.193053e-02
1.528206e-02	2.105263e+00	-3.215886e-02
2.347037e-03	2.105263e+00	-1.488740e-02
0.000000e+00	2.105263e+00	0.000000e+00
1.064939e-02	2.105263e+00	1.066461e-02
3.126595e-02	2.105263e+00	1.703450e-02
6.375031e-02	2.105263e+00	1.787236e-02
1.050105e-01	2.105263e+00	1.417221e-02
1.560448e-01	2.105263e+00	4.777214e-03
2.137742e-01	2.105263e+00	-9.048270e-03
2.782849e-01	2.105263e+00	-2.799567e-02
3.468570e-01	2.105263e+00	-5.051783e-02
4.187060e-01	2.105263e+00	-7.662000e-02
4.916930e-01	2.105263e+00	-1.047585e-01
5.642168e-01	2.105263e+00	-1.343226e-01
6.348639e-01	2.105263e+00	-1.641238e-01
7.013280e-01	2.105263e+00	-1.931337e-01
7.630418e-01	2.105263e+00	-2.206893e-01
8.172084e-01	2.105263e+00	-2.454799e-01
8.641863e-01	2.105263e+00	-2.673591e-01
9.009752e-01	2.105263e+00	-2.848204e-01
9.288372e-01	2.105263e+00	-2.982085e-01
9.448555e-01	2.105263e+00	-3.059908e-01
9.510565e-01	2.105263e+00	-3.090170e-01
9.510565e-01	3.157895e+00	-3.090170e-01
9.442611e-01	3.157895e+00	-3.078203e-01
9.267277e-01	3.157895e+00	-3.047010e-01
8.963175e-01	3.157895e+00	-2.991555e-01
8.562911e-01	3.157895e+00	-2.916579e-01
8.054250e-01	3.157895e+00	-2.817457e-01
7.470317e-01	3.157895e+00	-2.699633e-01
6.809074e-01	3.157895e+00	-2.559818e-01
6.100852e-01	3.157895e+00	-2.403847e-01
5.354138e-01	3.157895e+00	-2.229691e-01
4.593635e-01	3.157895e+00	-2.042585e-01
3.837764e-01	3.157895e+00	-1.841224e-01
3.103069e-01	3.157895e+00	-1.630077e-01
2.415927e-01	3.157895e+00	-1.409228e-01
1.782654e-01	3.157895e+00	-1.183331e-01
1.234349e-01	3.157895e+00	-9.558566e-02
7.662509e-02	3.157895e+00	-7.318920e-02
4.106998e-02	3.157895e+00	-5.193053e-02
1.528206e-02	3.157895e+00	-3.215886e-02
2.347037e-03	3.157895e+00	-1.488740e-02
0.000000e+00	3.157895e+00	0.000000e+00
1.064939e-02	3.157895e+00	1.066461e-02
3.126595e-02	3.157895e+00	1.703450e-02
6.375031e-02	3.157895e+00	1.787236e-02
1.050105e-01	3.157895e+00	1.417221e-02
1.560448e-01	3.157895e+00	4.777214e-03
2.137742e-01	3.157895e+00	-9.048270e-03
2.782849e-01	3.157895e+00	-2.799567e-02
3.468570e-01	3.157895e+00	-5.051783e-02
4.187060e-01	3.157895e+00	-7.662000e-02
4.916930e-01	3.157895e+00	-1.047585e-01
5.642168e-01	3.157895e+00	-1.343226e-01
6.348639e-01	3.157895e+00	-1.641238e-01
7.013280e-01	3.157895e+00	-1.931337e-01
7.630418e-01	3.157895e+00	-2.206893e-01
8.172084e-01	3.157895e+00	-2.454799e-01
8.641863e-01	3.157895e+00	-2.673591e-01
9.009752e-01	3.157895e+00	-2.848204e-01
9.288372e-01	3.157895e+00	-2.982085e-01
9.448555e-01	3.157895e+00	-3.059908e-01
9.510565e-01	3.157895e+00	-3.090170e-01
9.510565e-01	4.210526e+00	-3.090170e-01
9.442611e-01	4.210526e+00	-3.078203e-01
9.267277e-01	4.210526e+00	-3.047010e-01
8.963175e-01	4.210526e+00	-2.991555e-01
8.562911e-01	4.210526e+00	-2.916579e-01
8.054250e-01	4.210526e+00	-2.817457e-01
7.470317e-01	4.210526e+00	-2.699633e-01
6.809074e-01	4.210526e+00	-2.559818e-01
6.100852e-01	4.210526e+00	-2.403847e-01
5.354138e-01	4.210526e+00	-2.229691e-01
4.593635e-01	4.210526e+00	-2.042585e-01
3.837764e-01	4.210526e+00	-1.841224e-01
3.103069e-01	4.210526e+00	-1.630077e-01
2.415927e-01	4.210526e+00	-1.409228e-01
1.782654e-01	4.210526e+00	-1.183331e-01
1.234349e-01	4.210526e+00	-9.558566e-02
7.662509e-02	4.210526e+00	-7.318920e-02
4.106998e-02	4.210526e+00	-5.193053e-02
1.528206e-02	4.210526e+00	-3.215886e-02
2.347037e-03	4.210526e+00	-1.488740e-02
0.000000e+00	4.210526e+00	0.000000e+00
1.064939e-02	4.210526e+00	1.066461e-02
3.126595e-02	4.210526e+00	1.703450e-02
6.375031e-02	4.210526e+00	1.787236e-02
1.050105e-01	4.210526e+00	1.417221e-02
1.560448e-01	4.210526e+00	4.777214e-03
2.137742e-01	4.210526e+00	-9.048270e-03
2.782849e-01	4.210526e+00	-2.799567e-02
3.468570e-01	4.210526e+00	-5.051783e-02
4.187060e-01	4.210526e+00	-7.662000e-02
4.916930e-01	4.210526e+00	-1.047585e-01
5.642168e-01	4.210526e+00	-1.343226e-01
6.348639e-01	4.210526e+00	-1.641238e-01
7.013280e-01	4.210526e+00	-1.931337e-01
7.630418e-01	4.210526e+00	-2.206893e-01
8.172084e-01	4.210526e+00	-2.454799e-01
8.641863e-01	4.210526e+00	-2.673591e-01
9.009752e-01	4.210526e+00	-2.848204e-01
9.288372e-01	4.210526e+00	-2.982085e-01
9.448555e-01	4.210526e+00	-3.059908e-01
9.510565e-01	4.210526e+00	-3.090170e-01
9.510565e-01	5.263158e+00	-3.090170e-01
9.442611e-01	5.263158e+00	-3.078203e-01
9.267277e-01	5.263158e+00	-3.047010e-01
8.963175e-01	5.263158e+00	-2.991555e-01
8.562911e-01	5.263158e+00	-2.916579e-01
8.054250e-01	5.263158e+00	-2.817457e-01
7.470317e-01	5.263158e+00	-2.699633e-01
6.809074e-01	5.263158e+00	-2.559818e-01
6.100852e-01	5.263158e+00	-2.403847e-01
5.354138e-01	5.263158e+00	-2.229691e-01
4.593635e-01	5.263158e+00	-2.042585e-01
3.837764e-01	5.263158e+00	-1.841224e-01
3.103069e-01	5.263158e+00	-1.630077e-01
2.415927e-01	5.263158e+00	-1.409228e-01
1.782654e-01	5.263158e+00	-1.183331e-01
1.234349e-01	5.263158e+00	-9.558566e-02
7.662509e-02	5.263158e+00	-7.318920e-02
4.106998e-02	5.263158e+00	-5.193053e-02
1.528206e-02	5.263158e+00	-3.215886e-02
2.347037e-03	5.263158e+00	-1.488740e-02
0.000000e+00	5.263158e+00	0.000000e+00
1.064939e-02	5.263158e+00	1.066461e-02
3.126595e-02	5.263158e+00	1.703450e-02
6.375031e-02	5.263158e+00	1.787236e-02
1.050105e-01	5.263158e+00	1.417221e-02
1.560448e-01	5.263158e+00	4.777214e-03
2.137742e-01	5.263158e+00	-9.048270e-03
2.782849e-01	5.263158e+00	-2.799567e-02
3.468570e-01	5.263158e+00	-5.051783e-02
4.187060e-01	5.263158e+00	-7.662000e-02
4.916930e-01	5.263158e+00	-1.047585e-01
5.642168e-01	5.263158e+00	-1.343226e-01
6.348639e-01	5.263158e+00	-1.641238e-01
7.013280e-01	5.263158e+00	-1.931337e-01
7.630418e-01	5.263158e+00	-2.206893e-01
8.172084e-01	5.263158e+00	-2.454799e-01
8.641863e-01	5.263158e+00	-2.673591e-01
9.009752e-01	5.263158e+00	-2.848204e-01
9.288372e-01	5.263158e+00	-2.982085e-01
9.448555e-01	5.263158e+00	-3.059908e-01
9.510565e-01	5.263158e+00	-3.090170e-01
9.510565e-01	6.315789e+00	-3.090170e-01
9.442611e-01	6.315789e+00	-3.078203e-01
[...]
CELL_DATA 760
VECTORS V double
8.414224e-01	-6.903504e-02	-1.481714e-01
8.655431e-01	-6.886145e-02	-1.539855e-01
8.835576e-01	-6.841169e-02	-1.611251e-01
8.953230e-01	-6.761729e-02	-1.677077e-01
8.977873e-01	-6.645636e-02	-1.749507e-01
8.990991e-01	-6.491125e-02	-1.814170e-01
8.920606e-01	-6.297166e-02	-1.886196e-01
8.847494e-01	-6.061351e-02	-1.948475e-01
8.704144e-01	-5.780832e-02	-2.030069e-01
8.547735e-01	-5.452350e-02	-2.102989e-01
8.294676e-01	-5.073354e-02	-2.209674e-01
7.985446e-01	-4.642426e-02	-2.294968e-01
7.511939e-01	-4.162860e-02	-2.414349e-01
6.891677e-01	-3.639776e-02	-2.458355e-01
6.025145e-01	-3.076967e-02	-2.499642e-01
4.718340e-01	-2.486718e-02	-2.257521e-01
2.701189e-01	-1.869826e-02	-1.615061e-01
-1.746069e-02	-1.242899e-02	1.338716e-02
-4.218544e-01	-5.860796e-03	5.632802e-01
-3.427162e-01	7.201827e-04	2.173870e+00
2.327153e+00	8.433805e-03	2.330479e+00
2.541805e+00	1.519899e-02	7.853404e-01
2.210631e+00	2.214562e-02	5.701818e-02
1.925583e+00	2.899339e-02	-1.726831e-01
1.720227e+00	3.598333e-02	-3.166800e-01
1.570437e+00	4.295033e-02	-3.761003e-01
1.435579e+00	4.988874e-02	-4.216427e-01
1.336757e+00	5.662007e-02	-4.390513e-01
1.250656e+00	6.302614e-02	-4.543531e-01
1.181711e+00	6.890914e-02	-4.555823e-01
1.121880e+00	7.415354e-02	-4.573305e-01
1.071620e+00	7.862223e-02	-4.520439e-01
1.027479e+00	8.225299e-02	-4.484690e-01
9.872039e-01	8.503807e-02	-4.407931e-01
9.499819e-01	8.702885e-02	-4.347800e-01
9.115292e-01	8.832326e-02	-4.245308e-01
8.743616e-01	8.904959e-02	-4.150010e-01
8.341868e-01	8.935692e-02	-4.008420e-01
7.910581e-01	8.940089e-02	-3.843266e-01
7.483068e-01	8.935522e-02	-3.651808e-01
8.268567e-01	-4.834438e-02	-1.456064e-01
8.473444e-01	-4.822007e-02	-1.507478e-01
8.618067e-01	-4.790155e-02	-1.571587e-01
8.704927e-01	-4.733773e-02	-1.630566e-01
8.702438e-01	-4.650599e-02	-1.695834e-01
8.688593e-01	-4.538749e-02	-1.753153e-01
8.588599e-01	-4.397158e-02	-1.815996e-01
8.479901e-01	-4.224324e-02	-1.867521e-01
8.293193e-01	-4.018765e-02	-1.934223e-01
8.083304e-01	-3.778963e-02	-1.988725e-01
7.765417e-01	-3.501942e-02	-2.068681e-01
7.378806e-01	-3.192748e-02	-2.120623e-01
6.815746e-01	-2.849116e-02	-2.190592e-01
6.085206e-01	-2.476557e-02	-2.170676e-01
5.087178e-01	-2.077663e-02	-2.110509e-01
3.607130e-01	-1.660743e-02	-1.725855e-01
1.373000e-01	-1.225974e-02	-8.209267e-02
-1.815910e-01	-7.846981e-03	1.392264e-01
-6.032966e-01	-3.229296e-03	8.055504e-01
-4.198868e-01	1.390400e-03	2.663368e+00
2.682684e+00	6.790770e-03	2.686518e+00
2.844249e+00	1.150697e-02	8.787863e-01
2.433370e+00	1.632124e-02	6.276323e-02
2.097422e+00	2.103065e-02	-1.880933e-01
1.860552e+00	2.579393e-02	-3.425128e-01
1.689700e+00	3.049142e-02	-4.046622e-01
1.539106e+00	3.511733e-02	-4.520495e-01
1.427843e+00	3.955351e-02	-4.689680e-01
1.330746e+00	4.372812e-02	-4.834494e-01
1.251927e+00	4.753353e-02	-4.826523e-01
1.182688e+00	5.085939e-02	-4.821189e-01
1.123354e+00	5.367694e-02	-4.738667e-01
1.070406e+00	5.593643e-02	-4.672052e-01
1.021752e+00	5.764230e-02	-4.562189e-01
9.765981e-01	5.883577e-02	-4.469615e-01
9.307662e-01	5.958771e-02	-4.334902e-01
8.867531e-01	5.998648e-02	-4.208824e-01
8.402947e-01	6.013291e-02	-4.037769e-01
7.917014e-01	6.012928e-02	-3.846391e-01
7.448098e-01	6.008598e-02	-3.634743e-01
8.205606e-01	-2.041077e-02	-1.444977e-01
8.397187e-01	-2.035893e-02	-1.493911e-01
8.527011e-01	-2.022856e-02	-1.554982e-01
8.598592e-01	-1.999251e-02	-1.610648e-01
8.580678e-01	-1.963388e-02	-1.672107e-01
8.551005e-01	-1.913600e-02	-1.725391e-01
8.434763e-01	-1.848909e-02	-1.783468e-01
8.308717e-01	-1.768786e-02	-1.829821e-01
8.103111e-01	-1.670514e-02	-1.889891e-01
7.869186e-01	-1.558486e-02	-1.936046e-01
7.528488e-01	-1.431272e-02	-2.005564e-01
7.115511e-01	-1.290354e-02	-2.044954e-01
6.517264e-01	-1.134732e-02	-2.094659e-01
5.745656e-01	-9.680270e-03	-2.049554e-01
4.697735e-01	-7.912464e-03	-1.948942e-01
3.150174e-01	-6.076364e-03	-1.507221e-01
8.301124e-02	-4.168703e-03	-4.963304e-02
-2.483957e-01	-2.237400e-03	1.904457e-01
-6.768224e-01	-2.216025e-04	9.037257e-01
-4.509300e-01	1.786769e-03	2.860277e+00
2.823796e+00	4.115985e-03	2.827832e+00
2.961983e+00	6.124055e-03	9.151625e-01
2.518000e+00	8.137624e-03	6.494606e-02
2.160725e+00	1.006155e-02	-1.937702e-01
1.910378e+00	1.195207e-02	-3.516853e-01
1.730307e+00	1.375565e-02	-4.143872e-01
1.572803e+00	1.546768e-02	-4.619466e-01
1.456138e+00	1.704752e-02	-4.782615e-01
1.354663e+00	1.847769e-02	-4.921382e-01
1.271705e+00	1.974374e-02	-4.902772e-01
1.198802e+00	2.080901e-02	-4.886876e-01
1.136485e+00	2.166932e-02	-4.794060e-01
1.080554e+00	2.230633e-02	-4.716348e-01
1.029172e+00	2.277792e-02	-4.595320e-01
9.815357e-01	2.307998e-02	-4.492213e-01
9.334891e-01	2.324462e-02	-4.347583e-01
8.875244e-01	2.330708e-02	-4.212485e-01
8.394015e-01	2.330483e-02	-4.033477e-01
7.894760e-01	2.327436e-02	-3.835579e-01
7.416751e-01	2.324756e-02	-3.619445e-01
8.181567e-01	-1.021907e-02	-1.440744e-01
8.367416e-01	-1.019803e-02	-1.488615e-01
8.489687e-01	-1.014174e-02	-1.548175e-01
8.553542e-01	-1.003592e-02	-1.602210e-01
8.527747e-01	-9.870726e-03	-1.661792e-01
8.489685e-01	-9.622823e-03	-1.713018e-01
8.364759e-01	-9.310130e-03	-1.768666e-01
8.225771e-01	-8.912658e-03	-1.811554e-01
8.009447e-01	-8.439319e-03	-1.868045e-01
7.769210e-01	-7.875429e-03	-1.911449e-01
7.414957e-01	-7.236040e-03	-1.975320e-01
6.983622e-01	-6.498471e-03	-2.007050e-01
6.368000e-01	-5.692963e-03	-2.046686e-01
5.574827e-01	-4.816786e-03	-1.988617e-01
4.500668e-01	-3.881994e-03	-1.867185e-01
2.917701e-01	-2.906026e-03	-1.395993e-01
5.529439e-02	-1.892239e-03	-3.306093e-02
-2.825509e-01	-8.587591e-04	2.166326e-01
-7.144177e-01	2.209089e-04	9.539246e-01
-4.667644e-01	1.295534e-03	2.960715e+00
2.895368e+00	2.537628e-03	2.899506e+00
3.021232e+00	3.602337e-03	9.334684e-01
2.560209e+00	4.661931e-03	6.603476e-02
2.191950e+00	5.665290e-03	-1.965704e-01
1.934691e+00	6.645048e-03	-3.561612e-01
1.749911e+00	7.565217e-03	-4.190821e-01
1.588907e+00	8.429668e-03	-4.666766e-01
1.469548e+00	9.226750e-03	-4.826659e-01
1.365877e+00	9.935491e-03	-4.962121e-01
1.281344e+00	1.055461e-02	-4.939933e-01
1.206801e+00	1.109314e-02	-4.919485e-01
1.142498e+00	1.152452e-02	-4.819424e-01
1.085248e+00	1.186265e-02	-4.736836e-01
1.032973e+00	1.210084e-02	-4.612293e-01
9.842011e-01	1.226095e-02	-4.504411e-01
9.351558e-01	1.234194e-02	-4.355346e-01
8.883138e-01	1.238591e-02	-4.216232e-01
8.394627e-01	1.239612e-02	-4.033771e-01
7.889772e-01	1.238929e-02	-3.833156e-01
7.407056e-01	1.238062e-02	-3.614714e-01
8.170290e-01	-5.650695e-03	-1.438758e-01
8.351867e-01	-5.639576e-03	-1.485849e-01
8.470038e-01	-5.608073e-03	-1.544592e-01
8.529491e-01	-5.548704e-03	-1.597705e-01
8.496137e-01	-5.452526e-03	-1.655632e-01
8.453695e-01	-5.312252e-03	-1.705756e-01
8.324924e-01	-5.140924e-03	-1.760244e-01
8.184724e-01	-4.921263e-03	-1.802514e-01
7.963105e-01	-4.656390e-03	-1.857237e-01
7.711212e-01	-4.320657e-03	-1.897180e-01
7.348536e-01	-3.929781e-03	-1.957625e-01
6.909849e-01	-3.493578e-03	-1.985848e-01
6.283717e-01	-3.022150e-03	-2.019597e-01
5.476607e-01	-2.601905e-03	-1.953580e-01
4.386825e-01	-2.058702e-03	-1.819955e-01
2.783748e-01	-1.451238e-03	-1.331903e-01
3.929638e-02	-8.419538e-04	-2.349560e-02
-3.024424e-01	-2.225084e-04	2.318835e-01
-7.363159e-01	4.251409e-04	9.831642e-01
-4.759750e-01	1.069650e-03	3.019138e+00
2.936855e+00	1.812708e-03	2.941052e+00
3.055396e+00	2.447321e-03	9.440243e-01
2.584406e+00	3.075581e-03	6.665886e-02
2.209851e+00	3.666220e-03	-1.981758e-01
1.948482e+00	4.235704e-03	-3.587000e-01
1.760862e+00	4.758852e-03	-4.217047e-01
1.597939e+00	5.244473e-03	-4.693293e-01
1.476996e+00	5.788227e-03	-4.851122e-01
1.371962e+00	6.192469e-03	-4.984228e-01
1.286313e+00	6.530818e-03	-4.959093e-01
1.210948e+00	6.811687e-03	-4.936389e-01
1.146319e+00	7.041104e-03	-4.835541e-01
1.088276e+00	7.238574e-03	-4.750052e-01
1.034942e+00	7.380985e-03	-4.621086e-01
9.854720e-01	7.479105e-03	-4.510228e-01
9.358717e-01	7.527570e-03	-4.358680e-01
8.888576e-01	7.550902e-03	-4.218812e-01
8.396028e-01	7.557325e-03	-4.034445e-01
7.887820e-01	7.553480e-03	-3.832208e-01
7.403479e-01	7.549221e-03	-3.612968e-01
8.162905e-01	-3.260726e-03	-1.437458e-01
8.342279e-01	-3.267705e-03	-1.484143e-01
8.457743e-01	-3.248456e-03	-1.542350e-01
8.513796e-01	-3.212007e-03	-1.594765e-01
8.479417e-01	-3.150367e-03	-1.652374e-01
8.435652e-01	-3.097848e-03	-1.702115e-01
8.304274e-01	-2.980823e-03	-1.755877e-01
8.156766e-01	-2.837071e-03	-1.796357e-01
7.928329e-01	-2.653029e-03	-1.849126e-01
7.673810e-01	-2.420874e-03	-1.887978e-01
7.306858e-01	-2.181699e-03	-1.946522e-01
6.862640e-01	-1.956205e-03	-1.972280e-01
6.243773e-01	-1.642341e-03	-2.006759e-01
5.432352e-01	-1.424435e-03	-1.937794e-01
4.313851e-01	-1.060208e-03	-1.789680e-01
2.693282e-01	-6.827758e-04	-1.288619e-01
2.905349e-02	-2.872906e-04	-1.737130e-02
-3.149565e-01	1.074464e-04	2.414781e-01
-7.501028e-01	5.193049e-04	1.001573e+00
-4.817681e-01	9.283561e-04	3.055884e+00
2.962867e+00	1.399151e-03	2.967101e+00
3.076735e+00	1.800040e-03	9.506172e-01
2.599422e+00	2.195534e-03	6.704618e-02
2.220668e+00	2.565186e-03	-1.991458e-01
1.956583e+00	2.914851e-03	-3.601913e-01
1.767175e+00	3.241139e-03	-4.232167e-01
1.604553e+00	3.654521e-03	-4.712719e-01
1.482642e+00	3.904014e-03	-4.869666e-01
1.375547e+00	4.154184e-03	-4.997252e-01
1.289157e+00	4.372820e-03	-4.970055e-01
1.213191e+00	4.537731e-03	-4.945533e-01
1.147948e+00	4.643296e-03	-4.842415e-01
1.089801e+00	4.737770e-03	-4.756706e-01
1.036456e+00	4.812645e-03	-4.627845e-01
9.865960e-01	4.858625e-03	-4.515372e-01
9.365313e-01	4.920116e-03	-4.361752e-01
8.890413e-01	4.929192e-03	-4.219685e-01
8.396006e-01	4.931026e-03	-4.034434e-01
7.886059e-01	4.927687e-03	-3.831352e-01
7.400533e-01	4.938580e-03	-3.611531e-01
8.182003e-01	-2.026590e-03	-1.440821e-01
8.341235e-01	-2.022566e-03	-1.483957e-01
8.450451e-01	-2.012409e-03	-1.541020e-01
8.504364e-01	-1.993859e-03	-1.592998e-01
8.473368e-01	-1.963819e-03	-1.651195e-01
8.423753e-01	-2.007897e-03	-1.699714e-01
8.284624e-01	-1.885837e-03	-1.751722e-01
8.137998e-01	-1.781236e-03	-1.792224e-01
7.906897e-01	-1.682497e-03	-1.844127e-01
7.649347e-01	-1.541719e-03	-1.881960e-01
7.287773e-01	-1.386284e-03	-1.941438e-01
6.838136e-01	-1.217047e-03	-1.965238e-01
6.209340e-01	-1.019338e-03	-1.995692e-01
5.391039e-01	-7.416023e-04	-1.923057e-01
4.266116e-01	-5.061854e-04	-1.769877e-01
2.641466e-01	-2.986813e-04	-1.263827e-01
2.240219e-02	-5.506703e-05	-1.339444e-02
-3.230743e-01	1.673781e-04	2.477020e-01
-7.589913e-01	4.285209e-04	1.013441e+00
-4.854902e-01	6.872914e-04	3.079494e+00
2.979552e+00	9.840905e-04	2.983810e+00
3.090385e+00	1.234899e-03	9.548347e-01
2.609010e+00	1.506755e-03	6.729347e-02
2.227638e+00	1.735767e-03	-1.997709e-01
1.962035e+00	1.955838e-03	-3.611950e-01
1.773648e+00	2.169196e-03	-4.247667e-01
1.607866e+00	2.395311e-03	-4.722452e-01
1.483931e+00	2.467385e-03	-4.873898e-01
1.378070e+00	2.610939e-03	-5.006417e-01
1.291152e+00	2.746340e-03	-4.977745e-01
1.214337e+00	2.858367e-03	-4.950204e-01
1.148872e+00	2.948127e-03	-4.846310e-01
1.090541e+00	3.046124e-03	-4.759938e-01
1.036697e+00	3.111157e-03	-4.628921e-01
9.871730e-01	3.231578e-03	-4.518013e-01
9.372711e-01	3.222952e-03	-4.365197e-01
8.891273e-01	3.216934e-03	-4.220093e-01
8.395870e-01	3.213949e-03	-4.034369e-01
7.889171e-01	3.210693e-03	-3.832864e-01
7.420161e-01	3.208404e-03	-3.621109e-01
8.156151e-01	-1.139892e-03	-1.436268e-01
8.334023e-01	-1.123074e-03	-1.482674e-01
8.447678e-01	-1.114799e-03	-1.540514e-01
8.501380e-01	-1.124119e-03	-1.592439e-01
8.483614e-01	-1.104347e-03	-1.653192e-01
8.420327e-01	-1.053364e-03	-1.699023e-01
8.269548e-01	-1.012586e-03	-1.748535e-01
8.127918e-01	-9.844724e-04	-1.790004e-01
7.895944e-01	-9.918940e-04	-1.841573e-01
7.634923e-01	-9.121051e-04	-1.878411e-01
7.264420e-01	-8.093694e-04	-1.935217e-01
6.813766e-01	-6.546040e-04	-1.958234e-01
6.178012e-01	-5.748794e-04	-1.985623e-01
5.355691e-01	-3.405307e-04	-1.910448e-01
4.241387e-01	-2.505760e-04	-1.759618e-01
2.610654e-01	-1.225227e-04	-1.249085e-01
1.903808e-02	1.471693e-05	-1.138301e-02
-3.272091e-01	1.567761e-04	2.508721e-01
-7.644674e-01	3.062657e-04	1.020753e+00
-4.877782e-01	4.552449e-04	3.094007e+00
2.989672e+00	6.267189e-04	2.993945e+00
3.099919e+00	7.723915e-04	9.577804e-01
2.615394e+00	9.155758e-04	6.745812e-02
2.231782e+00	1.049252e-03	-2.001426e-01
1.965288e+00	1.176819e-03	-3.617938e-01
1.774729e+00	1.296484e-03	-4.250257e-01
1.608960e+00	1.322981e-03	-4.725663e-01
1.485666e+00	1.433285e-03	-4.879598e-01
1.379184e+00	1.539824e-03	-5.010465e-01
1.292279e+00	1.599780e-03	-4.982091e-01
1.215718e+00	1.667530e-03	-4.955834e-01
1.150340e+00	1.812730e-03	-4.852504e-01
1.091987e+00	1.833110e-03	-4.766249e-01
1.039079e+00	1.874703e-03	-4.639557e-01
9.885187e-01	1.886421e-03	-4.524172e-01
9.362551e-01	1.871532e-03	-4.360465e-01
8.888272e-01	1.874505e-03	-4.218668e-01
8.394123e-01	1.896243e-03	-4.033529e-01
7.883328e-01	1.893097e-03	-3.830025e-01
7.397028e-01	1.877533e-03	-3.609820e-01
8.153777e-01	-1.363854e-03	-1.435850e-01
8.329862e-01	-1.363924e-03	-1.481934e-01
8.451911e-01	-1.364627e-03	-1.541286e-01
8.500852e-01	-1.346857e-03	-1.592340e-01
8.458571e-01	-1.305424e-03	-1.648312e-01
8.408062e-01	-1.228116e-03	-1.696548e-01
8.274124e-01	-1.131767e-03	-1.749502e-01
8.135218e-01	-1.195198e-03	-1.791611e-01
7.896921e-01	-9.760253e-04	-1.841801e-01
7.625377e-01	-1.025523e-03	-1.876062e-01
7.254147e-01	-6.689659e-04	-1.932480e-01
6.806655e-01	-7.569310e-04	-1.956191e-01
6.166351e-01	-3.215347e-04	-1.981875e-01
5.341744e-01	-3.852602e-04	-1.905473e-01
4.230994e-01	7.403947e-05	-1.755306e-01
2.592678e-01	4.137654e-04	-1.240484e-01
1.644368e-02	6.093931e-04	-9.831800e-03
-3.305267e-01	6.574497e-04	2.534158e-01
-7.672328e-01	7.041204e-04	1.024446e+00
-4.889557e-01	7.640463e-04	3.101476e+00
2.995084e+00	8.440713e-04	2.999364e+00
3.103071e+00	9.222955e-04	9.587542e-01
2.617912e+00	9.880167e-04	6.752307e-02
2.234101e+00	1.099407e-03	-2.003505e-01
1.966993e+00	1.033756e-03	-3.621077e-01
1.776052e+00	8.507278e-04	-4.253426e-01
1.610002e+00	4.701484e-04	-4.728722e-01
1.486938e+00	6.312492e-04	-4.883776e-01
1.380230e+00	3.139725e-04	-5.014263e-01
1.292764e+00	4.435272e-04	-4.983963e-01
1.216997e+00	1.485581e-04	-4.961049e-01
1.151013e+00	2.990409e-04	-4.855344e-01
1.091358e+00	3.974567e-05	-4.763504e-01
1.037483e+00	9.537791e-05	-4.632430e-01
9.871505e-01	-1.224534e-04	-4.517910e-01
9.370194e-01	-6.472847e-05	-4.364025e-01
8.896362e-01	-7.919462e-05	-4.222508e-01
8.402969e-01	-8.517549e-05	-4.037780e-01
7.882346e-01	-8.008081e-05	-3.829548e-01
7.396325e-01	-7.898712e-05	-3.609477e-01
8.156269e-01	-1.507930e-04	-1.436289e-01
8.334523e-01	-1.796395e-04	-1.482763e-01
8.440841e-01	-1.269293e-04	-1.539268e-01
8.485947e-01	-7.687524e-05	-1.589548e-01
8.459088e-01	-5.779454e-05	-1.648413e-01
8.390194e-01	-4.161030e-05	-1.692943e-01
8.265677e-01	-2.891341e-05	-1.747716e-01
8.104542e-01	-1.646998e-05	-1.784856e-01
7.873770e-01	3.551861e-05	-1.836401e-01
7.594360e-01	3.148134e-05	-1.868431e-01
7.228953e-01	2.946173e-05	-1.925769e-01
6.768816e-01	1.499044e-06	-1.945316e-01
6.124108e-01	-2.101925e-05	-1.968298e-01
5.300592e-01	-1.338186e-05	-1.890793e-01
4.109936e-01	2.195043e-05	-1.705082e-01
2.509554e-01	-7.348110e-06	-1.200713e-01
1.346221e-02	-1.096188e-06	-8.049154e-03
-3.296461e-01	4.007829e-06	2.527406e-01
-7.673349e-01	7.642836e-06	1.024582e+00
-4.892719e-01	1.016785e-05	3.103482e+00
2.997519e+00	1.237004e-05	3.001802e+00
3.106139e+00	1.391865e-05	9.597023e-01
2.621357e+00	1.518363e-05	6.761193e-02
2.232406e+00	1.577028e-05	-2.001985e-01
1.960079e+00	5.144655e-05	-3.608348e-01
1.764841e+00	5.139469e-05	-4.226577e-01
1.606030e+00	2.217872e-05	-4.717057e-01
1.483287e+00	7.991965e-05	-4.871783e-01
1.376852e+00	7.357704e-05	-5.001992e-01
1.290158e+00	6.925996e-05	-4.973915e-01
1.213882e+00	6.958133e-05	-4.948350e-01
1.149052e+00	3.591343e-05	-4.847072e-01
1.089141e+00	5.170893e-05	-4.753828e-01
1.036941e+00	6.595126e-05	-4.630012e-01
9.856693e-01	8.563150e-05	-4.511131e-01
9.371817e-01	1.078961e-04	-4.364781e-01
8.883364e-01	1.356440e-04	-4.216339e-01
8.393212e-01	1.459248e-04	-4.033091e-01
7.886821e-01	2.244025e-04	-3.831722e-01
7.398703e-01	2.141091e-04	-3.610638e-01
8.202189e-01	1.472939e-03	-1.444375e-01
8.304089e-01	1.473094e-03	-1.477349e-01
8.417947e-01	1.474281e-03	-1.535093e-01
8.484682e-01	1.458143e-03	-1.589311e-01
8.451539e-01	1.419050e-03	-1.646941e-01
8.403126e-01	1.431916e-03	-1.695552e-01
8.270260e-01	1.293048e-03	-1.748685e-01
8.125892e-01	1.354854e-03	-1.789558e-01
7.890603e-01	1.112943e-03	-1.840327e-01
7.626170e-01	1.137287e-03	-1.876257e-01
7.258046e-01	7.877663e-04	-1.933519e-01
6.813404e-01	8.003306e-04	-1.958130e-01
6.168555e-01	3.688288e-04	-1.982584e-01
5.335550e-01	4.588877e-04	-1.903263e-01
4.229331e-01	-3.653998e-05	-1.754616e-01
2.597508e-01	-3.777521e-04	-1.242795e-01
1.619808e-02	-5.756630e-04	-9.684952e-03
-3.307571e-01	-6.014704e-04	2.535924e-01
-7.674091e-01	-6.532304e-04	1.024681e+00
-4.890081e-01	-7.475223e-04	3.101808e+00
2.995265e+00	-8.349379e-04	2.999545e+00
3.103192e+00	-8.908320e-04	9.587917e-01
2.617968e+00	-9.887732e-04	6.752452e-02
2.235101e+00	-1.104748e-03	-2.004402e-01
1.967646e+00	-1.044816e-03	-3.622279e-01
1.775518e+00	-8.350924e-04	-4.252146e-01
1.610498e+00	-4.920635e-04	-4.730179e-01
1.487623e+00	-6.621406e-04	-4.886025e-01
1.380091e+00	-3.581376e-04	-5.013760e-01
1.292714e+00	-4.233655e-04	-4.983770e-01
1.216582e+00	-1.456535e-04	-4.959357e-01
1.150773e+00	-2.480279e-04	-4.854332e-01
1.091759e+00	-3.351622e-05	-4.765254e-01
1.037966e+00	-1.320284e-04	-4.634587e-01
9.878180e-01	-2.170925e-05	-4.520965e-01
9.379381e-01	-5.484888e-05	-4.368304e-01
8.905540e-01	-2.894681e-05	-4.226864e-01
8.426027e-01	-2.026833e-05	-4.048860e-01
7.927641e-01	-2.468580e-05	-3.851554e-01
7.380562e-01	-2.565743e-05	-3.601784e-01
8.156008e-01	1.467883e-03	-1.436243e-01
8.333667e-01	1.493880e-03	-1.482611e-01
8.446903e-01	1.432493e-03	-1.540373e-01
8.500372e-01	1.398427e-03	-1.592250e-01
8.463394e-01	1.265944e-03	-1.649251e-01
8.413628e-01	1.224652e-03	-1.697671e-01
8.276032e-01	1.169963e-03	-1.749906e-01
8.131471e-01	1.099260e-03	-1.790786e-01
7.902404e-01	1.057410e-03	-1.843080e-01
7.637280e-01	9.635171e-04	-1.878991e-01
7.273293e-01	8.613979e-04	-1.937581e-01
6.823516e-01	7.789076e-04	-1.961037e-01
6.173908e-01	6.873422e-04	-1.984304e-01
5.356699e-01	5.280672e-04	-1.910808e-01
4.247880e-01	3.839520e-04	-1.762311e-01
2.611337e-01	2.680252e-04	-1.249411e-01
1.867223e-02	1.108914e-04	-1.116427e-02
-3.277622e-01	-4.788448e-05	2.512962e-01
-7.635437e-01	-2.122247e-04	1.019520e+00
-4.872691e-01	-3.746311e-04	3.090778e+00
2.990674e+00	-5.609908e-04	2.994948e+00
3.098993e+00	-7.193413e-04	9.574942e-01
2.614347e+00	-8.751953e-04	6.743113e-02
2.231523e+00	-1.020502e-03	-2.001193e-01
1.965767e+00	-1.194268e-03	-3.618821e-01
1.774472e+00	-1.321832e-03	-4.249641e-01
1.608275e+00	-1.440938e-03	-4.723653e-01
1.485356e+00	-1.582835e-03	-4.878578e-01
1.379871e+00	-1.679852e-03	-5.012958e-01
1.292867e+00	-1.758034e-03	-4.984358e-01
1.216100e+00	-1.826713e-03	-4.957392e-01
1.150405e+00	-1.921363e-03	-4.852778e-01
1.090818e+00	-1.965197e-03	-4.761147e-01
1.036966e+00	-1.996583e-03	-4.630120e-01
9.870541e-01	-2.033818e-03	-4.517469e-01
9.369461e-01	-2.074350e-03	-4.363684e-01
8.891748e-01	-2.017451e-03	-4.220318e-01
8.395267e-01	-2.060037e-03	-4.034079e-01
7.883785e-01	-2.136893e-03	-3.830247e-01
7.397215e-01	-2.125535e-03	-3.609911e-01
8.158559e-01	2.135907e-03	-1.436692e-01
8.336712e-01	2.131652e-03	-1.483152e-01
8.447923e-01	2.125240e-03	-1.540559e-01
8.529104e-01	2.026329e-03	-1.597632e-01
8.484763e-01	1.994325e-03	-1.653416e-01
8.419813e-01	1.957693e-03	-1.698919e-01
8.289662e-01	1.878016e-03	-1.752788e-01
8.141746e-01	1.782590e-03	-1.793049e-01
7.909029e-01	1.657256e-03	-1.844625e-01
7.651901e-01	1.541008e-03	-1.882588e-01
7.282198e-01	1.374626e-03	-1.939953e-01
6.836598e-01	1.272514e-03	-1.964796e-01
6.203137e-01	1.051046e-03	-1.993698e-01
5.380803e-01	8.416664e-04	-1.919406e-01