# vtk DataFile Version 2.0
OUTPUT by 3D-VPM
ASCII
DATASET UNSTRUCTURED_GRID
POINTS 820 double
9.510565e-01	0.000000e+00	-3.090170e-01
9.442611e-01	0.000000e+00	-3.078203e-01
9.267277e-01	0.000000e+00	-3.047010e-01
8.963175e-01	0.000000e+00	-2.991555e-01
8.562911e-01	0.000000e+00	-2.916579e-01
8.054250e-01	0.000000e+00	-2.817457e-01
7.470317e-01	0.000000e+00	-2.699633e-01
6.809074e-01	0.000000e+00	-2.559818e-01
6.100852e-01	0.000000e+00	-2.403847e-01
5.354138e-01	0.000000e+00	-2.229691e-01
4.593635e-01	0.000000e+00	-2.042585e-01
3.837764e-01	0.000000e+00	-1.841224e-01
3.103069e-01	0.000000e+00	-1.630077e-01
2.415927e-01	0.000000e+00	-1.409228e-01
1.782654e-01	0.000000e+00	-1.183331e-01
1.234349e-01	0.000000e+00	-9.558566e-02
7.662509e-02	0.000000e+00	-7.318920e-02
4.106998e-02	0.000000e+00	-5.193053e-02
1.528206e-02	0.000000e+00	-3.215886e-02
2.347037e-03	0.000000e+00	-1.488740e-02
0.000000e+00	0.000000e+00	0.000000e+00
1.064939e-02	0.000000e+00	1.066461e-02
3.126595e-02	0.000000e+00	1.703450e-02
6.375031e-02	0.000000e+00	1.787236e-02
1.050105e-01	0.000000e+00	1.417221e-02
1.560448e-01	0.000000e+00	4.777214e-03
2.137742e-01	0.000000e+00	-9.048270e-03
2.782849e-01	0.000000e+00	-2.799567e-02
3.468570e-01	0.000000e+00	-5.051783e-02
4.187060e-01	0.000000e+00	-7.662000e-02
4.916930e-01	0.000000e+00	-1.047585e-01
5.642168e-01	0.000000e+00	-1.343226e-01
6.348639e-01	0.000000e+00	-1.641238e-01
7.013280e-01	0.000000e+00	-1.931337e-01
7.630418e-01	0.000000e+00	-2.206893e-01
8.172084e-01	0.000000e+00	-2.454799e-01
8.641863e-01	0.000000e+00	-2.673591e-01
9.009752e-01	0.000000e+00	-2.848204e-01
9.288372e-01	0.000000e+00	-2.982085e-01
9.448555e-01	0.000000e+00	-3.059908e-01
9.510565e-01	0.000000e+00	-3.090170e-01
9.510565e-01	1.052632e+00	-3.090170e-01
9.442611e-01	1.052632e+00	-3.078203e-01
9.267277e-01	1.052632e+00	-3.047010e-01
8.963175e-01	1.052632e+00	-2.991555e-01
8.562911e-01	1.052632e+00	-2.916579e-01
8.054250e-01	1.052632e+00	-2.817457e-01
7.470317e-01	1.052632e+00	-2.699633e-01
6.809074e-01	1.052632e+00	-2.559818e-01
6.100852e-01	1.052632e+00	-2.403847e-01
5.354138e-01	1.052632e+00	-2.229691e-01
4.593635e-01	1.052632e+00	-2.042585e-01
3.837764e-01	1.052632e+00	-1.841224e-01
3.103069e-01	1.052632e+00	-1.630077e-01
2.415927e-01	1.052632e+00	-1.409228e-01
1.782654e-01	1.052632e+00	-1.183331e-01
1.234349e-01	1.052632e+00	-9.558566e-02
7.662509e-02	1.052632e+00	-7.318920e-02
4.106998e-02	1.052632e+00	-5.193053e-02
1.528206e-02	1.052632e+00	-3.215886e-02
2.347037e-03	1.052632e+00	-1.488740e-02
0.000000e+00	1.052632e+00	0.000000e+00
1.064939e-02	1.052632e+00	1.066461e-02
3.126595e-02	1.052632e+00	1.703450e-02
6.375031e-02	1.052632e+00	1.787236e-02
1.050105e-01	1.052632e+00	1.417221e-02
1.560448e-01	1.052632e+00	4.777214e-03
2.137742e-01	1.052632e+00	-9.048270e-03
2.782849e-01	1.052632e+00	-2.799567e-02
3.468570e-01	1.052632e+00	-5.051783e-02
4.187060e-01	1.052632e+00	-7.662000e-02
4.916930e-01	1.052632e+00	-1.047585e-01
5.642168e-01	1.052632e+00	-1.343226e-01
6.348639e-01	1.052632e+00	-1.641238e-01
7.013280e-01	1.052632e+00	-1.931337e-01
7.630418e-01	1.052632e+00	-2.206893e-01
8.172084e-01	1.052632e+00	-2.454799e-01
8.641863e-01	1.052632e+00	-2.673591e-01
9.009752e-01	1.052632e+00	-2.848204e-01
9.288372e-01	1.052632e+00	-2.982085e-01
9.448555e-01	1.052632e+00	-3.059908e-01
9.510565e-01	1.052632e+00	-3.090170e-01
9.510565e-01	2.105263e+00	-3.090170e-01
9.442611e-01	2.105263e+00	-3.078203e-01
9.267277e-01	2.105263e+00	-3.047010e-01
8.963175e-01	2.105263e+00	-2.991555e-01
8.562911e-01	2.105263e+00	-2.916579e-01
8.054250e-01	2.105263e+00	-2.817457e-01
7.470317e-01	2.105263e+00	-2.699633e-01
6.809074e-01	2.105263e+00	-2.559818e-01
6.100852e-01	2.105263e+00	-2.403847e-01
5.354138e-01	2.105263e+00	-2.229691e-01
4.593635e-01	2.105263e+00	-2.042585e-01
3.837764e-01	2.105263e+00	-1.841224e-01
3.103069e-01	2.105263e+00	-1.630077e-01
2.415927e-01	2.105263e+00	-1.409228e-01
1.782654e-01	2.105263e+00	-1.183331e-01
1.234349e-01	2.105263e+00	-9.558566e-02
7.662509e-02	2.105263e+00	-7.318920e-02
4.106998e-02	2.105263e+00	-5.193053e-02
1.528206e-02	2.105263e+00	-3.215886e-02
2.347037e-03	2.105263e+00	-1.488740e-02
0.000000e+00	2.105263e+00	0.000000e+00
1.064939e-02	2.105263e+00	1.066461e-02
3.126595e-02	2.105263e+00	1.703450e-02
6.375031e-02	2.105263e+00	1.787236e-02
1.050105e-01	2.105263e+00	1.417221e-02
1.560448e-01	2.105263e+00	4.777214e-03
2.137742e-01	2.105263e+00	-9.048270e-03
2.782849e-01	2.105263e+00	-2.799567e-02
3.468570e-01	2.105263e+00	-5.051783e-02
4.187060e-01	2.105263e+00	-7.662000e-02
4.916930e-01	2.105263e+00	-1.047585e-01
5.642168e-01	2.105263e+00	-1.343226e-01
6.348639e-01	2.105263e+00	-1.641238e-01
7.013280e-01	2.105263e+00	-1.931337e-01
7.630418e-01	2.105263e+00	-2.206893e-01
8.172084e-01	2.105263e+00	-2.454799e-01
8.641863e-01	2.105263e+00	-2.673591e-01
9.009752e-01	2.105263e+00	-2.848204e-01
9.288372e-01	2.105263e+00	-2.982085e-01
9.448555e-01	2.105263e+00	-3.059908e-01
9.510565e-01	2.105263e+00	-3.090170e-01
9.510565e-01	3.157895e+00	-3.090170e-01
9.442611e-01	3.157895e+00	-3.078203e-01
9.267277e-01	3.157895e+00	-3.047010e-01
8.963175e-01	3.157895e+00	-2.991555e-01
8.562911e-01	3.157895e+00	-2.916579e-01
8.054250e-01	3.157895e+00	-2.817457e-01
7.470317e-01	3.157895e+00	-2.699633e-01
6.809074e-01	3.157895e+00	-2.559818e-01
6.100852e-01	3.157895e+00	-2.403847e-01
5.354138e-01	3.157895e+00	-2.229691e-01
4.593635e-01	3.157895e+00	-2.042585e-01
3.837764e-01	3.157895e+00	-1.841224e-01
3.103069e-01	3.157895e+00	-1.630077e-01
2.415927e-01	3.157895e+00	-1.409228e-01
1.782654e-01	3.157895e+00	-1.183331e-01
1.234349e-01	3.157895e+00	-9.558566e-02
7.662509e-02	3.157895e+00	-7.318920e-02
4.106998e-02	3.157895e+00	-5.193053e-02
1.528206e-02	3.157895e+00	-3.215886e-02
2.347037e-03	3.157895e+00	-1.488740e-02
0.000000e+00	3.157895e+00	0.000000e+00
1.064939e-02	3.157895e+00	1.066461e-02
3.126595e-02	3.157895e+00	1.703450e-02
6.375031e-02	3.157895e+00	1.787236e-02
1.050105e-01	3.157895e+00	1.417221e-02
1.560448e-01	3.157895e+00	4.777214e-03
2.137742e-01	3.157895e+00	-9.048270e-03
2.782849e-01	3.157895e+00	-2.799567e-02
3.468570e-01	3.157895e+00	-5.051783e-02
4.187060e-01	3.157895e+00	-7.662000e-02
4.916930e-01	3.157895e+00	-1.047585e-01
5.642168e-01	3.157895e+00	-1.343226e-01
6.348639e-01	3.157895e+00	-1.641238e-01
7.013280e-01	3.157895e+00	-1.931337e-01
7.630418e-01	3.157895e+00	-2.206893e-01
8.172084e-01	3.157895e+00	-2.454799e-01
8.641863e-01	3.157895e+00	-2.673591e-01
9.009752e-01	3.157895e+00	-2.848204e-01
9.288372e-01	3.157895e+00	-2.982085e-01
9.448555e-01	3.157895e+00	-3.059908e-01
9.510565e-01	3.157895e+00	-3.090170e-01
9.510565e-01	4.210526e+00	-3.090170e-01
9.442611e-01	4.210526e+00	-3.078203e-01
9.267277e-01	4.210526e+00	-3.047010e-01
8.963175e-01	4.210526e+00	-2.991555e-01
8.562911e-01	4.210526e+00	-2.916579e-01
8.054250e-01	4.210526e+00	-2.817457e-01
7.470317e-01	4.210526e+00	-2.699633e-01
6.809074e-01	4.210526e+00	-2.559818e-01
6.100852e-01	4.210526e+00	-2.403847e-01
5.354138e-01	4.210526e+00	-2.229691e-01
4.593635e-01	4.210526e+00	-2.042585e-01
3.837764e-01	4.210526e+00	-1.841224e-01
3.103069e-01	4.210526e+00	-1.630077e-01
2.415927e-01	4.210526e+00	-1.409228e-01
1.782654e-01	4.210526e+00	-1.183331e-01
1.234349e-01	4.210526e+00	-9.558566e-02
7.662509e-02	4.210526e+00	-7.318920e-02
4.106998e-02	4.210526e+00	-5.193053e-02
1.528206e-02	4.210526e+00	-3.215886e-02
2.347037e-03	4.210526e+00	-1.488740e-02
0.000000e+00	4.210526e+00	0.000000e+00
1.064939e-02	4.210526e+00	1.066461e-02
3.126595e-02	4.210526e+00	1.703450e-02
6.375031e-02	4.210526e+00	1.787236e-02
1.050105e-01	4.210526e+00	1.417221e-02
1.560448e-01	4.210526e+00	4.777214e-03
2.137742e-01	4.210526e+00	-9.048270e-03
2.782849e-01	4.210526e+00	-2.799567e-02
3.468570e-01	4.210526e+00	-5.051783e-02
4.187060e-01	4.210526e+00	-7.662000e-02
4.916930e-01	4.210526e+00	-1.047585e-01
5.642168e-01	4.210526e+00	-1.343226e-01
6.348639e-01	4.210526e+00	-1.641238e-01
7.013280e-01	4.210526e+00	-1.931337e-01
7.630418e-01	4.210526e+00	-2.206893e-01
8.172084e-01	4.210526e+00	-2.454799e-01
8.641863e-01	4.210526e+00	-2.673591e-01
9.009752e-01	4.210526e+00	-2.848204e-01
9.288372e-01	4.210526e+00	-2.982085e-01
9.448555e-01	4.210526e+00	-3.059908e-01
9.510565e-01	4.210526e+00	-3.090170e-01
9.510565e-01	5.263158e+00	-3.090170e-01
9.442611e-01	5.263158e+00	-3.078203e-01
9.267277e-01	5.263158e+00	-3.047010e-01
8.963175e-01	5.263158e+00	-2.991555e-01
8.562911e-01	5.263158e+00	-2.916579e-01
8.054250e-01	5.263158e+00	-2.817457e-01
7.470317e-01	5.263158e+00	-2.699633e-01
6.809074e-01	5.263158e+00	-2.559818e-01
6.100852e-01	5.263158e+00	-2.403847e-01
5.354138e-01	5.263158e+00	-2.229691e-01
4.593635e-01	5.263158e+00	-2.042585e-01
3.837764e-01	5.263158e+00	-1.841224e-01
3.103069e-01	5.263158e+00	-1.630077e-01
2.415927e-01	5.263158e+00	-1.409228e-01
1.782654e-01	5.263158e+00	-1.183331e-01
1.234349e-01	5.263158e+00	-9.558566e-02
7.662509e-02	5.263158e+00	-7.318920e-02
4.106998e-02	5.263158e+00	-5.193053e-02
1.528206e-02	5.263158e+00	-3.215886e-02
2.347037e-03	5.263158e+00	-1.488740e-02
0.000000e+00	5.263158e+00	0.000000e+00
1.064939e-02	5.263158e+00	1.066461e-02
3.126595e-02	5.263158e+00	1.703450e-02
6.375031e-02	5.263158e+00	1.787236e-02
1.050105e-01	5.263158e+00	1.417221e-02
1.560448e-01	5.263158e+00	4.777214e-03
2.137742e-01	5.263158e+00	-9.048270e-03
2.782849e-01	5.263158e+00	-2.799567e-02
3.468570e-01	5.263158e+00	-5.051783e-02
4.187060e-01	5.263158e+00	-7.662000e-02
4.916930e-01	5.263158e+00	-1.047585e-01
5.642168e-01	5.263158e+00	-1.343226e-01
6.348639e-01	5.263158e+00	-1.641238e-01
7.013280e-01	5.263158e+00	-1.931337e-01
7.630418e-01	5.263158e+00	-2.206893e-01
8.172084e-01	5.263158e+00	-2.454799e-01
8.641863e-01	5.263158e+00	-2.673591e-01
9.009752e-01	5.263158e+00	-2.848204e-01
9.288372e-01	5.263158e+00	-2.982085e-01
9.448555e-01	5.263158e+00	-3.059908e-01
9.510565e-01	5.263158e+00	-3.090170e-01
9.510565e-01	6.315789e+00	-3.090170e-01
9.442611e-01	6.315789e+00	-3.078203e-01
[...]
CELL_DATA 760
VECTORS V double
8.414540e-01	-6.899237e-02	-1.481770e-01
8.655839e-01	-6.881886e-02	-1.539927e-01
8.836099e-01	-6.836933e-02	-1.611347e-01
8.953889e-01	-6.757535e-02	-1.677201e-01
8.978685e-01	-6.641503e-02	-1.749666e-01
8.991967e-01	-6.487072e-02	-1.814367e-01
8.921754e-01	-6.293216e-02	-1.886439e-01
8.848823e-01	-6.057534e-02	-1.948768e-01
8.705507e-01	-5.777192e-02	-2.030387e-01
8.549294e-01	-5.448629e-02	-2.103372e-01
8.297163e-01	-5.069952e-02	-2.210336e-01
7.988233e-01	-4.639741e-02	-2.295769e-01
7.514501e-01	-4.160587e-02	-2.415173e-01
6.894724e-01	-3.637977e-02	-2.459442e-01
6.028761e-01	-3.075693e-02	-2.501142e-01
4.722712e-01	-2.485995e-02	-2.259613e-01
2.706507e-01	-1.869678e-02	-1.618240e-01
-1.679469e-02	-1.243327e-02	1.287654e-02
-4.211133e-01	-5.870938e-03	5.622906e-01
-3.424037e-01	7.043775e-04	2.171888e+00
2.325759e+00	8.411552e-03	2.329082e+00
2.540676e+00	1.517125e-02	7.849916e-01
2.209849e+00	2.211245e-02	5.699802e-02
1.925026e+00	2.895504e-02	-1.726331e-01
1.719812e+00	3.593985e-02	-3.166036e-01
1.570120e+00	4.290184e-02	-3.760243e-01
1.435332e+00	4.983525e-02	-4.215701e-01
1.336560e+00	5.656157e-02	-4.389866e-01
1.250563e+00	6.296249e-02	-4.543195e-01
1.181631e+00	6.884403e-02	-4.555512e-01
1.121773e+00	7.407981e-02	-4.572871e-01
1.071561e+00	7.854464e-02	-4.520190e-01
1.027437e+00	8.217195e-02	-4.484504e-01
9.871739e-01	8.495405e-02	-4.407797e-01
9.499629e-01	8.694247e-02	-4.347713e-01
9.115199e-01	8.823513e-02	-4.245265e-01
8.743607e-01	8.896032e-02	-4.150006e-01
8.341931e-01	8.926701e-02	-4.008450e-01
7.910701e-01	8.931071e-02	-3.843324e-01
7.483222e-01	8.926499e-02	-3.651883e-01
8.268947e-01	-4.832281e-02	-1.456131e-01
8.473941e-01	-4.819858e-02	-1.507566e-01
8.618704e-01	-4.788026e-02	-1.571703e-01
8.705717e-01	-4.731681e-02	-1.630714e-01
8.703393e-01	-4.648559e-02	-1.696020e-01
8.689728e-01	-4.536779e-02	-1.753382e-01
8.589930e-01	-4.395277e-02	-1.816277e-01
8.481452e-01	-4.222554e-02	-1.867862e-01
8.294617e-01	-4.017135e-02	-1.934556e-01
8.085020e-01	-3.777636e-02	-1.989148e-01
7.768580e-01	-3.500996e-02	-2.069524e-01
7.382350e-01	-3.191602e-02	-2.121642e-01
6.818922e-01	-2.848261e-02	-2.191613e-01
6.088995e-01	-2.476015e-02	-2.172027e-01
5.091671e-01	-2.077462e-02	-2.112373e-01
3.612539e-01	-1.660901e-02	-1.728443e-01
1.379546e-01	-1.226507e-02	-8.248411e-02
-1.807759e-01	-7.856108e-03	1.386014e-01
-6.023958e-01	-3.242310e-03	8.043477e-01
-4.195088e-01	1.373591e-03	2.660970e+00
2.680998e+00	6.769615e-03	2.684829e+00
2.842880e+00	1.148211e-02	8.783634e-01
2.432418e+00	1.629270e-02	6.273866e-02
2.096737e+00	2.099863e-02	-1.880319e-01
1.860036e+00	2.575851e-02	-3.424177e-01
1.689296e+00	3.045275e-02	-4.045657e-01
1.538783e+00	3.507553e-02	-4.519546e-01
1.427575e+00	3.950881e-02	-4.688800e-01
1.330611e+00	4.368086e-02	-4.834003e-01
1.251782e+00	4.748118e-02	-4.825966e-01
1.182503e+00	5.080585e-02	-4.820435e-01
1.123248e+00	5.362064e-02	-4.738221e-01
1.070320e+00	5.587785e-02	-4.671679e-01
1.021683e+00	5.758194e-02	-4.561883e-01
9.765461e-01	5.877412e-02	-4.469377e-01
9.307296e-01	5.952516e-02	-4.334732e-01
8.867312e-01	5.992340e-02	-4.208720e-01
8.402861e-01	6.006957e-02	-4.037728e-01
7.917042e-01	6.006586e-02	-3.846405e-01
7.448211e-01	6.002257e-02	-3.634798e-01
8.206059e-01	-2.041445e-02	-1.445057e-01
8.397765e-01	-2.036331e-02	-1.494014e-01
8.527736e-01	-2.023249e-02	-1.555114e-01
8.599478e-01	-1.999716e-02	-1.610814e-01
8.581738e-01	-1.963853e-02	-1.672313e-01
8.552256e-01	-1.914101e-02	-1.725643e-01
8.436221e-01	-1.849475e-02	-1.783776e-01
8.310405e-01	-1.769421e-02	-1.830193e-01
8.105074e-01	-1.671861e-02	-1.890348e-01
7.871643e-01	-1.560095e-02	-1.936651e-01
7.531217e-01	-1.432380e-02	-2.006291e-01
7.118406e-01	-1.290976e-02	-2.045786e-01
6.520666e-01	-1.135494e-02	-2.095753e-01
5.749675e-01	-9.689102e-03	-2.050987e-01
4.702490e-01	-7.922503e-03	-1.950914e-01
3.155896e-01	-6.087699e-03	-1.509960e-01
8.370422e-02	-4.181415e-03	-5.004738e-02
-2.475329e-01	-2.251532e-03	1.897842e-01
-6.758687e-01	-2.372269e-04	9.024522e-01
-4.505295e-01	1.769646e-03	2.857736e+00
2.822007e+00	4.097122e-03	2.826040e+00
2.960530e+00	6.103702e-03	9.147134e-01
2.516988e+00	8.115797e-03	6.491997e-02
2.159997e+00	1.003835e-02	-1.937050e-01
1.909830e+00	1.192760e-02	-3.515844e-01
1.729880e+00	1.373000e-02	-4.142850e-01
1.572464e+00	1.544109e-02	-4.618473e-01
1.455866e+00	1.702036e-02	-4.781719e-01
1.354470e+00	1.845061e-02	-4.920680e-01
1.271545e+00	1.971068e-02	-4.902157e-01
1.198646e+00	2.077498e-02	-4.886240e-01
1.136362e+00	2.164096e-02	-4.793539e-01
1.080457e+00	2.227662e-02	-4.715925e-01
1.029097e+00	2.274716e-02	-4.594988e-01
9.814813e-01	2.304886e-02	-4.491964e-01
9.334528e-01	2.321347e-02	-4.347414e-01
8.875046e-01	2.327608e-02	-4.212391e-01
8.393964e-01	2.327377e-02	-4.033453e-01
7.894834e-01	2.324264e-02	-3.835615e-01
7.416915e-01	2.321651e-02	-3.619525e-01
8.183120e-01	-1.022478e-02	-1.441017e-01
8.367849e-01	-1.020375e-02	-1.488692e-01
8.490486e-01	-1.014749e-02	-1.548321e-01
8.554488e-01	-1.004174e-02	-1.602387e-01
8.528784e-01	-9.876631e-03	-1.661994e-01
8.490996e-01	-9.628887e-03	-1.713282e-01
8.366296e-01	-9.315543e-03	-1.768991e-01
8.228460e-01	-8.929565e-03	-1.812146e-01
8.012171e-01	-8.444657e-03	-1.868681e-01
7.770609e-01	-7.881676e-03	-1.911793e-01
7.416831e-01	-7.241282e-03	-1.975819e-01
6.986686e-01	-6.504338e-03	-2.007931e-01
6.371540e-01	-5.699404e-03	-2.047823e-01
5.578976e-01	-4.824546e-03	-1.990097e-01
4.505568e-01	-3.891160e-03	-1.869217e-01
2.923601e-01	-2.916406e-03	-1.398816e-01
5.600874e-02	-1.903512e-03	-3.348804e-02
-2.816614e-01	-8.707765e-04	2.159506e-01
-7.134344e-01	2.086433e-04	9.526117e-01
-4.663513e-01	1.269084e-03	2.958095e+00
2.893523e+00	2.509871e-03	2.897658e+00
3.019732e+00	3.586423e-03	9.330053e-01
2.559165e+00	4.643927e-03	6.600784e-02
2.191200e+00	5.645711e-03	-1.965032e-01
1.934126e+00	6.624075e-03	-3.560570e-01
1.749472e+00	7.543103e-03	-4.189769e-01
1.588561e+00	8.406525e-03	-4.665751e-01
1.469274e+00	9.195474e-03	-4.825758e-01
1.365663e+00	9.910839e-03	-4.961344e-01
1.281112e+00	1.052751e-02	-4.939039e-01
1.206675e+00	1.106652e-02	-4.918970e-01
1.142449e+00	1.149874e-02	-4.819217e-01
1.085131e+00	1.182527e-02	-4.736323e-01
1.032884e+00	1.207464e-02	-4.611895e-01
9.841424e-01	1.223387e-02	-4.504143e-01
9.351214e-01	1.231484e-02	-4.355185e-01
8.882946e-01	1.235878e-02	-4.216140e-01
8.394353e-01	1.236899e-02	-4.033640e-01
7.889598e-01	1.236216e-02	-3.833071e-01
7.408191e-01	1.235350e-02	-3.615268e-01
8.170764e-01	-5.656197e-03	-1.438842e-01
8.352473e-01	-5.644415e-03	-1.485956e-01
8.470798e-01	-5.613407e-03	-1.544731e-01
8.530415e-01	-5.552426e-03	-1.597878e-01
8.497247e-01	-5.469411e-03	-1.655848e-01
8.454851e-01	-5.329929e-03	-1.705989e-01
8.328140e-01	-5.143756e-03	-1.760924e-01
8.186298e-01	-4.925556e-03	-1.802861e-01
7.963663e-01	-4.655054e-03	-1.857367e-01
7.713655e-01	-4.320852e-03	-1.897781e-01
7.351214e-01	-3.936575e-03	-1.958339e-01
6.912904e-01	-3.501031e-03	-1.986726e-01
6.287379e-01	-3.030129e-03	-2.020774e-01
5.481031e-01	-2.610500e-03	-1.955158e-01
4.392008e-01	-2.067028e-03	-1.822105e-01
2.789865e-01	-1.460899e-03	-1.334829e-01
4.002475e-02	-8.523585e-04	-2.393109e-02
-3.015520e-01	-2.334094e-04	2.312008e-01
-7.350425e-01	4.142642e-04	9.814639e-01
-4.753800e-01	1.043963e-03	3.015365e+00
2.935704e+00	1.785950e-03	2.939900e+00
3.054246e+00	2.433423e-03	9.436690e-01
2.583278e+00	3.059731e-03	6.662978e-02
2.209051e+00	3.649007e-03	-1.981040e-01
1.947884e+00	4.217372e-03	-3.585898e-01
1.760398e+00	4.739003e-03	-4.215936e-01
1.597456e+00	5.223866e-03	-4.691876e-01
1.476709e+00	5.766601e-03	-4.850178e-01
1.371821e+00	6.169669e-03	-4.983716e-01
1.286129e+00	6.506831e-03	-4.958383e-01
1.210808e+00	6.791710e-03	-4.935820e-01
1.146061e+00	7.014539e-03	-4.834454e-01
1.088164e+00	7.212945e-03	-4.749563e-01
1.035024e+00	7.357162e-03	-4.621451e-01
9.854024e-01	7.440518e-03	-4.509910e-01
9.358345e-01	7.489513e-03	-4.358506e-01
8.888370e-01	7.525486e-03	-4.218715e-01
8.395980e-01	7.530862e-03	-4.034421e-01
7.887900e-01	7.527636e-03	-3.832246e-01
7.403650e-01	7.522723e-03	-3.613052e-01
8.163347e-01	-3.280240e-03	-1.437535e-01
8.342819e-01	-3.273214e-03	-1.484239e-01
8.458038e-01	-3.254277e-03	-1.542404e-01
8.518073e-01	-3.216307e-03	-1.595566e-01
8.483027e-01	-3.176731e-03	-1.653077e-01
8.434364e-01	-3.101825e-03	-1.701856e-01
8.303874e-01	-2.987873e-03	-1.755793e-01
8.158831e-01	-2.833581e-03	-1.796812e-01
7.930519e-01	-2.661920e-03	-1.849637e-01
7.676279e-01	-2.430067e-03	-1.888586e-01
7.309684e-01	-2.191411e-03	-1.947275e-01
6.865863e-01	-1.964733e-03	-1.973207e-01
6.247472e-01	-1.652070e-03	-2.007948e-01
5.436559e-01	-1.434234e-03	-1.939295e-01
4.318908e-01	-1.070185e-03	-1.791778e-01
2.699576e-01	-6.930541e-04	-1.291630e-01
2.979494e-02	-2.980501e-04	-1.781461e-02
-3.140528e-01	9.644331e-05	2.407852e-01
-7.487952e-01	5.083221e-04	9.998272e-01
-4.811547e-01	9.084084e-04	3.051994e+00
2.961729e+00	1.378326e-03	2.965962e+00
3.075582e+00	1.787080e-03	9.502611e-01
2.598275e+00	2.181343e-03	6.701657e-02
2.219857e+00	2.550220e-03	-1.990731e-01
1.955964e+00	2.899326e-03	-3.600773e-01
1.766698e+00	3.225072e-03	-4.231024e-01
1.604180e+00	3.637742e-03	-4.711624e-01
1.482338e+00	3.894128e-03	-4.868665e-01
1.375303e+00	4.135060e-03	-4.996364e-01
1.288961e+00	4.352905e-03	-4.969300e-01
1.213033e+00	4.517250e-03	-4.944890e-01
1.147825e+00	4.622175e-03	-4.841896e-01
1.089719e+00	4.727968e-03	-4.756351e-01
1.036192e+00	4.791685e-03	-4.626667e-01
9.862936e-01	4.840157e-03	-4.513988e-01
9.367205e-01	4.878546e-03	-4.362633e-01
8.893261e-01	4.909738e-03	-4.221036e-01
8.395506e-01	4.909957e-03	-4.034194e-01
7.886062e-01	4.906883e-03	-3.831354e-01
7.400666e-01	4.903754e-03	-3.611596e-01
8.158973e-01	-2.040174e-03	-1.436765e-01
8.337245e-01	-2.036302e-03	-1.483247e-01
8.450694e-01	-2.026628e-03	-1.541064e-01
8.511128e-01	-2.010029e-03	-1.594265e-01
8.473587e-01	-1.968634e-03	-1.651238e-01
8.421872e-01	-2.013929e-03	-1.699335e-01
8.286590e-01	-1.937849e-03	-1.752138e-01
8.139936e-01	-1.799431e-03	-1.792650e-01
7.909132e-01	-1.695852e-03	-1.844649e-01
7.651898e-01	-1.552912e-03	-1.882587e-01
7.290365e-01	-1.395555e-03	-1.942129e-01
6.841187e-01	-1.224320e-03	-1.966115e-01
6.213184e-01	-1.024562e-03	-1.996927e-01
5.395499e-01	-7.451345e-04	-1.924648e-01
4.271376e-01	-5.121014e-04	-1.772059e-01
2.647724e-01	-3.063056e-04	-1.266821e-01
2.314664e-02	-6.539294e-05	-1.383955e-02
-3.221771e-01	1.820945e-04	2.470141e-01
-7.575218e-01	4.381759e-04	1.011479e+00
-4.847719e-01	7.075467e-04	3.074938e+00
2.978825e+00	1.002074e-03	2.983082e+00
3.089445e+00	1.238962e-03	9.545443e-01
2.607820e+00	1.482849e-03	6.726277e-02
2.226805e+00	1.714594e-03	-1.996962e-01
1.961414e+00	1.936633e-03	-3.610807e-01
1.773162e+00	2.151723e-03	-4.246505e-01
1.607483e+00	2.349965e-03	-4.721327e-01
1.483604e+00	2.451121e-03	-4.872824e-01
1.377800e+00	2.596271e-03	-5.005437e-01
1.290950e+00	2.733315e-03	-4.976969e-01
1.214182e+00	2.847415e-03	-4.949574e-01
1.148748e+00	2.940110e-03	-4.845786e-01
1.090440e+00	3.040930e-03	-4.759500e-01
1.036645e+00	3.110763e-03	-4.628688e-01
9.868011e-01	3.241428e-03	-4.516311e-01
9.371380e-01	3.228577e-03	-4.364578e-01
8.896430e-01	3.208471e-03	-4.222541e-01
8.395302e-01	3.206127e-03	-4.034096e-01
7.885018e-01	3.202832e-03	-3.830846e-01
7.398858e-01	3.200568e-03	-3.610713e-01
8.156847e-01	-1.132284e-03	-1.436391e-01
8.334943e-01	-1.129530e-03	-1.482838e-01
8.448874e-01	-1.121210e-03	-1.540733e-01
8.502904e-01	-1.130539e-03	-1.592725e-01
8.485421e-01	-1.089227e-03	-1.653544e-01
8.427679e-01	-1.061166e-03	-1.700507e-01
8.270424e-01	-1.018905e-03	-1.748720e-01
8.124623e-01	-9.904362e-04	-1.789278e-01
7.897198e-01	-9.988570e-04	-1.841865e-01
7.636857e-01	-9.196263e-04	-1.878887e-01
7.266734e-01	-8.186601e-04	-1.935834e-01
6.816449e-01	-6.693637e-04	-1.959006e-01
6.181189e-01	-5.607691e-04	-1.986644e-01
5.359971e-01	-3.629127e-04	-1.911975e-01
4.247118e-01	-2.693566e-04	-1.761995e-01
2.617745e-01	-1.386916e-04	-1.252477e-01
1.937090e-02	-2.234391e-07	-1.158200e-02
-3.269422e-01	1.419185e-04	2.506675e-01
-7.632242e-01	2.903051e-04	1.019093e+00
-4.872808e-01	4.609126e-04	3.090852e+00
2.987628e+00	6.326934e-04	2.991898e+00
3.096797e+00	7.570078e-04	9.568158e-01
2.613590e+00	9.018659e-04	6.741158e-02
2.231085e+00	1.036315e-03	-2.000801e-01
1.964743e+00	1.164137e-03	-3.616934e-01
1.773771e+00	1.283277e-03	-4.247962e-01
1.608647e+00	1.344366e-03	-4.724745e-01
1.485775e+00	1.452488e-03	-4.879956e-01
1.378982e+00	1.527875e-03	-5.009730e-01
1.292130e+00	1.588548e-03	-4.981516e-01
1.215623e+00	1.655816e-03	-4.955446e-01
1.150291e+00	1.799909e-03	-4.852296e-01
1.092006e+00	1.820147e-03	-4.766333e-01
1.039027e+00	1.860556e-03	-4.639327e-01
9.883278e-01	1.870254e-03	-4.523298e-01
9.361213e-01	1.878222e-03	-4.359843e-01
8.887627e-01	1.859093e-03	-4.218362e-01
8.393845e-01	1.880652e-03	-4.033396e-01
7.883315e-01	1.877383e-03	-3.830019e-01
7.397199e-01	1.875869e-03	-3.609904e-01
8.154350e-01	-1.349660e-03	-1.435951e-01
8.330669e-01	-1.349651e-03	-1.482077e-01
8.452146e-01	-1.350114e-03	-1.541329e-01
8.501595e-01	-1.331770e-03	-1.592479e-01
8.459894e-01	-1.287685e-03	-1.648569e-01
8.409596e-01	-1.236108e-03	-1.696858e-01
8.275816e-01	-1.086531e-03	-1.749860e-01
8.137254e-01	-1.157241e-03	-1.792060e-01
7.899365e-01	-9.826198e-04	-1.842371e-01
7.628234e-01	-1.026187e-03	-1.876765e-01
7.257683e-01	-6.645657e-04	-1.933422e-01
6.806677e-01	-7.504671e-04	-1.956197e-01
6.170965e-01	-3.164714e-04	-1.983358e-01
5.351386e-01	-4.139238e-04	-1.908912e-01
4.235231e-01	7.846242e-05	-1.757063e-01
2.598205e-01	4.153123e-04	-1.243128e-01
1.715726e-02	6.086000e-04	-1.025845e-02
-3.296082e-01	6.273494e-04	2.527116e-01
-7.662014e-01	6.747760e-04	1.023069e+00
-4.885186e-01	7.349744e-04	3.098703e+00
2.993121e+00	8.139482e-04	2.997399e+00
3.101472e+00	8.895021e-04	9.582603e-01
2.616796e+00	9.814461e-04	6.749429e-02
2.233292e+00	1.088083e-03	-2.002779e-01
1.966366e+00	1.018786e-03	-3.619922e-01
1.776190e+00	7.989579e-04	-4.253756e-01
1.610083e+00	4.476225e-04	-4.728961e-01
1.486136e+00	6.076913e-04	-4.881140e-01
1.379571e+00	2.573669e-04	-5.011872e-01
1.292566e+00	4.147745e-04	-4.983198e-01
1.216823e+00	1.182376e-04	-4.960338e-01
1.150873e+00	3.044695e-04	-4.854751e-01
1.091240e+00	3.731286e-05	-4.762990e-01
1.037385e+00	5.493916e-05	-4.631994e-01
9.870852e-01	-1.844327e-04	-4.517611e-01
9.369774e-01	-9.735297e-05	-4.363830e-01
8.895803e-01	-1.128870e-04	-4.222243e-01
8.402306e-01	-1.186893e-04	-4.037461e-01
7.882522e-01	-1.135303e-04	-3.829633e-01
7.396539e-01	-1.124409e-04	-3.609581e-01
8.156831e-01	3.399642e-05	-1.436388e-01
8.335253e-01	3.379517e-05	-1.482893e-01
8.441746e-01	3.195980e-05	-1.539433e-01
8.486606e-01	5.180289e-05	-1.589671e-01
8.466060e-01	5.001180e-05	-1.649771e-01
8.391911e-01	4.975350e-05	-1.693290e-01
8.259938e-01	4.996034e-05	-1.746503e-01
8.108774e-01	5.375015e-05	-1.785788e-01
7.880098e-01	1.022868e-04	-1.837877e-01
7.594851e-01	8.683650e-05	-1.868552e-01
7.230333e-01	7.685836e-05	-1.926136e-01
6.771402e-01	4.548568e-05	-1.946059e-01
6.132025e-01	-1.462020e-05	-1.970843e-01
5.305448e-01	2.184626e-05	-1.892526e-01
4.110366e-01	1.509082e-05	-1.705261e-01
2.517616e-01	1.329076e-05	-1.204570e-01
1.440453e-02	1.206213e-05	-8.612575e-03
-3.285225e-01	1.034068e-05	2.518792e-01
-7.661228e-01	8.047408e-06	1.022964e+00
-4.887685e-01	5.423751e-06	3.100289e+00
2.995276e+00	2.072371e-06	2.999556e+00
3.104314e+00	-1.041246e-06	9.591382e-01
2.620086e+00	-4.370190e-06	6.757915e-02
2.231504e+00	-7.797753e-06	-2.001176e-01
1.958661e+00	-1.150159e-05	-3.605738e-01
1.763826e+00	1.859396e-05	-4.224146e-01
1.606123e+00	-5.242341e-05	-4.717330e-01
1.482909e+00	-1.451393e-06	-4.870540e-01
1.376598e+00	-1.452221e-05	-5.001069e-01
1.290339e+00	4.660805e-08	-4.974612e-01
1.214212e+00	-1.042763e-05	-4.949696e-01
1.149369e+00	-9.301066e-05	-4.848408e-01
1.088562e+00	-5.446229e-05	-4.751299e-01
1.036024e+00	-5.357595e-05	-4.625915e-01
9.855495e-01	-5.164861e-05	-4.510583e-01
9.376250e-01	-5.117017e-05	-4.366846e-01
8.882480e-01	-4.989243e-05	-4.215919e-01
8.393014e-01	-7.041254e-05	-4.032996e-01
7.886847e-01	-6.893438e-05	-3.831735e-01
7.398868e-01	-6.883761e-05	-3.610718e-01
8.154688e-01	1.460787e-03	-1.436011e-01
8.331981e-01	1.460955e-03	-1.482311e-01
8.444794e-01	1.462141e-03	-1.539988e-01
8.497800e-01	1.445876e-03	-1.591768e-01
8.460277e-01	1.404863e-03	-1.648644e-01
8.409600e-01	1.444137e-03	-1.696859e-01
8.275174e-01	1.281994e-03	-1.749724e-01
8.129624e-01	1.285369e-03	-1.790379e-01
7.895071e-01	1.097730e-03	-1.841369e-01
7.631568e-01	1.139458e-03	-1.877585e-01
7.263072e-01	7.813416e-04	-1.934858e-01
6.818803e-01	7.896610e-04	-1.959682e-01
6.174681e-01	3.575650e-04	-1.984553e-01
5.346655e-01	4.802553e-04	-1.907225e-01
4.236677e-01	-4.619560e-05	-1.757663e-01
2.598773e-01	-3.847988e-04	-1.243400e-01
1.721909e-02	-5.806656e-04	-1.029542e-02
-3.295075e-01	-6.043301e-04	2.526344e-01
-7.660676e-01	-6.826408e-04	1.022890e+00
-4.884546e-01	-7.471257e-04	3.098297e+00
2.992802e+00	-8.340378e-04	2.997079e+00
3.101187e+00	-9.190196e-04	9.581722e-01
2.616577e+00	-9.892937e-04	6.748865e-02
2.233114e+00	-1.106402e-03	-2.002620e-01
1.966957e+00	-1.047331e-03	-3.621009e-01
1.775376e+00	-8.383354e-04	-4.251807e-01
1.609868e+00	-4.645858e-04	-4.728331e-01
1.486634e+00	-6.633382e-04	-4.882775e-01
1.379598e+00	-3.278486e-04	-5.011969e-01
1.292616e+00	-4.220479e-04	-4.983390e-01
1.215662e+00	-1.420826e-04	-4.955608e-01
1.150282e+00	-3.149542e-04	-4.852258e-01
1.091782e+00	-5.740103e-05	-4.765353e-01
1.037425e+00	-1.299744e-04	-4.632171e-01
9.871252e-01	2.288436e-06	-4.517794e-01
9.370086e-01	-5.818027e-05	-4.363975e-01
8.892049e-01	-3.063056e-05	-4.220461e-01
8.395237e-01	-2.192217e-05	-4.034064e-01
7.883466e-01	-2.636837e-05	-3.830092e-01
7.396687e-01	-2.735772e-05	-3.609654e-01
8.156550e-01	1.267930e-03	-1.436339e-01
8.334393e-01	1.265333e-03	-1.482740e-01
8.447858e-01	1.258731e-03	-1.540547e-01
8.501595e-01	1.253285e-03	-1.592479e-01
8.464918e-01	1.142679e-03	-1.649549e-01
8.415370e-01	1.120398e-03	-1.698023e-01
8.283119e-01	1.049158e-03	-1.751404e-01
8.135791e-01	1.016999e-03	-1.791738e-01
7.899172e-01	9.766902e-04	-1.842326e-01
7.636635e-01	8.939799e-04	-1.878832e-01
7.276355e-01	8.008271e-04	-1.938397e-01
6.826757e-01	6.946626e-04	-1.961968e-01
6.177518e-01	6.430130e-04	-1.985464e-01
5.360858e-01	4.922763e-04	-1.912291e-01
4.253294e-01	3.873671e-04	-1.764557e-01
2.618531e-01	2.418337e-04	-1.252853e-01
1.952529e-02	9.115986e-05	-1.167432e-02
-3.261304e-01	-6.118976e-05	2.500451e-01
-7.621031e-01	-2.197133e-04	1.017597e+00
-4.871539e-01	-3.769308e-04	3.090047e+00
2.986753e+00	-5.575986e-04	2.991021e+00
3.097615e+00	-7.111204e-04	9.570687e-01
2.613785e+00	-8.621614e-04	6.741662e-02
2.230573e+00	-1.003169e-03	-2.000341e-01
1.964318e+00	-1.136929e-03	-3.616152e-01
1.774006e+00	-1.293145e-03	-4.248526e-01
1.608356e+00	-1.403364e-03	-4.723889e-01
1.485043e+00	-1.534477e-03	-4.877551e-01
1.379633e+00	-1.590616e-03	-5.012097e-01
1.292712e+00	-1.689984e-03	-4.983763e-01
1.215581e+00	-1.749914e-03	-4.955274e-01
1.150344e+00	-1.796010e-03	-4.852521e-01
1.091165e+00	-1.861026e-03	-4.762662e-01
1.036738e+00	-1.909539e-03	-4.629104e-01
9.869003e-01	-1.899388e-03	-4.516765e-01
9.368632e-01	-1.920521e-03	-4.363298e-01
8.891293e-01	-1.838019e-03	-4.220102e-01
8.395073e-01	-1.848138e-03	-4.033986e-01
7.883787e-01	-1.848195e-03	-3.830248e-01
7.397353e-01	-1.847269e-03	-3.609979e-01
8.159045e-01	2.119169e-03	-1.436778e-01
8.337340e-01	2.118981e-03	-1.483264e-01
8.448722e-01	2.036807e-03	-1.540705e-01
8.529910e-01	2.016602e-03	-1.597783e-01
8.485339e-01	1.979698e-03	-1.653528e-01
8.426268e-01	1.942705e-03	-1.700222e-01
8.290784e-01	1.863877e-03	-1.753025e-01
8.139950e-01	1.776537e-03	-1.792654e-01
7.911758e-01	1.668398e-03	-1.845261e-01
7.654656e-01	1.526895e-03	-1.883266e-01
7.289122e-01	1.362518e-03	-1.941798e-01
6.840000e-01	1.262207e-03	-1.965774e-01
6.202386e-01	1.042034e-03	-1.993457e-01
5.385024e-01	8.306770e-04	-1.920911e-01