# vtk DataFile Version 2.0
OUTPUT by 3D-VPM
ASCII
DATASET UNSTRUCTURED_GRID
POINTS 820 double
9.510565e-01	0.000000e+00	-3.090170e-01
9.442611e-01	0.000000e+00	-3.078203e-01
9.267277e-01	0.000000e+00	-3.047010e-01
8.963175e-01	0.000000e+00	-2.991555e-01
8.562911e-01	0.000000e+00	-2.916579e-01
8.054250e-01	0.000000e+00	-2.817457e-01
7.470317e-01	0.000000e+00	-2.699633e-01
6.809074e-01	0.000000e+00	-2.559818e-01
6.100852e-01	0.000000e+00	-2.403847e-01
5.354138e-01	0.000000e+00	-2.229691e-01
4.593635e-01	0.000000e+00	-2.042585e-01
3.837764e-01	0.000000e+00	-1.841224e-01
3.103069e-01	0.000000e+00	-1.630077e-01
2.415927e-01	0.000000e+00	-1.409228e-01
1.782654e-01	0.000000e+00	-1.183331e-01
1.234349e-01	0.000000e+00	-9.558566e-02
7.662509e-02	0.000000e+00	-7.318920e-02
4.106998e-02	0.000000e+00	-5.193053e-02
1.528206e-02	0.000000e+00	-3.215886e-02
2.347037e-03	0.000000e+00	-1.488740e-02
0.000000e+00	0.000000e+00	0.000000e+00
1.064939e-02	0.000000e+00	1.066461e-02
3.126595e-02	0.000000e+00	1.703450e-02
6.375031e-02	0.000000e+00	1.787236e-02
1.050105e-01	0.000000e+00	1.417221e-02
1.560448e-01	0.000000e+00	4.777214e-03
2.137742e-01	0.000000e+00	-9.048270e-03
2.782849e-01	0.000000e+00	-2.799567e-02
3.468570e-01	0.000000e+00	-5.051783e-02
4.187060e-01	0.000000e+00	-7.662000e-02
4.916930e-01	0.000000e+00	-1.047585e-01
5.642168e-01	0.000000e+00	-1.343226e-01
6.348639e-01	0.000000e+00	-1.641238e-01
7.013280e-01	0.000000e+00	-1.931337e-01
7.630418e-01	0.000000e+00	-2.206893e-01
8.172084e-01	0.000000e+00	-2.454799e-01
8.641863e-01	0.000000e+00	-2.673591e-01
9.009752e-01	0.000000e+00	-2.848204e-01
9.288372e-01	0.000000e+00	-2.982085e-01
9.448555e-01	0.000000e+00	-3.059908e-01
9.510565e-01	0.000000e+00	-3.090170e-01
9.510565e-01	1.052632e+00	-3.090170e-01
9.442611e-01	1.052632e+00	-3.078203e-01
9.267277e-01	1.052632e+00	-3.047010e-01
8.963175e-01	1.052632e+00	-2.991555e-01
8.562911e-01	1.052632e+00	-2.916579e-01
8.054250e-01	1.052632e+00	-2.817457e-01
7.470317e-01	1.052632e+00	-2.699633e-01
6.809074e-01	1.052632e+00	-2.559818e-01
6.100852e-01	1.052632e+00	-2.403847e-01
5.354138e-01	1.052632e+00	-2.229691e-01
4.593635e-01	1.052632e+00	-2.042585e-01
3.837764e-01	1.052632e+00	-1.841224e-01
3.103069e-01	1.052632e+00	-1.630077e-01
2.415927e-01	1.052632e+00	-1.409228e-01
1.782654e-01	1.052632e+00	-1.183331e-01
1.234349e-01	1.052632e+00	-9.558566e-02
7.662509e-02	1.052632e+00	-7.318920e-02
4.106998e-02	1.052632e+00	-5.193053e-02
1.528206e-02	1.052632e+00	-3.215886e-02
2.347037e-03	1.052632e+00	-1.488740e-02
0.000000e+00	1.052632e+00	0.000000e+00
1.064939e-02	1.052632e+00	1.066461e-02
3.126595e-02	1.052632e+00	1.703450e-02
6.375031e-02	1.052632e+00	1.787236e-02
1.050105e-01	1.052632e+00	1.417221e-02
1.560448e-01	1.052632e+00	4.777214e-03
2.137742e-01	1.052632e+00	-9.048270e-03
2.782849e-01	1.052632e+00	-2.799567e-02
3.468570e-01	1.052632e+00	-5.051783e-02
4.187060e-01	1.052632e+00	-7.662000e-02
4.916930e-01	1.052632e+00	-1.047585e-01
5.642168e-01	1.052632e+00	-1.343226e-01
6.348639e-01	1.052632e+00	-1.641238e-01
7.013280e-01	1.052632e+00	-1.931337e-01
7.630418e-01	1.052632e+00	-2.206893e-01
8.172084e-01	1.052632e+00	-2.454799e-01
8.641863e-01	1.052632e+00	-2.673591e-01
9.009752e-01	1.052632e+00	-2.848204e-01
9.288372e-01	1.052632e+00	-2.982085e-01
9.448555e-01	1.052632e+00	-3.059908e-01
9.510565e-01	1.052632e+00	-3.090170e-01
9.510565e-01	2.105263e+00	-3.090170e-01
9.442611e-01	2.105263e+00	-3.078203e-01
9.267277e-01	2.105263e+00	-3.047010e-01
8.963175e-01	2.105263e+00	-2.991555e-01
8.562911e-01	2.105263e+00	-2.916579e-01
8.054250e-01	2.105263e+00	-2.817457e-01
7.470317e-01	2.105263e+00	-2.699633e-01
6.809074e-01	2.105263e+00	-2.559818e-01
6.100852e-01	2.105263e+00	-2.403847e-01
5.354138e-01	2.105263e+00	-2.229691e-01
4.593635e-01	2.105263e+00	-2.042585e-01
3.837764e-01	2.105263e+00	-1.841224e-01
3.103069e-01	2.105263e+00	-1.630077e-01
2.415927e-01	2.105263e+00	-1.409228e-01
1.782654e-01	2.105263e+00	-1.183331e-01
1.234349e-01	2.105263e+00	-9.558566e-02
7.662509e-02	2.105263e+00	-7.318920e-02
4.106998e-02	2.105263e+00	-5.193053e-02
1.528206e-02	2.105263e+00	-3.215886e-02
2.347037e-03	2.105263e+00	-1.488740e-02
0.000000e+00	2.105263e+00	0.000000e+00
1.064939e-02	2.105263e+00	1.066461e-02
3.126595e-02	2.105263e+00	1.703450e-02
6.375031e-02	2.105263e+00	1.787236e-02
1.050105e-01	2.105263e+00	1.417221e-02
1.560448e-01	2.105263e+00	4.777214e-03
2.137742e-01	2.105263e+00	-9.048270e-03
2.782849e-01	2.105263e+00	-2.799567e-02
3.468570e-01	2.105263e+00	-5.051783e-02
4.187060e-01	2.105263e+00	-7.662000e-02
4.916930e-01	2.105263e+00	-1.047585e-01
5.642168e-01	2.105263e+00	-1.343226e-01
6.348639e-01	2.105263e+00	-1.641238e-01
7.013280e-01	2.105263e+00	-1.931337e-01
7.630418e-01	2.105263e+00	-2.206893e-01
8.172084e-01	2.105263e+00	-2.454799e-01
8.641863e-01	2.105263e+00	-2.673591e-01
9.009752e-01	2.105263e+00	-2.848204e-01
9.288372e-01	2.105263e+00	-2.982085e-01
9.448555e-01	2.105263e+00	-3.059908e-01
9.510565e-01	2.105263e+00	-3.090170e-01
9.510565e-01	3.157895e+00	-3.090170e-01
9.442611e-01	3.157895e+00	-3.078203e-01
9.267277e-01	3.157895e+00	-3.047010e-01
8.963175e-01	3.157895e+00	-2.991555e-01
8.562911e-01	3.157895e+00	-2.916579e-01
8.054250e-01	3.157895e+00	-2.817457e-01
7.470317e-01	3.157895e+00	-2.699633e-01
6.809074e-01	3.157895e+00	-2.559818e-01
6.100852e-01	3.157895e+00	-2.403847e-01
5.354138e-01	3.157895e+00	-2.229691e-01
4.593635e-01	3.157895e+00	-2.042585e-01
3.837764e-01	3.157895e+00	-1.841224e-01
3.103069e-01	3.157895e+00	-1.630077e-01
2.415927e-01	3.157895e+00	-1.409228e-01
1.782654e-01	3.157895e+00	-1.183331e-01
1.234349e-01	3.157895e+00	-9.558566e-02
7.662509e-02	3.157895e+00	-7.318920e-02
4.106998e-02	3.157895e+00	-5.193053e-02
1.528206e-02	3.157895e+00	-3.215886e-02
2.347037e-03	3.157895e+00	-1.488740e-02
0.000000e+00	3.157895e+00	0.000000e+00
1.064939e-02	3.157895e+00	1.066461e-02
3.126595e-02	3.157895e+00	1.703450e-02
6.375031e-02	3.157895e+00	1.787236e-02
1.050105e-01	3.157895e+00	1.417221e-02
1.560448e-01	3.157895e+00	4.777214e-03
2.137742e-01	3.157895e+00	-9.048270e-03
2.782849e-01	3.157895e+00	-2.799567e-02
3.468570e-01	3.157895e+00	-5.051783e-02
4.187060e-01	3.157895e+00	-7.662000e-02
4.916930e-01	3.157895e+00	-1.047585e-01
5.642168e-01	3.157895e+00	-1.343226e-01
6.348639e-01	3.157895e+00	-1.641238e-01
7.013280e-01	3.157895e+00	-1.931337e-01
7.630418e-01	3.157895e+00	-2.206893e-01
8.172084e-01	3.157895e+00	-2.454799e-01
8.641863e-01	3.157895e+00	-2.673591e-01
9.009752e-01	3.157895e+00	-2.848204e-01
9.288372e-01	3.157895e+00	-2.982085e-01
9.448555e-01	3.157895e+00	-3.059908e-01
9.510565e-01	3.157895e+00	-3.090170e-01
9.510565e-01	4.210526e+00	-3.090170e-01
9.442611e-01	4.210526e+00	-3.078203e-01
9.267277e-01	4.210526e+00	-3.047010e-01
8.963175e-01	4.210526e+00	-2.991555e-01
8.562911e-01	4.210526e+00	-2.916579e-01
8.054250e-01	4.210526e+00	-2.817457e-01
7.470317e-01	4.210526e+00	-2.699633e-01
6.809074e-01	4.210526e+00	-2.559818e-01
6.100852e-01	4.210526e+00	-2.403847e-01
5.354138e-01	4.210526e+00	-2.229691e-01
4.593635e-01	4.210526e+00	-2.042585e-01
3.837764e-01	4.210526e+00	-1.841224e-01
3.103069e-01	4.210526e+00	-1.630077e-01
2.415927e-01	4.210526e+00	-1.409228e-01
1.782654e-01	4.210526e+00	-1.183331e-01
1.234349e-01	4.210526e+00	-9.558566e-02
7.662509e-02	4.210526e+00	-7.318920e-02
4.106998e-02	4.210526e+00	-5.193053e-02
1.528206e-02	4.210526e+00	-3.215886e-02
2.347037e-03	4.210526e+00	-1.488740e-02
0.000000e+00	4.210526e+00	0.000000e+00
1.064939e-02	4.210526e+00	1.066461e-02
3.126595e-02	4.210526e+00	1.703450e-02
6.375031e-02	4.210526e+00	1.787236e-02
1.050105e-01	4.210526e+00	1.417221e-02
1.560448e-01	4.210526e+00	4.777214e-03
2.137742e-01	4.210526e+00	-9.048270e-03
2.782849e-01	4.210526e+00	-2.799567e-02
3.468570e-01	4.210526e+00	-5.051783e-02
4.187060e-01	4.210526e+00	-7.662000e-02
4.916930e-01	4.210526e+00	-1.047585e-01
5.642168e-01	4.210526e+00	-1.343226e-01
6.348639e-01	4.210526e+00	-1.641238e-01
7.013280e-01	4.210526e+00	-1.931337e-01
7.630418e-01	4.210526e+00	-2.206893e-01
8.172084e-01	4.210526e+00	-2.454799e-01
8.641863e-01	4.210526e+00	-2.673591e-01
9.009752e-01	4.210526e+00	-2.848204e-01
9.288372e-01	4.210526e+00	-2.982085e-01
9.448555e-01	4.210526e+00	-3.059908e-01
9.510565e-01	4.210526e+00	-3.090170e-01
9.510565e-01	5.263158e+00	-3.090170e-01
9.442611e-01	5.263158e+00	-3.078203e-01
9.267277e-01	5.263158e+00	-3.047010e-01
8.963175e-01	5.263158e+00	-2.991555e-01
8.562911e-01	5.263158e+00	-2.916579e-01
8.054250e-01	5.263158e+00	-2.817457e-01
7.470317e-01	5.263158e+00	-2.699633e-01
6.809074e-01	5.263158e+00	-2.559818e-01
6.100852e-01	5.263158e+00	-2.403847e-01
5.354138e-01	5.263158e+00	-2.229691e-01
4.593635e-01	5.263158e+00	-2.042585e-01
3.837764e-01	5.263158e+00	-1.841224e-01
3.103069e-01	5.263158e+00	-1.630077e-01
2.415927e-01	5.263158e+00	-1.409228e-01
1.782654e-01	5.263158e+00	-1.183331e-01
1.234349e-01	5.263158e+00	-9.558566e-02
7.662509e-02	5.263158e+00	-7.318920e-02
4.106998e-02	5.263158e+00	-5.193053e-02
1.528206e-02	5.263158e+00	-3.215886e-02
2.347037e-03	5.263158e+00	-1.488740e-02
0.000000e+00	5.263158e+00	0.000000e+00
1.064939e-02	5.263158e+00	1.066461e-02
3.126595e-02	5.263158e+00	1.703450e-02
6.375031e-02	5.263158e+00	1.787236e-02
1.050105e-01	5.263158e+00	1.417221e-02
1.560448e-01	5.263158e+00	4.777214e-03
2.137742e-01	5.263158e+00	-9.048270e-03
2.782849e-01	5.263158e+00	-2.799567e-02
3.468570e-01	5.263158e+00	-5.051783e-02
4.187060e-01	5.263158e+00	-7.662000e-02
4.916930e-01	5.263158e+00	-1.047585e-01
5.642168e-01	5.263158e+00	-1.343226e-01
6.348639e-01	5.263158e+00	-1.641238e-01
7.013280e-01	5.263158e+00	-1.931337e-01
7.630418e-01	5.263158e+00	-2.206893e-01
8.172084e-01	5.263158e+00	-2.454799e-01
8.641863e-01	5.263158e+00	-2.673591e-01
9.009752e-01	5.263158e+00	-2.848204e-01
9.288372e-01	5.263158e+00	-2.982085e-01
9.448555e-01	5.263158e+00	-3.059908e-01
9.510565e-01	5.263158e+00	-3.090170e-01
9.510565e-01	6.315789e+00	-3.090170e-01
9.442611e-01	6.315789e+00	-3.078203e-01
[...]
CELL_DATA 760
VECTORS V double
8.436776e-01	-6.487357e-02	-1.485685e-01
8.684914e-01	-6.471748e-02	-1.545100e-01
8.873320e-01	-6.431427e-02	-1.618134e-01
8.999642e-01	-6.360125e-02	-1.685771e-01
9.032988e-01	-6.255702e-02	-1.760248e-01
9.054847e-01	-6.116308e-02	-1.827054e-01
8.993187e-01	-5.940679e-02	-1.901543e-01
8.929034e-01	-5.726400e-02	-1.966433e-01
8.795029e-01	-5.470492e-02	-2.051267e-01
8.648928e-01	-5.169714e-02	-2.127885e-01
8.408469e-01	-4.821342e-02	-2.239988e-01
8.113347e-01	-4.425085e-02	-2.331726e-01
7.655687e-01	-3.981617e-02	-2.460550e-01
7.056732e-01	-3.496855e-02	-2.517232e-01
6.216500e-01	-2.974514e-02	-2.579029e-01
4.945344e-01	-2.426206e-02	-2.366132e-01
2.973279e-01	-1.852846e-02	-1.777746e-01
1.618595e-02	-1.270196e-02	-1.240982e-02
-3.847911e-01	-6.599291e-03	5.137915e-01
-3.271404e-01	-4.859747e-04	2.075072e+00
2.257184e+00	6.681266e-03	2.260410e+00
2.484489e+00	1.297083e-02	7.676313e-01
2.170315e+00	1.943312e-02	5.597834e-02
1.896183e+00	2.580914e-02	-1.700466e-01
1.697695e+00	3.232479e-02	-3.125320e-01
1.552547e+00	3.882516e-02	-3.718159e-01
1.421063e+00	4.530215e-02	-4.173793e-01
1.324758e+00	5.158363e-02	-4.351102e-01
1.240754e+00	5.755417e-02	-4.507559e-01
1.173377e+00	6.303352e-02	-4.523690e-01
1.114726e+00	6.789070e-02	-4.544143e-01
1.065535e+00	7.201064e-02	-4.494767e-01
1.022333e+00	7.533705e-02	-4.462227e-01
9.829235e-01	7.786882e-02	-4.388819e-01
9.465594e-01	7.966023e-02	-4.332136e-01
9.089845e-01	8.081123e-02	-4.233457e-01
8.727119e-01	8.144703e-02	-4.142180e-01
8.334014e-01	8.170921e-02	-4.004646e-01
7.910330e-01	8.174122e-02	-3.843144e-01
7.488672e-01	8.169762e-02	-3.654543e-01
8.305800e-01	-4.511650e-02	-1.462621e-01
8.521683e-01	-4.500772e-02	-1.516060e-01
8.678157e-01	-4.472875e-02	-1.582544e-01
8.776464e-01	-4.423313e-02	-1.643966e-01
8.784785e-01	-4.349896e-02	-1.711881e-01
8.781440e-01	-4.250718e-02	-1.771887e-01
8.691953e-01	-4.124589e-02	-1.837849e-01
8.594274e-01	-3.969906e-02	-1.892709e-01
8.419368e-01	-3.785042e-02	-1.963651e-01
8.222782e-01	-3.568394e-02	-2.023041e-01
7.921879e-01	-3.318808e-02	-2.110362e-01
7.553890e-01	-3.036765e-02	-2.170942e-01
7.011190e-01	-2.723214e-02	-2.253408e-01
6.308804e-01	-2.382509e-02	-2.250436e-01
5.345595e-01	-2.017148e-02	-2.217718e-01
3.912838e-01	-1.634941e-02	-1.872123e-01
1.738851e-01	-1.236155e-02	-1.039672e-01
-1.363349e-01	-8.314728e-03	1.045283e-01
-5.533600e-01	-4.080892e-03	7.388727e-01
-3.988350e-01	1.540424e-04	2.529835e+00
2.587636e+00	5.105694e-03	2.591334e+00
2.765777e+00	9.432393e-03	8.545407e-01
2.377632e+00	1.385213e-02	6.132559e-02
2.056285e+00	1.817991e-02	-1.844042e-01
1.828565e+00	2.256218e-02	-3.366243e-01
1.663852e+00	2.688925e-02	-3.984721e-01
1.517688e+00	3.115387e-02	-4.457588e-01
1.409703e+00	3.524439e-02	-4.630101e-01
1.315375e+00	3.909072e-02	-4.778650e-01
1.238600e+00	4.258374e-02	-4.775147e-01
1.170927e+00	4.564794e-02	-4.773247e-01
1.113099e+00	4.821866e-02	-4.695410e-01
1.061533e+00	5.026870e-02	-4.633325e-01
1.014204e+00	5.180533e-02	-4.528489e-01
9.704074e-01	5.287043e-02	-4.441281e-01
9.260055e-01	5.353385e-02	-4.312730e-01
8.834909e-01	5.388078e-02	-4.193340e-01
8.385442e-01	5.400534e-02	-4.029358e-01
7.913390e-01	5.400008e-02	-3.844631e-01
7.455286e-01	5.396151e-02	-3.638251e-01
8.254210e-01	-1.840259e-02	-1.453536e-01
8.458773e-01	-1.836209e-02	-1.504868e-01
8.602354e-01	-1.825867e-02	-1.568721e-01
8.687051e-01	-1.807022e-02	-1.627218e-01
8.681401e-01	-1.777952e-02	-1.691734e-01
8.663644e-01	-1.737051e-02	-1.748119e-01
8.559236e-01	-1.683254e-02	-1.809787e-01
8.445533e-01	-1.615744e-02	-1.859952e-01
8.253149e-01	-1.534148e-02	-1.924884e-01
8.036801e-01	-1.438400e-02	-1.977284e-01
7.713652e-01	-1.328777e-02	-2.054891e-01
7.319680e-01	-1.206192e-02	-2.103631e-01
6.747063e-01	-1.071541e-02	-2.168517e-01
6.007887e-01	-9.268828e-03	-2.143095e-01
5.000167e-01	-7.731621e-03	-2.074411e-01
3.507380e-01	-6.133611e-03	-1.678129e-01
1.257196e-01	-4.472498e-03	-7.516868e-02
-1.955785e-01	-2.790632e-03	1.499506e-01
-6.185483e-01	-1.035076e-03	8.259153e-01
-4.263510e-01	7.139757e-04	2.704370e+00
2.712699e+00	2.742522e-03	2.716576e+00
2.870128e+00	4.491637e-03	8.867820e-01
2.452657e+00	6.245969e-03	6.326070e-02
2.112408e+00	7.922761e-03	-1.894373e-01
1.872753e+00	9.570903e-03	-3.447588e-01
1.699875e+00	1.114321e-02	-4.070990e-01
1.547582e+00	1.263576e-02	-4.545392e-01
1.434794e+00	1.401267e-02	-4.712511e-01
1.336407e+00	1.525773e-02	-4.855061e-01
1.256127e+00	1.634541e-02	-4.842715e-01
1.185283e+00	1.726297e-02	-4.831766e-01
1.124573e+00	1.800146e-02	-4.743810e-01
1.070344e+00	1.856295e-02	-4.671785e-01
1.020591e+00	1.895871e-02	-4.557009e-01
9.746051e-01	1.920948e-02	-4.460493e-01
9.282769e-01	1.934331e-02	-4.323308e-01
8.841072e-01	1.939223e-02	-4.196266e-01
8.377839e-01	1.938949e-02	-4.025705e-01
7.894985e-01	1.936434e-02	-3.835688e-01
7.429609e-01	1.934331e-02	-3.625720e-01
8.237839e-01	-8.663754e-03	-1.450653e-01
8.437788e-01	-8.650408e-03	-1.501135e-01
8.575840e-01	-8.613584e-03	-1.563886e-01
8.654379e-01	-8.542014e-03	-1.621098e-01
8.641992e-01	-8.426053e-03	-1.684055e-01
8.616836e-01	-8.256323e-03	-1.738674e-01
8.504388e-01	-8.025345e-03	-1.798190e-01
8.381916e-01	-7.726640e-03	-1.845941e-01
8.180022e-01	-7.356123e-03	-1.907828e-01
7.953152e-01	-6.911913e-03	-1.956704e-01
7.618382e-01	-6.394412e-03	-2.029512e-01
7.211066e-01	-5.807458e-03	-2.072416e-01
6.623218e-01	-5.155031e-03	-2.128713e-01
5.865471e-01	-4.446846e-03	-2.092293e-01
4.835376e-01	-3.687498e-03	-2.006044e-01
3.312670e-01	-2.892036e-03	-1.584969e-01
1.024748e-01	-2.060113e-03	-6.127045e-02
-2.242577e-01	-1.214369e-03	1.719390e-01
-6.501344e-01	-3.193151e-04	8.680905e-01
-4.396605e-01	5.619963e-04	2.788793e+00
2.772880e+00	1.582443e-03	2.776843e+00
2.919958e+00	2.447466e-03	9.021782e-01
2.488162e+00	3.320136e-03	6.417647e-02
2.138683e+00	4.146413e-03	-1.917936e-01
1.893198e+00	4.949673e-03	-3.485226e-01
1.716344e+00	5.706976e-03	-4.110432e-01
1.561098e+00	6.417435e-03	-4.585089e-01
1.446032e+00	7.065690e-03	-4.749419e-01
1.345765e+00	7.646456e-03	-4.889057e-01
1.263903e+00	8.150391e-03	-4.872694e-01
1.191665e+00	8.574107e-03	-4.857785e-01
1.129716e+00	8.915511e-03	-4.765506e-01
1.074359e+00	9.176911e-03	-4.689306e-01
1.023584e+00	9.364082e-03	-4.570371e-01
9.766767e-01	9.486477e-03	-4.469974e-01
9.295426e-01	9.556634e-03	-4.329203e-01
8.846937e-01	9.588669e-03	-4.199050e-01
8.378253e-01	9.596976e-03	-4.025903e-01
7.891246e-01	9.593435e-03	-3.833872e-01
7.423075e-01	9.588300e-03	-3.622531e-01
8.231812e-01	-4.560174e-03	-1.449592e-01
8.429270e-01	-4.554937e-03	-1.499619e-01
8.564156e-01	-4.539033e-03	-1.561755e-01
8.639131e-01	-4.505629e-03	-1.618242e-01
8.622997e-01	-4.448543e-03	-1.680353e-01
8.593918e-01	-4.362361e-03	-1.734050e-01
8.477278e-01	-4.243258e-03	-1.792458e-01
8.350183e-01	-4.088128e-03	-1.838953e-01
8.143169e-01	-3.885491e-03	-1.899233e-01
7.910533e-01	-3.652986e-03	-1.946219e-01
7.569306e-01	-3.377189e-03	-2.016438e-01
7.154524e-01	-3.103262e-03	-2.056166e-01
6.558099e-01	-2.755105e-03	-2.107784e-01
5.789887e-01	-2.383799e-03	-2.065332e-01
4.747202e-01	-1.817630e-03	-1.969464e-01
3.207777e-01	-1.392543e-03	-1.534782e-01
8.989099e-02	-9.371943e-04	-5.374649e-02
-2.400554e-01	-4.681167e-04	1.840511e-01
-6.676590e-01	2.590945e-05	8.914902e-01
-4.469068e-01	5.196748e-04	2.834757e+00
2.805017e+00	1.091170e-03	2.809026e+00
2.946647e+00	1.580606e-03	9.104241e-01
2.507346e+00	2.066586e-03	6.467127e-02
2.152765e+00	2.525611e-03	-1.930565e-01
1.904056e+00	2.972307e-03	-3.505215e-01
1.725003e+00	3.397444e-03	-4.131170e-01
1.568132e+00	3.629136e-03	-4.605748e-01
1.451820e+00	3.987568e-03	-4.768431e-01
1.350538e+00	4.296486e-03	-4.906395e-01
1.267832e+00	4.598401e-03	-4.887841e-01
1.194864e+00	4.814017e-03	-4.870824e-01
1.132278e+00	4.978365e-03	-4.776312e-01
1.076353e+00	5.112737e-03	-4.698012e-01
1.025079e+00	5.208728e-03	-4.577048e-01
9.777373e-01	5.271715e-03	-4.474828e-01
9.302387e-01	5.308987e-03	-4.332445e-01
8.850958e-01	5.327796e-03	-4.200958e-01
8.379976e-01	5.334963e-03	-4.026731e-01
7.891185e-01	5.335700e-03	-3.833843e-01
7.421745e-01	5.334510e-03	-3.621882e-01
8.229051e-01	-2.561941e-03	-1.449106e-01
8.425227e-01	-2.559587e-03	-1.498900e-01
8.558357e-01	-2.552108e-03	-1.560698e-01
8.631184e-01	-2.535607e-03	-1.616753e-01
8.612665e-01	-2.505978e-03	-1.678340e-01
8.581097e-01	-2.459314e-03	-1.731463e-01
8.461949e-01	-2.392964e-03	-1.789216e-01
8.330901e-01	-2.305146e-03	-1.834707e-01
8.121307e-01	-2.194782e-03	-1.894134e-01
7.886412e-01	-2.061110e-03	-1.940284e-01
7.546508e-01	-1.903742e-03	-2.010364e-01
7.128279e-01	-1.723178e-03	-2.048624e-01
6.523270e-01	-1.519973e-03	-2.096590e-01
5.727377e-01	-1.296590e-03	-2.043034e-01
4.672376e-01	-1.054084e-03	-1.938421e-01
3.150752e-01	-7.971037e-04	-1.507498e-01
8.274776e-02	-5.255775e-04	-4.947550e-02
-2.488743e-01	-2.470332e-04	1.908127e-01
-6.774019e-01	3.568300e-05	9.044994e-01
-4.511751e-01	3.285498e-04	2.861831e+00
2.824874e+00	6.660229e-04	2.828911e+00
2.962841e+00	9.644119e-04	9.154275e-01
2.518575e+00	1.247947e-03	6.496091e-02
2.161115e+00	1.513776e-03	-1.938053e-01
1.910694e+00	1.769095e-03	-3.517434e-01
1.727398e+00	2.006291e-03	-4.136905e-01
1.570136e+00	2.225085e-03	-4.611634e-01
1.455271e+00	2.421084e-03	-4.779765e-01
1.353732e+00	2.593343e-03	-4.918000e-01
1.270430e+00	2.739955e-03	-4.897858e-01
1.196424e+00	2.860957e-03	-4.877184e-01
1.133532e+00	2.956834e-03	-4.781602e-01
1.077445e+00	3.029324e-03	-4.702776e-01
1.025889e+00	3.081008e-03	-4.580661e-01
9.783059e-01	3.115227e-03	-4.477431e-01
9.306150e-01	3.135781e-03	-4.334198e-01
8.853198e-01	3.146448e-03	-4.202021e-01
8.381031e-01	3.150805e-03	-4.027238e-01
7.891328e-01	3.151611e-03	-3.833912e-01
7.421253e-01	3.151227e-03	-3.621642e-01
8.227861e-01	-1.482412e-03	-1.448896e-01
8.423400e-01	-1.481331e-03	-1.498575e-01
8.555621e-01	-1.477762e-03	-1.560199e-01
8.627273e-01	-1.469616e-03	-1.616021e-01
8.607351e-01	-1.454490e-03	-1.677304e-01
8.574225e-01	-1.429781e-03	-1.730076e-01
8.453411e-01	-1.393400e-03	-1.787411e-01
8.321941e-01	-1.343745e-03	-1.832733e-01
8.110224e-01	-1.289196e-03	-1.891549e-01
7.872320e-01	-1.210194e-03	-1.936817e-01
7.525141e-01	-1.119526e-03	-2.004673e-01
7.103391e-01	-9.736575e-04	-2.041471e-01
6.498866e-01	-8.504953e-04	-2.088746e-01
5.720701e-01	-7.050352e-04	-2.040652e-01
4.665967e-01	-7.117862e-04	-1.935762e-01
3.110522e-01	-5.457229e-04	-1.488250e-01
7.814974e-02	-3.781654e-04	-4.672631e-02
-2.544438e-01	-2.101441e-04	1.950828e-01
-6.834894e-01	-3.510769e-05	9.126278e-01
-4.537230e-01	1.388205e-04	2.877992e+00
2.836267e+00	3.389732e-04	2.840320e+00
2.972115e+00	5.090327e-04	9.182929e-01
2.525015e+00	6.758754e-04	6.512702e-02
2.165663e+00	8.301520e-04	-1.942131e-01
1.913929e+00	9.739600e-04	-3.523390e-01
1.732806e+00	1.099270e-03	-4.149856e-01
1.574403e+00	1.377493e-03	-4.624166e-01
1.456920e+00	1.478107e-03	-4.785182e-01
1.354691e+00	1.574831e-03	-4.921483e-01
1.271208e+00	1.620139e-03	-4.900859e-01
1.197580e+00	1.692777e-03	-4.881896e-01
1.134430e+00	1.758134e-03	-4.785391e-01
1.078017e+00	1.798277e-03	-4.705273e-01
1.026324e+00	1.827063e-03	-4.582607e-01
9.786270e-01	1.846588e-03	-4.478900e-01
9.308350e-01	1.858490e-03	-4.335222e-01
8.854567e-01	1.864747e-03	-4.202671e-01
8.381753e-01	1.867387e-03	-4.027585e-01
7.891563e-01	1.868005e-03	-3.834026e-01
7.421158e-01	1.867905e-03	-3.621596e-01
8.227237e-01	-8.204480e-04	-1.448786e-01
8.422440e-01	-8.198392e-04	-1.498404e-01
8.554177e-01	-8.178922e-04	-1.559935e-01
8.625191e-01	-8.135111e-04	-1.615631e-01
8.604482e-01	-8.054053e-04	-1.676745e-01
8.570440e-01	-7.920940e-04	-1.729312e-01
8.448620e-01	-7.722530e-04	-1.786398e-01
8.316082e-01	-7.448769e-04	-1.831443e-01
8.103247e-01	-7.094805e-04	-1.889922e-01
7.864136e-01	-6.659439e-04	-1.934804e-01
7.515625e-01	-6.143237e-04	-2.002138e-01
7.092331e-01	-5.548670e-04	-2.038292e-01
6.486014e-01	-4.877234e-04	-2.084615e-01
5.705643e-01	-4.136179e-04	-2.035280e-01
4.648233e-01	-3.328298e-04	-1.928405e-01
3.089235e-01	-2.468921e-04	-1.478065e-01
7.557535e-02	-1.558309e-04	-4.518706e-02
-2.576505e-01	-6.230368e-05	1.975414e-01
-6.870406e-01	3.617180e-05	9.173695e-01
-4.552207e-01	1.345343e-04	2.887493e+00
2.843004e+00	2.480851e-04	2.847067e+00
2.977634e+00	3.448184e-04	9.199982e-01
2.528892e+00	4.400879e-04	6.522702e-02
2.168480e+00	5.289772e-04	-1.944657e-01
1.916073e+00	6.138465e-04	-3.527337e-01
1.734490e+00	6.922048e-04	-4.153890e-01
1.575748e+00	7.640466e-04	-4.628118e-01
1.458008e+00	8.280227e-04	-4.788754e-01
1.355572e+00	8.839151e-04	-4.924683e-01
1.271921e+00	9.311861e-04	-4.903607e-01
1.198152e+00	9.699356e-04	-4.884227e-01
1.134883e+00	1.000422e-03	-4.787302e-01
1.078368e+00	1.023304e-03	-4.706806e-01
1.026588e+00	1.039478e-03	-4.583785e-01
9.788162e-01	1.050031e-03	-4.479766e-01
9.309617e-01	1.056189e-03	-4.335812e-01
8.855331e-01	1.059212e-03	-4.203034e-01
8.382139e-01	1.060330e-03	-4.027771e-01
7.891679e-01	1.060477e-03	-3.834082e-01
7.421100e-01	1.060352e-03	-3.621567e-01
8.226839e-01	-1.253514e-03	-1.448716e-01
8.421874e-01	-1.254837e-03	-1.498303e-01
8.553366e-01	-1.259021e-03	-1.559788e-01
8.624058e-01	-1.248232e-03	-1.615418e-01
8.602951e-01	-1.217290e-03	-1.676447e-01
8.568439e-01	-1.243415e-03	-1.728909e-01
8.446094e-01	-1.095005e-03	-1.785864e-01
8.312992e-01	-1.144130e-03	-1.830762e-01
8.099566e-01	-9.002285e-04	-1.889064e-01
7.859826e-01	-9.665613e-04	-1.933743e-01
7.510625e-01	-6.295253e-04	-2.000805e-01
7.086523e-01	-7.073508e-04	-2.036623e-01
6.479254e-01	-2.976535e-04	-2.082443e-01
5.697701e-01	-3.858932e-04	-2.032448e-01
4.638855e-01	7.910328e-05	-1.924514e-01
3.077955e-01	3.889002e-04	-1.472668e-01
7.420998e-02	5.560896e-04	-4.437070e-02
-2.593514e-01	5.519376e-04	1.988455e-01
-6.889234e-01	5.739122e-04	9.198834e-01
-4.560141e-01	6.095085e-04	2.892525e+00
2.846568e+00	6.609596e-04	2.850636e+00
2.980549e+00	7.137559e-04	9.208988e-01
2.530936e+00	7.795423e-04	6.527973e-02
2.169962e+00	8.662972e-04	-1.945986e-01
1.917200e+00	7.787266e-04	-3.529412e-01
1.735375e+00	5.432747e-04	-4.156010e-01
1.576456e+00	1.473187e-04	-4.630196e-01
1.458580e+00	2.980233e-04	-4.790634e-01
1.356035e+00	-5.602268e-05	-4.926364e-01
1.272294e+00	7.004061e-05	-4.905043e-01
1.198447e+00	-2.262452e-04	-4.885430e-01
1.135112e+00	-1.267465e-04	-4.788269e-01
1.078540e+00	-3.448186e-04	-4.707557e-01
1.026712e+00	-2.767428e-04	-4.584337e-01
9.788987e-01	-4.122148e-04	-4.480144e-01
9.310108e-01	-3.780403e-04	-4.336041e-01
8.855566e-01	-4.045245e-04	-4.203145e-01
8.382194e-01	-4.132079e-04	-4.027797e-01
7.891615e-01	-4.082606e-04	-3.834051e-01
7.420966e-01	-4.067678e-04	-3.621502e-01
8.229458e-01	3.416575e-08	-1.449177e-01
8.425726e-01	-5.107016e-08	-1.498989e-01
8.551036e-01	-2.964524e-07	-1.559363e-01
8.614203e-01	-7.617536e-07	-1.613572e-01
8.604574e-01	-1.470663e-06	-1.676763e-01
8.547388e-01	-2.395737e-06	-1.724661e-01
8.434824e-01	-3.428347e-06	-1.783481e-01
8.287117e-01	-4.395771e-06	-1.825064e-01
8.080115e-01	-5.134013e-06	-1.884527e-01
7.828345e-01	-5.568558e-06	-1.925998e-01
7.481408e-01	-5.733775e-06	-1.993022e-01
7.049361e-01	-5.729445e-06	-2.025943e-01
6.439097e-01	-5.664560e-06	-2.069536e-01
5.653561e-01	-5.621685e-06	-2.016702e-01
4.520356e-01	-5.649262e-06	-1.875353e-01
2.998926e-01	-5.766908e-06	-1.434856e-01
7.166438e-02	-5.977729e-06	-4.284866e-02
-2.580003e-01	-6.268601e-06	1.978096e-01
-6.885528e-01	-6.637129e-06	9.193886e-01
-4.561434e-01	-7.051996e-06	2.893345e+00
2.848195e+00	-7.569214e-06	2.852265e+00
2.982968e+00	-8.028108e-06	9.216462e-01
2.533933e+00	-8.484489e-06	6.535703e-02
2.167957e+00	-8.902601e-06	-1.944188e-01
1.909314e+00	-9.281069e-06	-3.514895e-01
1.723480e+00	-9.595790e-06	-4.127523e-01
1.572431e+00	-9.833751e-06	-4.618376e-01
1.454962e+00	-9.977962e-06	-4.778750e-01
1.352723e+00	-1.001829e-05	-4.914333e-01
1.269740e+00	-9.952464e-06	-4.895198e-01
1.195664e+00	-9.793508e-06	-4.874086e-01
1.133449e+00	-9.577275e-06	-4.781251e-01
1.076249e+00	-9.361974e-06	-4.697558e-01
1.025763e+00	-9.214504e-06	-4.580098e-01
9.770183e-01	-9.183546e-06	-4.471538e-01
9.312084e-01	-9.266964e-06	-4.336961e-01
8.846796e-01	-9.408995e-06	-4.198983e-01
8.380213e-01	-9.530550e-06	-4.026845e-01
7.895206e-01	-9.579956e-06	-3.835796e-01
7.423386e-01	-9.576026e-06	-3.622683e-01
8.226982e-01	1.254688e-03	-1.448741e-01
8.422069e-01	1.255799e-03	-1.498338e-01
8.553615e-01	1.259396e-03	-1.559833e-01
8.624357e-01	1.247527e-03	-1.615474e-01
8.603283e-01	1.214993e-03	-1.676512e-01
8.568778e-01	1.239126e-03	-1.728977e-01
8.446401e-01	1.088603e-03	-1.785929e-01
8.313233e-01	1.135856e-03	-1.830815e-01
8.099724e-01	8.906036e-04	-1.889100e-01
7.859904e-01	9.561803e-04	-1.933763e-01
7.510646e-01	6.188682e-04	-2.000811e-01
7.086514e-01	6.966948e-04	-2.036620e-01
6.479239e-01	2.870787e-04	-2.082438e-01
5.697698e-01	3.753375e-04	-2.032447e-01
4.638877e-01	-8.978647e-05	-1.924523e-01
3.078015e-01	-3.998935e-04	-1.472697e-01
7.422050e-02	-5.675854e-04	-4.437699e-02
-2.593348e-01	-5.641046e-04	1.988327e-01
-6.889020e-01	-5.869200e-04	9.198549e-01
-4.560041e-01	-6.234607e-04	2.892462e+00
2.846520e+00	-6.760934e-04	2.850588e+00
2.980509e+00	-7.299467e-04	9.208863e-01
2.530908e+00	-7.967972e-04	6.527901e-02
2.169942e+00	-8.845438e-04	-1.945969e-01
1.917186e+00	-7.978919e-04	-3.529386e-01
1.735366e+00	-5.632291e-04	-4.155987e-01
1.576450e+00	-1.679013e-04	-4.630179e-01
1.458577e+00	-3.190315e-04	-4.790626e-01
1.356035e+00	3.481511e-05	-4.926366e-01
1.272297e+00	-9.121352e-05	-4.905054e-01
1.198452e+00	2.053192e-04	-4.885450e-01
1.135118e+00	1.062164e-04	-4.788292e-01
1.078545e+00	3.247260e-04	-4.707578e-01
1.026714e+00	2.569976e-04	-4.584349e-01
9.788980e-01	3.926175e-04	-4.480140e-01
9.310067e-01	3.583738e-04	-4.336022e-01
8.855505e-01	3.846622e-04	-4.203116e-01
8.382138e-01	3.931730e-04	-4.027770e-01
7.891585e-01	3.881781e-04	-3.834037e-01
7.420972e-01	3.867216e-04	-3.621505e-01
8.227592e-01	8.253656e-04	-1.448849e-01
8.422910e-01	8.243863e-04	-1.498488e-01
8.554761e-01	8.214925e-04	-1.560042e-01
8.625870e-01	8.154890e-04	-1.615758e-01
8.605210e-01	8.051822e-04	-1.676887e-01
8.571149e-01	7.893923e-04	-1.729455e-01
8.449231e-01	7.672206e-04	-1.786527e-01
8.316538e-01	7.379882e-04	-1.831543e-01
8.103529e-01	7.012784e-04	-1.889988e-01
7.864271e-01	6.568017e-04	-1.934837e-01
7.515662e-01	6.043258e-04	-2.002147e-01
7.092320e-01	5.437511e-04	-2.038289e-01
6.485999e-01	4.747299e-04	-2.084611e-01
5.705658e-01	3.970556e-04	-2.035286e-01
4.648303e-01	3.090118e-04	-1.928434e-01
3.089382e-01	2.092528e-04	-1.478135e-01
7.560002e-02	2.541732e-04	-4.520181e-02
-2.576124e-01	1.469766e-04	1.975122e-01
-6.869919e-01	4.108695e-05	9.173044e-01
-4.551979e-01	-6.089683e-05	2.887348e+00
2.842894e+00	-1.759389e-04	2.846957e+00
2.977541e+00	-2.716016e-04	9.199693e-01
2.528826e+00	-3.619584e-04	6.522531e-02
2.168433e+00	-4.394816e-04	-1.944615e-01
1.916039e+00	-6.631971e-04	-3.527274e-01
1.734466e+00	-7.296489e-04	-4.153832e-01
1.575733e+00	-7.957676e-04	-4.628071e-01
1.457999e+00	-8.572913e-04	-4.788726e-01
1.355570e+00	-9.120346e-04	-4.924675e-01
1.271925e+00	-9.585982e-04	-4.903621e-01
1.198160e+00	-9.967303e-04	-4.884259e-01
1.134894e+00	-1.026568e-03	-4.787347e-01
1.078378e+00	-1.048766e-03	-4.706852e-01
1.026596e+00	-1.064289e-03	-4.583818e-01
9.788177e-01	-1.074329e-03	-4.479773e-01
9.309570e-01	-1.080172e-03	-4.335790e-01
8.855247e-01	-1.083041e-03	-4.202993e-01
8.382065e-01	-1.084047e-03	-4.027735e-01
7.891661e-01	-1.084033e-03	-3.834074e-01
7.421155e-01	-1.083758e-03	-3.621594e-01
8.228626e-01	1.567109e-03	-1.449031e-01
8.424364e-01	1.565435e-03	-1.498746e-01
8.556767e-01	1.560439e-03	-1.560408e-01
8.628539e-01	1.550055e-03	-1.616258e-01
8.608629e-01	1.532264e-03	-1.677553e-01
8.575390e-01	1.504987e-03	-1.730311e-01
8.454358e-01	1.466013e-03	-1.787611e-01
8.322630e-01	1.423569e-03	-1.832885e-01
8.110684e-01	1.359058e-03	-1.891657e-01
7.872634e-01	1.281185e-03	-1.936895e-01
7.525420e-01	1.189071e-03	-2.004747e-01
7.103779e-01	1.082814e-03	-2.041582e-01
6.499601e-01	9.626447e-04	-2.088982e-01