# vtk DataFile Version 2.0
OUTPUT by 3D-VPM
ASCII
DATASET UNSTRUCTURED_GRID
POINTS 820 double
9.510565e-01	0.000000e+00	-3.090170e-01
9.442611e-01	0.000000e+00	-3.078203e-01
9.267277e-01	0.000000e+00	-3.047010e-01
8.963175e-01	0.000000e+00	-2.991555e-01
8.562911e-01	0.000000e+00	-2.916579e-01
8.054250e-01	0.000000e+00	-2.817457e-01
7.470317e-01	0.000000e+00	-2.699633e-01
6.809074e-01	0.000000e+00	-2.559818e-01
6.100852e-01	0.000000e+00	-2.403847e-01
5.354138e-01	0.000000e+00	-2.229691e-01
4.593635e-01	0.000000e+00	-2.042585e-01
3.837764e-01	0.000000e+00	-1.841224e-01
3.103069e-01	0.000000e+00	-1.630077e-01
2.415927e-01	0.000000e+00	-1.409228e-01
1.782654e-01	0.000000e+00	-1.183331e-01
1.234349e-01	0.000000e+00	-9.558566e-02
7.662509e-02	0.000000e+00	-7.318920e-02
4.106998e-02	0.000000e+00	-5.193053e-02
1.528206e-02	0.000000e+00	-3.215886e-02
2.347037e-03	0.000000e+00	-1.488740e-02
0.000000e+00	0.000000e+00	0.000000e+00
1.064939e-02	0.000000e+00	1.066461e-02
3.126595e-02	0.000000e+00	1.703450e-02
6.375031e-02	0.000000e+00	1.787236e-02
1.050105e-01	0.000000e+00	1.417221e-02
1.560448e-01	0.000000e+00	4.777214e-03
2.137742e-01	0.000000e+00	-9.048270e-03
2.782849e-01	0.000000e+00	-2.799567e-02
3.468570e-01	0.000000e+00	-5.051783e-02
4.187060e-01	0.000000e+00	-7.662000e-02
4.916930e-01	0.000000e+00	-1.047585e-01
5.642168e-01	0.000000e+00	-1.343226e-01
6.348639e-01	0.000000e+00	-1.641238e-01
7.013280e-01	0.000000e+00	-1.931337e-01
7.630418e-01	0.000000e+00	-2.206893e-01
8.172084e-01	0.000000e+00	-2.454799e-01
8.641863e-01	0.000000e+00	-2.673591e-01
9.009752e-01	0.000000e+00	-2.848204e-01
9.288372e-01	0.000000e+00	-2.982085e-01
9.448555e-01	0.000000e+00	-3.059908e-01
9.510565e-01	0.000000e+00	-3.090170e-01
9.510565e-01	1.052632e+00	-3.090170e-01
9.442611e-01	1.052632e+00	-3.078203e-01
9.267277e-01	1.052632e+00	-3.047010e-01
8.963175e-01	1.052632e+00	-2.991555e-01
8.562911e-01	1.052632e+00	-2.916579e-01
8.054250e-01	1.052632e+00	-2.817457e-01
7.470317e-01	1.052632e+00	-2.699633e-01
6.809074e-01	1.052632e+00	-2.559818e-01
6.100852e-01	1.052632e+00	-2.403847e-01
5.354138e-01	1.052632e+00	-2.229691e-01
4.593635e-01	1.052632e+00	-2.042585e-01
3.837764e-01	1.052632e+00	-1.841224e-01
3.103069e-01	1.052632e+00	-1.630077e-01
2.415927e-01	1.052632e+00	-1.409228e-01
1.782654e-01	1.052632e+00	-1.183331e-01
1.234349e-01	1.052632e+00	-9.558566e-02
7.662509e-02	1.052632e+00	-7.318920e-02
4.106998e-02	1.052632e+00	-5.193053e-02
1.528206e-02	1.052632e+00	-3.215886e-02
2.347037e-03	1.052632e+00	-1.488740e-02
0.000000e+00	1.052632e+00	0.000000e+00
1.064939e-02	1.052632e+00	1.066461e-02
3.126595e-02	1.052632e+00	1.703450e-02
6.375031e-02	1.052632e+00	1.787236e-02
1.050105e-01	1.052632e+00	1.417221e-02
1.560448e-01	1.052632e+00	4.777214e-03
2.137742e-01	1.052632e+00	-9.048270e-03
2.782849e-01	1.052632e+00	-2.799567e-02
3.468570e-01	1.052632e+00	-5.051783e-02
4.187060e-01	1.052632e+00	-7.662000e-02
4.916930e-01	1.052632e+00	-1.047585e-01
5.642168e-01	1.052632e+00	-1.343226e-01
6.348639e-01	1.052632e+00	-1.641238e-01
7.013280e-01	1.052632e+00	-1.931337e-01
7.630418e-01	1.052632e+00	-2.206893e-01
8.172084e-01	1.052632e+00	-2.454799e-01
8.641863e-01	1.052632e+00	-2.673591e-01
9.009752e-01	1.052632e+00	-2.848204e-01
9.288372e-01	1.052632e+00	-2.982085e-01
9.448555e-01	1.052632e+00	-3.059908e-01
9.510565e-01	1.052632e+00	-3.090170e-01
9.510565e-01	2.105263e+00	-3.090170e-01
9.442611e-01	2.105263e+00	-3.078203e-01
9.267277e-01	2.105263e+00	-3.047010e-01
8.963175e-01	2.105263e+00	-2.991555e-01
8.562911e-01	2.105263e+00	-2.916579e-01
8.054250e-01	2.105263e+00	-2.817457e-01
7.470317e-01	2.105263e+00	-2.699633e-01
6.809074e-01	2.105263e+00	-2.559818e-01
6.100852e-01	2.105263e+00	-2.403847e-01
5.354138e-01	2.105263e+00	-2.229691e-01
4.593635e-01	2.105263e+00	-2.042585e-01
3.837764e-01	2.105263e+00	-1.841224e-01
3.103069e-01	2.105263e+00	-1.630077e-01
2.415927e-01	2.105263e+00	-1.409228e-01
1.782654e-01	2.105263e+00	-1.183331e-01
1.234349e-01	2.105263e+00	-9.558566e-02
7.662509e-02	2.105263e+00	-7.318920e-02
4.106998e-02	2.105263e+00	-5.193053e-02
1.528206e-02	2.105263e+00	-3.215886e-02
2.347037e-03	2.105263e+00	-1.488740e-02
0.000000e+00	2.105263e+00	0.000000e+00
1.064939e-02	2.105263e+00	1.066461e-02
3.126595e-02	2.105263e+00	1.703450e-02
6.375031e-02	2.105263e+00	1.787236e-02
1.050105e-01	2.105263e+00	1.417221e-02
1.560448e-01	2.105263e+00	4.777214e-03
2.137742e-01	2.105263e+00	-9.048270e-03
2.782849e-01	2.105263e+00	-2.799567e-02
3.468570e-01	2.105263e+00	-5.051783e-02
4.187060e-01	2.105263e+00	-7.662000e-02
4.916930e-01	2.105263e+00	-1.047585e-01
5.642168e-01	2.105263e+00	-1.343226e-01
6.348639e-01	2.105263e+00	-1.641238e-01
7.013280e-01	2.105263e+00	-1.931337e-01
7.630418e-01	2.105263e+00	-2.206893e-01
8.172084e-01	2.105263e+00	-2.454799e-01
8.641863e-01	2.105263e+00	-2.673591e-01
9.009752e-01	2.105263e+00	-2.848204e-01
9.288372e-01	2.105263e+00	-2.982085e-01
9.448555e-01	2.105263e+00	-3.059908e-01
9.510565e-01	2.105263e+00	-3.090170e-01
9.510565e-01	3.157895e+00	-3.090170e-01
9.442611e-01	3.157895e+00	-3.078203e-01
9.267277e-01	3.157895e+00	-3.047010e-01
8.963175e-01	3.157895e+00	-2.991555e-01
8.562911e-01	3.157895e+00	-2.916579e-01
8.054250e-01	3.157895e+00	-2.817457e-01
7.470317e-01	3.157895e+00	-2.699633e-01
6.809074e-01	3.157895e+00	-2.559818e-01
6.100852e-01	3.157895e+00	-2.403847e-01
5.354138e-01	3.157895e+00	-2.229691e-01
4.593635e-01	3.157895e+00	-2.042585e-01
3.837764e-01	3.157895e+00	-1.841224e-01
3.103069e-01	3.157895e+00	-1.630077e-01
2.415927e-01	3.157895e+00	-1.409228e-01
1.782654e-01	3.157895e+00	-1.183331e-01
1.234349e-01	3.157895e+00	-9.558566e-02
7.662509e-02	3.157895e+00	-7.318920e-02
4.106998e-02	3.157895e+00	-5.193053e-02
1.528206e-02	3.157895e+00	-3.215886e-02
2.347037e-03	3.157895e+00	-1.488740e-02
0.000000e+00	3.157895e+00	0.000000e+00
1.064939e-02	3.157895e+00	1.066461e-02
3.126595e-02	3.157895e+00	1.703450e-02
6.375031e-02	3.157895e+00	1.787236e-02
1.050105e-01	3.157895e+00	1.417221e-02
1.560448e-01	3.157895e+00	4.777214e-03
2.137742e-01	3.157895e+00	-9.048270e-03
2.782849e-01	3.157895e+00	-2.799567e-02
3.468570e-01	3.157895e+00	-5.051783e-02
4.187060e-01	3.157895e+00	-7.662000e-02
4.916930e-01	3.157895e+00	-1.047585e-01
5.642168e-01	3.157895e+00	-1.343226e-01
6.348639e-01	3.157895e+00	-1.641238e-01
7.013280e-01	3.157895e+00	-1.931337e-01
7.630418e-01	3.157895e+00	-2.206893e-01
8.172084e-01	3.157895e+00	-2.454799e-01
8.641863e-01	3.157895e+00	-2.673591e-01
9.009752e-01	3.157895e+00	-2.848204e-01
9.288372e-01	3.157895e+00	-2.982085e-01
9.448555e-01	3.157895e+00	-3.059908e-01
9.510565e-01	3.157895e+00	-3.090170e-01
9.510565e-01	4.210526e+00	-3.090170e-01
9.442611e-01	4.210526e+00	-3.078203e-01
9.267277e-01	4.210526e+00	-3.047010e-01
8.963175e-01	4.210526e+00	-2.991555e-01
8.562911e-01	4.210526e+00	-2.916579e-01
8.054250e-01	4.210526e+00	-2.817457e-01
7.470317e-01	4.210526e+00	-2.699633e-01
6.809074e-01	4.210526e+00	-2.559818e-01
6.100852e-01	4.210526e+00	-2.403847e-01
5.354138e-01	4.210526e+00	-2.229691e-01
4.593635e-01	4.210526e+00	-2.042585e-01
3.837764e-01	4.210526e+00	-1.841224e-01
3.103069e-01	4.210526e+00	-1.630077e-01
2.415927e-01	4.210526e+00	-1.409228e-01
1.782654e-01	4.210526e+00	-1.183331e-01
1.234349e-01	4.210526e+00	-9.558566e-02
7.662509e-02	4.210526e+00	-7.318920e-02
4.106998e-02	4.210526e+00	-5.193053e-02
1.528206e-02	4.210526e+00	-3.215886e-02
2.347037e-03	4.210526e+00	-1.488740e-02
0.000000e+00	4.210526e+00	0.000000e+00
1.064939e-02	4.210526e+00	1.066461e-02
3.126595e-02	4.210526e+00	1.703450e-02
6.375031e-02	4.210526e+00	1.787236e-02
1.050105e-01	4.210526e+00	1.417221e-02
1.560448e-01	4.210526e+00	4.777214e-03
2.137742e-01	4.210526e+00	-9.048270e-03
2.782849e-01	4.210526e+00	-2.799567e-02
3.468570e-01	4.210526e+00	-5.051783e-02
4.187060e-01	4.210526e+00	-7.662000e-02
4.916930e-01	4.210526e+00	-1.047585e-01
5.642168e-01	4.210526e+00	-1.343226e-01
6.348639e-01	4.210526e+00	-1.641238e-01
7.013280e-01	4.210526e+00	-1.931337e-01
7.630418e-01	4.210526e+00	-2.206893e-01
8.172084e-01	4.210526e+00	-2.454799e-01
8.641863e-01	4.210526e+00	-2.673591e-01
9.009752e-01	4.210526e+00	-2.848204e-01
9.288372e-01	4.210526e+00	-2.982085e-01
9.448555e-01	4.210526e+00	-3.059908e-01
9.510565e-01	4.210526e+00	-3.090170e-01
9.510565e-01	5.263158e+00	-3.090170e-01
9.442611e-01	5.263158e+00	-3.078203e-01
9.267277e-01	5.263158e+00	-3.047010e-01
8.963175e-01	5.263158e+00	-2.991555e-01
8.562911e-01	5.263158e+00	-2.916579e-01
8.054250e-01	5.263158e+00	-2.817457e-01
7.470317e-01	5.263158e+00	-2.699633e-01
6.809074e-01	5.263158e+00	-2.559818e-01
6.100852e-01	5.263158e+00	-2.403847e-01
5.354138e-01	5.263158e+00	-2.229691e-01
4.593635e-01	5.263158e+00	-2.042585e-01
3.837764e-01	5.263158e+00	-1.841224e-01
3.103069e-01	5.263158e+00	-1.630077e-01
2.415927e-01	5.263158e+00	-1.409228e-01
1.782654e-01	5.263158e+00	-1.183331e-01
1.234349e-01	5.263158e+00	-9.558566e-02
7.662509e-02	5.263158e+00	-7.318920e-02
4.106998e-02	5.263158e+00	-5.193053e-02
1.528206e-02	5.263158e+00	-3.215886e-02
2.347037e-03	5.263158e+00	-1.488740e-02
0.000000e+00	5.263158e+00	0.000000e+00
1.064939e-02	5.263158e+00	1.066461e-02
3.126595e-02	5.263158e+00	1.703450e-02
6.375031e-02	5.263158e+00	1.787236e-02
1.050105e-01	5.263158e+00	1.417221e-02
1.560448e-01	5.263158e+00	4.777214e-03
2.137742e-01	5.263158e+00	-9.048270e-03
2.782849e-01	5.263158e+00	-2.799567e-02
3.468570e-01	5.263158e+00	-5.051783e-02
4.187060e-01	5.263158e+00	-7.662000e-02
4.916930e-01	5.263158e+00	-1.047585e-01
5.642168e-01	5.263158e+00	-1.343226e-01
6.348639e-01	5.263158e+00	-1.641238e-01
7.013280e-01	5.263158e+00	-1.931337e-01
7.630418e-01	5.263158e+00	-2.206893e-01
8.172084e-01	5.263158e+00	-2.454799e-01
8.641863e-01	5.263158e+00	-2.673591e-01
9.009752e-01	5.263158e+00	-2.848204e-01
9.288372e-01	5.263158e+00	-2.982085e-01
9.448555e-01	5.263158e+00	-3.059908e-01
9.510565e-01	5.263158e+00	-3.090170e-01
9.510565e-01	6.315789e+00	-3.090170e-01
9.442611e-01	6.315789e+00	-3.078203e-01
[...]
CELL_DATA 760
VECTORS V double
8.443274e-01	-6.349723e-02	-1.486830e-01
8.693358e-01	-6.334758e-02	-1.546602e-01
8.883921e-01	-6.296098e-02	-1.620067e-01
9.012379e-01	-6.227680e-02	-1.688157e-01
9.047752e-01	-6.127359e-02	-1.763125e-01
9.071542e-01	-5.993223e-02	-1.830423e-01
9.011723e-01	-5.823903e-02	-1.905462e-01
8.949402e-01	-5.616889e-02	-1.970918e-01
8.817279e-01	-5.369114e-02	-2.056456e-01
8.673248e-01	-5.077254e-02	-2.133869e-01
8.435124e-01	-4.738515e-02	-2.247089e-01
8.142824e-01	-4.352509e-02	-2.340197e-01
7.688559e-01	-3.919848e-02	-2.471115e-01
7.093985e-01	-3.446314e-02	-2.530521e-01
6.259249e-01	-2.935591e-02	-2.596765e-01
4.995666e-01	-2.399117e-02	-2.390210e-01
3.033297e-01	-1.837883e-02	-1.813631e-01
2.359235e-02	-1.267400e-02	-1.808832e-02
-3.766335e-01	-6.697891e-03	5.028991e-01
-3.237062e-01	-7.108608e-04	2.053288e+00
2.241694e+00	6.308869e-03	2.244898e+00
2.471709e+00	1.246961e-02	7.636826e-01
2.161243e+00	1.880041e-02	5.574433e-02
1.889490e+00	2.504774e-02	-1.694463e-01
1.692492e+00	3.143307e-02	-3.115743e-01
1.548346e+00	3.780421e-02	-3.708098e-01
1.417585e+00	4.415250e-02	-4.163578e-01
1.321815e+00	5.030804e-02	-4.341435e-01
1.238229e+00	5.615623e-02	-4.498386e-01
1.171181e+00	6.151910e-02	-4.515227e-01
1.112805e+00	6.626745e-02	-4.536312e-01
1.063848e+00	7.028854e-02	-4.487652e-01
1.020863e+00	7.352813e-02	-4.455810e-01
9.816653e-01	7.598702e-02	-4.383201e-01
9.455252e-01	7.772095e-02	-4.327403e-01
9.081929e-01	7.883058e-02	-4.229770e-01
8.721797e-01	7.944075e-02	-4.139654e-01
8.331301e-01	7.969096e-02	-4.003342e-01
7.909975e-01	7.972068e-02	-3.842971e-01
7.490114e-01	7.967855e-02	-3.655247e-01
8.317704e-01	-4.396619e-02	-1.464717e-01
8.536852e-01	-4.386294e-02	-1.518759e-01
8.696692e-01	-4.359780e-02	-1.585925e-01
8.798057e-01	-4.312588e-02	-1.648011e-01
8.809059e-01	-4.242522e-02	-1.716611e-01
8.808159e-01	-4.147659e-02	-1.777279e-01
8.720961e-01	-4.026721e-02	-1.843983e-01
8.625593e-01	-3.878032e-02	-1.899606e-01
8.453116e-01	-3.699889e-02	-1.971522e-01
8.259278e-01	-3.490619e-02	-2.032020e-01
7.961529e-01	-3.249010e-02	-2.120925e-01
7.597405e-01	-2.975464e-02	-2.183447e-01
7.059373e-01	-2.670877e-02	-2.268894e-01
6.363040e-01	-2.339499e-02	-2.269783e-01
5.407440e-01	-1.983802e-02	-2.243376e-01
3.985235e-01	-1.611453e-02	-1.906762e-01
1.824829e-01	-1.222777e-02	-1.091079e-01
-1.257528e-01	-8.282423e-03	9.641506e-02
-5.417120e-01	-4.154012e-03	7.233197e-01
-3.939222e-01	-2.400301e-05	2.498673e+00
2.565363e+00	4.805645e-03	2.569029e+00
2.747258e+00	9.026498e-03	8.488190e-01
2.364360e+00	1.333905e-02	6.098328e-02
2.046376e+00	1.756301e-02	-1.835156e-01
1.820754e+00	2.184136e-02	-3.351863e-01
1.657439e+00	2.606682e-02	-3.969362e-01
1.512281e+00	3.023183e-02	-4.441708e-01
1.405038e+00	3.422656e-02	-4.614778e-01
1.311293e+00	3.798158e-02	-4.763820e-01
1.234983e+00	4.138942e-02	-4.761201e-01
1.167706e+00	4.437572e-02	-4.760116e-01
1.110227e+00	4.687723e-02	-4.683296e-01
1.058995e+00	4.886792e-02	-4.622250e-01
1.012005e+00	5.035604e-02	-4.518670e-01
9.685748e-01	5.138409e-02	-4.432894e-01
9.245789e-01	5.202204e-02	-4.306085e-01
8.825103e-01	5.235432e-02	-4.188686e-01
8.380278e-01	5.247337e-02	-4.026877e-01
7.912557e-01	5.246853e-02	-3.844226e-01
7.457850e-01	5.243198e-02	-3.639502e-01
8.269992e-01	-1.760635e-02	-1.456315e-01
8.478477e-01	-1.756965e-02	-1.508373e-01
8.626046e-01	-1.747540e-02	-1.573041e-01
8.714290e-01	-1.730249e-02	-1.632320e-01
8.711747e-01	-1.703383e-02	-1.697648e-01
8.696815e-01	-1.665328e-02	-1.754812e-01
8.595030e-01	-1.614974e-02	-1.817356e-01
8.483988e-01	-1.551464e-02	-1.868421e-01
8.294416e-01	-1.474373e-02	-1.934509e-01
8.081279e-01	-1.383590e-02	-1.988227e-01
7.761840e-01	-1.279285e-02	-2.067728e-01
7.372437e-01	-1.162427e-02	-2.118793e-01
6.805354e-01	-1.033823e-02	-2.187252e-01
6.073372e-01	-8.954552e-03	-2.166455e-01
5.074706e-01	-7.482568e-03	-2.105335e-01
3.594497e-01	-5.951114e-03	-1.719811e-01
1.360509e-01	-4.358228e-03	-8.134587e-02
-1.828782e-01	-2.744694e-03	1.402133e-01
-6.045817e-01	-1.059850e-03	8.072663e-01
-4.204649e-01	6.192656e-04	2.667034e+00
2.686030e+00	2.567271e-03	2.689869e+00
2.847963e+00	4.247401e-03	8.799339e-01
2.436780e+00	5.932953e-03	6.285118e-02
2.100561e+00	7.544362e-03	-1.883749e-01
1.863421e+00	9.128485e-03	-3.430409e-01
1.692223e+00	1.063982e-02	-4.052667e-01
1.541145e+00	1.207436e-02	-4.526486e-01
1.429256e+00	1.339736e-02	-4.694322e-01
1.331582e+00	1.459297e-02	-4.837529e-01
1.251873e+00	1.563645e-02	-4.826316e-01
1.181520e+00	1.651487e-02	-4.816427e-01
1.121245e+00	1.722088e-02	-4.729771e-01
1.067432e+00	1.775612e-02	-4.659075e-01
1.018097e+00	1.813198e-02	-4.545872e-01
9.725597e-01	1.836902e-02	-4.451132e-01
9.267222e-01	1.849492e-02	-4.316068e-01
8.830887e-01	1.854088e-02	-4.191432e-01
8.373232e-01	1.853879e-02	-4.023490e-01
7.895522e-01	1.851611e-02	-3.835949e-01
7.434141e-01	1.849712e-02	-3.627932e-01
8.256107e-01	-8.088573e-03	-1.453870e-01
8.460471e-01	-8.077562e-03	-1.505170e-01
8.602987e-01	-8.046530e-03	-1.568836e-01
8.685500e-01	-7.985001e-03	-1.626927e-01
8.676531e-01	-7.883677e-03	-1.690785e-01
8.654457e-01	-7.733001e-03	-1.746265e-01
8.544885e-01	-7.525329e-03	-1.806753e-01
8.425335e-01	-7.253891e-03	-1.855504e-01
8.226543e-01	-6.914271e-03	-1.918679e-01
8.003145e-01	-6.504266e-03	-1.969004e-01
7.672471e-01	-6.023967e-03	-2.043921e-01
7.270279e-01	-5.476819e-03	-2.089434e-01
6.688547e-01	-4.866537e-03	-2.149710e-01
5.938755e-01	-4.202297e-03	-2.118435e-01
4.918679e-01	-3.488530e-03	-2.040604e-01
3.409903e-01	-2.739514e-03	-1.631491e-01
1.139915e-01	-1.955004e-03	-6.815638e-02
-2.101167e-01	-1.156303e-03	1.610971e-01
-6.345997e-01	-3.199007e-04	8.473479e-01
-4.331204e-01	5.141021e-04	2.747309e+00
2.743280e+00	1.479477e-03	2.747200e+00
2.895381e+00	2.307918e-03	8.945844e-01
2.470570e+00	3.133056e-03	6.372273e-02
2.125568e+00	3.914622e-03	-1.906175e-01
1.882879e+00	4.674664e-03	-3.466229e-01
1.707892e+00	5.391253e-03	-4.090192e-01
1.553998e+00	6.063316e-03	-4.564235e-01
1.439934e+00	6.676126e-03	-4.729392e-01
1.340463e+00	7.224544e-03	-4.869794e-01
1.259234e+00	7.699665e-03	-4.854694e-01
1.187547e+00	8.098296e-03	-4.840999e-01
1.126094e+00	8.418587e-03	-4.750227e-01
1.071204e+00	8.662951e-03	-4.675536e-01
1.020898e+00	8.837191e-03	-4.558377e-01
9.744920e-01	8.950638e-03	-4.459976e-01
9.279052e-01	9.015535e-03	-4.321577e-01
8.836500e-01	9.045553e-03	-4.194096e-01
8.373934e-01	9.054039e-03	-4.023828e-01
7.892579e-01	9.051866e-03	-3.834519e-01
7.428781e-01	9.047925e-03	-3.625316e-01
8.251513e-01	-4.161545e-03	-1.453061e-01
8.453695e-01	-4.157718e-03	-1.503965e-01
8.593375e-01	-4.145337e-03	-1.567084e-01
8.672636e-01	-4.118151e-03	-1.624518e-01
8.660195e-01	-4.070294e-03	-1.687602e-01
8.634434e-01	-3.996526e-03	-1.742225e-01
8.520879e-01	-3.892934e-03	-1.801677e-01
8.396914e-01	-3.756059e-03	-1.849244e-01
8.193218e-01	-3.583244e-03	-1.910906e-01
7.964385e-01	-3.372636e-03	-1.959468e-01
7.627560e-01	-3.124099e-03	-2.031957e-01
7.218207e-01	-2.837551e-03	-2.074468e-01
6.628354e-01	-2.514878e-03	-2.130364e-01
5.868682e-01	-2.160415e-03	-2.093439e-01
4.836727e-01	-1.776211e-03	-2.006605e-01
3.312193e-01	-1.369873e-03	-1.584741e-01
1.022424e-01	-9.414099e-04	-6.113150e-02
-2.246902e-01	-5.028155e-04	1.722706e-01
-6.507034e-01	-4.657658e-05	8.688503e-01
-4.399146e-01	4.135778e-04	2.790405e+00
2.773956e+00	9.455530e-04	2.777920e+00
2.920683e+00	1.400515e-03	9.024021e-01
2.488501e+00	1.856173e-03	6.418520e-02
2.138741e+00	2.280718e-03	-1.917988e-01
1.893041e+00	2.690520e-03	-3.484937e-01
1.715998e+00	3.073455e-03	-4.109602e-01
1.560578e+00	3.429000e-03	-4.583561e-01
1.445343e+00	3.749709e-03	-4.747158e-01
1.344915e+00	4.033519e-03	-4.885968e-01
1.262898e+00	4.276615e-03	-4.868820e-01
1.190523e+00	4.478940e-03	-4.853127e-01
1.128462e+00	4.639395e-03	-4.760217e-01
1.073040e+00	4.760867e-03	-4.683551e-01
1.022268e+00	4.847204e-03	-4.564497e-01
9.754609e-01	4.903869e-03	-4.464410e-01
9.285434e-01	4.937461e-03	-4.324550e-01
8.840291e-01	4.954733e-03	-4.195895e-01
8.375770e-01	4.961894e-03	-4.024710e-01
7.892943e-01	4.963420e-03	-3.834696e-01
7.428106e-01	4.962945e-03	-3.624986e-01
8.249684e-01	-2.293227e-03	-1.452739e-01
8.450778e-01	-2.291753e-03	-1.503446e-01
8.588909e-01	-2.286455e-03	-1.566269e-01
8.666232e-01	-2.273780e-03	-1.623318e-01
8.651612e-01	-2.249840e-03	-1.685929e-01
8.623564e-01	-2.210913e-03	-1.740032e-01
8.507659e-01	-2.154402e-03	-1.798881e-01
8.381199e-01	-2.078497e-03	-1.845784e-01
8.174777e-01	-1.981995e-03	-1.906605e-01
7.942860e-01	-1.863988e-03	-1.954172e-01
7.602542e-01	-1.723944e-03	-2.025292e-01
7.189107e-01	-1.562190e-03	-2.066105e-01
6.594523e-01	-1.379161e-03	-2.119490e-01
5.829056e-01	-1.177071e-03	-2.079304e-01
4.790099e-01	-9.569113e-04	-1.987261e-01
3.256271e-01	-7.229805e-04	-1.557984e-01
9.548188e-02	-4.753473e-04	-5.708932e-02
-2.330112e-01	-2.211491e-04	1.786503e-01
-6.598728e-01	4.650869e-05	8.810937e-01
-4.438457e-01	3.140544e-04	2.815340e+00
2.791641e+00	6.234316e-04	2.795630e+00
2.935450e+00	8.876906e-04	9.069645e-01
2.498867e+00	1.148850e-03	6.445258e-02
2.146223e+00	1.393555e-03	-1.924698e-01
1.898774e+00	1.628316e-03	-3.495491e-01
1.720531e+00	1.846152e-03	-4.120460e-01
1.564223e+00	2.046838e-03	-4.594267e-01
1.448307e+00	2.226340e-03	-4.756892e-01
1.347326e+00	2.383788e-03	-4.894728e-01
1.264854e+00	2.517445e-03	-4.876362e-01
1.192091e+00	2.627382e-03	-4.859519e-01
1.129698e+00	2.714123e-03	-4.765429e-01
1.073988e+00	2.779373e-03	-4.687687e-01
1.022971e+00	2.825652e-03	-4.567634e-01
9.759587e-01	2.856190e-03	-4.466688e-01
9.288771e-01	2.874623e-03	-4.326104e-01
8.842364e-01	2.884475e-03	-4.196879e-01
8.376904e-01	2.888937e-03	-4.025255e-01
7.893374e-01	2.890298e-03	-3.834906e-01
7.428052e-01	2.890382e-03	-3.624960e-01
8.249039e-01	-1.301721e-03	-1.452626e-01
8.449604e-01	-1.301157e-03	-1.503237e-01
8.586939e-01	-1.298872e-03	-1.565910e-01
8.663198e-01	-1.292977e-03	-1.622750e-01
8.647284e-01	-1.281193e-03	-1.685086e-01
8.617793e-01	-1.261025e-03	-1.738867e-01
8.500372e-01	-1.230460e-03	-1.797341e-01
8.372340e-01	-1.188126e-03	-1.843833e-01
8.164256e-01	-1.133318e-03	-1.904151e-01
7.930502e-01	-1.065662e-03	-1.951132e-01
7.588119e-01	-9.849736e-04	-2.021450e-01
7.172271e-01	-8.914705e-04	-2.061266e-01
6.574883e-01	-7.853723e-04	-2.113178e-01
5.805982e-01	-6.679086e-04	-2.071073e-01
4.762882e-01	-5.396209e-04	-1.975969e-01
3.223584e-01	-4.030217e-04	-1.542345e-01
9.153124e-02	-2.582207e-04	-5.472721e-02
-2.380289e-01	-1.095374e-04	1.824975e-01
-6.654773e-01	5.176055e-05	8.885770e-01
-4.461512e-01	2.085003e-04	2.829964e+00
2.802062e+00	3.900336e-04	2.806066e+00
2.943771e+00	5.452168e-04	9.095355e-01
2.504770e+00	6.937130e-04	6.460484e-02
2.150607e+00	8.368018e-04	-1.928629e-01
1.902113e+00	9.734572e-04	-3.501638e-01
1.723159e+00	1.099702e-03	-4.126752e-01
1.566325e+00	1.215497e-03	-4.600442e-01
1.450009e+00	1.318622e-03	-4.762484e-01
1.348707e+00	1.408711e-03	-4.899742e-01
1.265971e+00	1.484924e-03	-4.880669e-01
1.192986e+00	1.547470e-03	-4.863168e-01
1.130405e+00	1.596803e-03	-4.768413e-01
1.074534e+00	1.634009e-03	-4.690073e-01
1.023382e+00	1.660565e-03	-4.569468e-01
9.762563e-01	1.678264e-03	-4.468050e-01
9.290831e-01	1.689082e-03	-4.327063e-01
8.843711e-01	1.694957e-03	-4.197518e-01
8.377722e-01	1.697713e-03	-4.025648e-01
7.893810e-01	1.698683e-03	-3.835118e-01
7.428235e-01	1.698865e-03	-3.625050e-01
8.248740e-01	-7.125390e-04	-1.452573e-01
8.449038e-01	-7.122228e-04	-1.503136e-01
8.585964e-01	-7.110099e-04	-1.565732e-01
8.661661e-01	-7.079328e-04	-1.622462e-01
8.645036e-01	-7.017826e-04	-1.684648e-01
8.614706e-01	-6.911495e-04	-1.738244e-01
8.496361e-01	-6.747541e-04	-1.796493e-01
8.367349e-01	-6.516300e-04	-1.842733e-01
8.158241e-01	-6.213005e-04	-1.902748e-01
7.923382e-01	-5.836228e-04	-1.949380e-01
7.579778e-01	-5.386039e-04	-2.019227e-01
7.162514e-01	-4.864126e-04	-2.058463e-01
6.563484e-01	-4.271379e-04	-2.109514e-01
5.792566e-01	-3.613953e-04	-2.066287e-01
4.747025e-01	-2.894290e-04	-1.969391e-01
3.204496e-01	-2.126220e-04	-1.533212e-01
8.921780e-02	-1.310262e-04	-5.334399e-02
-2.409153e-01	-4.705685e-05	1.847105e-01
-6.686773e-01	4.148248e-05	8.928499e-01
-4.475019e-01	1.300090e-04	2.838532e+00
2.808140e+00	2.322683e-04	2.812153e+00
2.948750e+00	3.193991e-04	9.110739e-01
2.508266e+00	4.051918e-04	6.469501e-02
2.153144e+00	4.851907e-04	-1.930904e-01
1.904043e+00	5.614969e-04	-3.505190e-01
1.724672e+00	6.318542e-04	-4.130377e-01
1.567532e+00	6.962502e-04	-4.603986e-01
1.450982e+00	7.534725e-04	-4.765680e-01
1.349492e+00	8.033269e-04	-4.902596e-01
1.266605e+00	8.453398e-04	-4.883112e-01
1.193492e+00	8.796186e-04	-4.865230e-01
1.130804e+00	9.064313e-04	-4.770096e-01
1.074842e+00	9.264207e-04	-4.691415e-01
1.023612e+00	9.404538e-04	-4.570497e-01
9.764216e-01	9.495664e-04	-4.468807e-01
9.291953e-01	9.549029e-04	-4.327586e-01
8.844423e-01	9.576013e-04	-4.197856e-01
8.378141e-01	9.587325e-04	-4.025849e-01
7.894030e-01	9.590551e-04	-3.835225e-01
7.428331e-01	9.590819e-04	-3.625096e-01
8.248509e-01	-1.202602e-03	-1.452532e-01
8.448674e-01	-1.204054e-03	-1.503071e-01
8.585396e-01	-1.208559e-03	-1.565629e-01
8.660812e-01	-1.198342e-03	-1.622303e-01
8.643829e-01	-1.168267e-03	-1.684413e-01
8.613071e-01	-1.195582e-03	-1.737914e-01
8.494245e-01	-1.048705e-03	-1.796045e-01
8.364717e-01	-1.099723e-03	-1.842154e-01
8.155073e-01	-8.580892e-04	-1.902010e-01
7.919644e-01	-9.270652e-04	-1.948460e-01
7.575415e-01	-5.930364e-04	-2.018065e-01
7.157420e-01	-6.742008e-04	-2.056999e-01
6.557527e-01	-2.681449e-04	-2.107600e-01
5.785536e-01	-3.602738e-04	-2.063779e-01
4.738691e-01	1.006078e-04	-1.965933e-01
3.194442e-01	4.061403e-04	-1.528402e-01
8.799790e-02	5.689094e-04	-5.261460e-02
-2.424378e-01	5.602986e-04	1.858778e-01
-6.703649e-01	5.776448e-04	8.951032e-01
-4.482138e-01	6.086676e-04	2.843047e+00
2.811339e+00	6.548789e-04	2.815357e+00
2.951367e+00	7.032291e-04	9.118824e-01
2.510101e+00	7.646376e-04	6.474232e-02
2.154473e+00	8.472951e-04	-1.932096e-01
1.905052e+00	7.557864e-04	-3.507048e-01
1.725464e+00	5.166612e-04	-4.132273e-01
1.568164e+00	1.172894e-04	-4.605841e-01
1.451492e+00	2.648948e-04	-4.767354e-01
1.349903e+00	-9.192487e-05	-4.904089e-01
1.266934e+00	3.172035e-05	-4.884380e-01
1.193751e+00	-2.666215e-04	-4.866286e-01
1.131004e+00	-1.688086e-04	-4.770937e-01
1.074990e+00	-3.881996e-04	-4.692062e-01
1.023717e+00	-3.210879e-04	-4.570967e-01
9.764912e-01	-4.571956e-04	-4.469125e-01
9.292367e-01	-4.233721e-04	-4.327778e-01
8.844629e-01	-4.499839e-04	-4.197954e-01
8.378211e-01	-4.586490e-04	-4.025883e-01
7.894018e-01	-4.536177e-04	-3.835219e-01
7.428276e-01	-4.520565e-04	-3.625070e-01
8.251175e-01	7.600087e-07	-1.453002e-01
8.452585e-01	6.816979e-07	-1.503767e-01
8.583136e-01	4.568116e-07	-1.565217e-01
8.651039e-01	2.874740e-08	-1.620472e-01
8.645547e-01	-6.256234e-07	-1.684747e-01
8.592126e-01	-1.476478e-06	-1.733688e-01
8.483094e-01	-2.412179e-06	-1.793687e-01
8.338976e-01	-3.260376e-06	-1.836485e-01
8.135772e-01	-3.863716e-06	-1.897508e-01
7.888334e-01	-4.157947e-06	-1.940757e-01
7.546390e-01	-4.184823e-06	-2.010333e-01
7.120475e-01	-4.045428e-06	-2.046381e-01
6.517614e-01	-3.844315e-06	-2.094772e-01
5.741674e-01	-3.658679e-06	-2.048133e-01
4.620511e-01	-3.531100e-06	-1.916904e-01
3.115786e-01	-3.479415e-06	-1.490769e-01
8.549654e-02	-3.503719e-06	-5.111902e-02
-2.410326e-01	-3.594762e-06	1.848004e-01
-6.699352e-01	-3.744096e-06	8.945295e-01
-4.483184e-01	-3.931714e-06	2.843711e+00
2.812856e+00	-4.177374e-06	2.816876e+00
2.953697e+00	-4.397876e-06	9.126022e-01
2.513034e+00	-4.613588e-06	6.481799e-02
2.152422e+00	-4.802189e-06	-1.930257e-01
1.897131e+00	-4.957272e-06	-3.492467e-01
1.713541e+00	-5.062116e-06	-4.103719e-01
1.564117e+00	-5.104303e-06	-4.593954e-01
1.447855e+00	-5.070576e-06	-4.755409e-01
1.346576e+00	-4.950711e-06	-4.892001e-01
1.264367e+00	-4.742213e-06	-4.874485e-01
1.190957e+00	-4.455094e-06	-4.854899e-01
1.129331e+00	-4.121243e-06	-4.763883e-01
1.072693e+00	-3.794661e-06	-4.682035e-01
1.022763e+00	-3.540175e-06	-4.566707e-01
9.746077e-01	-3.408303e-06	-4.460505e-01
9.294328e-01	-3.402670e-06	-4.328692e-01
8.835859e-01	-3.475286e-06	-4.193791e-01
8.376242e-01	-3.552498e-06	-4.024937e-01
7.897631e-01	-3.582145e-06	-3.836974e-01
7.430722e-01	-3.574096e-06	-3.626263e-01
8.248640e-01	1.204952e-03	-1.452555e-01
8.448853e-01	1.206209e-03	-1.503103e-01
8.585626e-01	1.210178e-03	-1.565671e-01
8.661088e-01	1.198975e-03	-1.622355e-01
8.644135e-01	1.167443e-03	-1.684472e-01
8.613380e-01	1.192952e-03	-1.737977e-01
8.494519e-01	1.044198e-03	-1.796103e-01
8.364922e-01	1.093624e-03	-1.842199e-01
8.155193e-01	8.509420e-04	-1.902038e-01
7.919686e-01	9.194671e-04	-1.948471e-01
7.575400e-01	5.854564e-04	-2.018061e-01
7.157375e-01	6.669031e-04	-2.056985e-01
6.557473e-01	2.612038e-04	-2.107582e-01
5.785489e-01	3.536308e-04	-2.063763e-01
4.738661e-01	-1.070818e-04	-1.965921e-01
3.194436e-01	-4.126014e-04	-1.528399e-01
8.800020e-02	-5.755108e-04	-5.261597e-02
-2.424319e-01	-5.671719e-04	1.858732e-01
-6.703558e-01	-5.849076e-04	8.950911e-01
-4.482091e-01	-6.163932e-04	2.843018e+00
2.811316e+00	-6.631941e-04	2.815334e+00
2.951348e+00	-7.120672e-04	9.118765e-01
2.510088e+00	-7.739869e-04	6.474199e-02
2.154465e+00	-8.570958e-04	-1.932089e-01
1.905047e+00	-7.659693e-04	-3.507039e-01
1.725461e+00	-5.271227e-04	-4.132267e-01
1.568164e+00	-1.279027e-04	-4.605841e-01
1.451494e+00	-2.755069e-04	-4.767361e-01
1.349907e+00	8.148705e-05	-4.904104e-01
1.266940e+00	-4.180286e-05	-4.884404e-01
1.193759e+00	2.570621e-04	-4.866318e-01
1.131012e+00	1.598881e-04	-4.770973e-01
1.074998e+00	3.799390e-04	-4.692096e-01
1.023723e+00	3.133844e-04	-4.570992e-01
9.764935e-01	4.498369e-04	-4.469136e-01
9.292356e-01	4.161183e-04	-4.327773e-01
8.844595e-01	4.426703e-04	-4.197938e-01
8.378176e-01	4.512489e-04	-4.025866e-01
7.894003e-01	4.462069e-04	-3.835211e-01
7.428289e-01	4.446881e-04	-3.625076e-01
8.249065e-01	7.177035e-04	-1.452630e-01
8.449467e-01	7.170521e-04	-1.503212e-01
8.586499e-01	7.149871e-04	-1.565830e-01
8.662282e-01	7.104602e-04	-1.622578e-01
8.645698e-01	7.023703e-04	-1.684777e-01
8.615341e-01	6.896162e-04	-1.738372e-01
8.496892e-01	6.713413e-04	-1.796605e-01
8.367721e-01	6.468945e-04	-1.842815e-01
8.158441e-01	6.158678e-04	-1.902795e-01
7.923438e-01	5.779832e-04	-1.949394e-01
7.579738e-01	5.330446e-04	-2.019217e-01
7.162429e-01	4.810439e-04	-2.058438e-01
6.563393e-01	4.219439e-04	-2.109485e-01
5.792496e-01	3.562807e-04	-2.066262e-01
4.746994e-01	2.842533e-04	-1.969378e-01
3.204517e-01	2.072261e-04	-1.533222e-01
8.922629e-02	1.252482e-04	-5.334906e-02
-2.408988e-01	4.075641e-05	1.846978e-01
-6.686542e-01	-4.844410e-05	8.928191e-01
-4.474907e-01	-1.377159e-04	2.838460e+00
2.808085e+00	-2.409068e-04	2.812098e+00
2.948705e+00	-3.288678e-04	9.110599e-01
2.508236e+00	-4.154917e-04	6.469422e-02
2.153124e+00	-4.962595e-04	-1.930886e-01
1.904030e+00	-5.732703e-04	-3.505166e-01
1.724665e+00	-6.442219e-04	-4.130360e-01
1.567530e+00	-7.090733e-04	-4.603979e-01
1.450985e+00	-7.665742e-04	-4.765688e-01
1.349499e+00	-8.165028e-04	-4.902621e-01
1.266616e+00	-8.583682e-04	-4.883154e-01
1.193506e+00	-8.922783e-04	-4.865289e-01
1.130821e+00	-9.185305e-04	-4.770166e-01
1.074858e+00	-9.378333e-04	-4.691486e-01
1.023625e+00	-9.511585e-04	-4.570556e-01
9.764291e-01	-9.596669e-04	-4.468841e-01
9.291965e-01	-9.645836e-04	-4.327591e-01
8.844390e-01	-9.670376e-04	-4.197841e-01
8.378107e-01	-9.680009e-04	-4.025833e-01
7.894037e-01	-9.681471e-04	-3.835228e-01
7.428396e-01	-9.680290e-04	-3.625128e-01
8.249733e-01	1.311853e-03	-1.452748e-01
8.450474e-01	1.310362e-03	-1.503392e-01
8.587971e-01	1.305574e-03	-1.566098e-01
8.664330e-01	1.289296e-03	-1.622962e-01
8.648410e-01	1.353138e-03	-1.685305e-01
8.618788e-01	1.323652e-03	-1.739068e-01
8.501134e-01	1.290553e-03	-1.797502e-01
8.372829e-01	1.247281e-03	-1.843940e-01
8.164497e-01	1.192298e-03	-1.904208e-01
7.930561e-01	1.124725e-03	-1.951146e-01
7.588069e-01	1.044077e-03	-2.021436e-01
7.172177e-01	9.504302e-04	-2.061239e-01
6.574794e-01	8.439520e-04	-2.113149e-01