# vtk DataFile Version 2.0
OUTPUT by 3D-VPM
ASCII
DATASET UNSTRUCTURED_GRID
POINTS 820 double
9.510565e-01	0.000000e+00	-3.090170e-01
9.442611e-01	0.000000e+00	-3.078203e-01
9.267277e-01	0.000000e+00	-3.047010e-01
8.963175e-01	0.000000e+00	-2.991555e-01
8.562911e-01	0.000000e+00	-2.916579e-01
8.054250e-01	0.000000e+00	-2.817457e-01
7.470317e-01	0.000000e+00	-2.699633e-01
6.809074e-01	0.000000e+00	-2.559818e-01
6.100852e-01	0.000000e+00	-2.403847e-01
5.354138e-01	0.000000e+00	-2.229691e-01
4.593635e-01	0.000000e+00	-2.042585e-01
3.837764e-01	0.000000e+00	-1.841224e-01
3.103069e-01	0.000000e+00	-1.630077e-01
2.415927e-01	0.000000e+00	-1.409228e-01
1.782654e-01	0.000000e+00	-1.183331e-01
1.234349e-01	0.000000e+00	-9.558566e-02
7.662509e-02	0.000000e+00	-7.318920e-02
4.106998e-02	0.000000e+00	-5.193053e-02
1.528206e-02	0.000000e+00	-3.215886e-02
2.347037e-03	0.000000e+00	-1.488740e-02
0.000000e+00	0.000000e+00	0.000000e+00
1.064939e-02	0.000000e+00	1.066461e-02
3.126595e-02	0.000000e+00	1.703450e-02
6.375031e-02	0.000000e+00	1.787236e-02
1.050105e-01	0.000000e+00	1.417221e-02
1.560448e-01	0.000000e+00	4.777214e-03
2.137742e-01	0.000000e+00	-9.048270e-03
2.782849e-01	0.000000e+00	-2.799567e-02
3.468570e-01	0.000000e+00	-5.051783e-02
4.187060e-01	0.000000e+00	-7.662000e-02
4.916930e-01	0.000000e+00	-1.047585e-01
5.642168e-01	0.000000e+00	-1.343226e-01
6.348639e-01	0.000000e+00	-1.641238e-01
7.013280e-01	0.000000e+00	-1.931337e-01
7.630418e-01	0.000000e+00	-2.206893e-01
8.172084e-01	0.000000e+00	-2.454799e-01
8.641863e-01	0.000000e+00	-2.673591e-01
9.009752e-01	0.000000e+00	-2.848204e-01
9.288372e-01	0.000000e+00	-2.982085e-01
9.448555e-01	0.000000e+00	-3.059908e-01
9.510565e-01	0.000000e+00	-3.090170e-01
9.510565e-01	1.052632e+00	-3.090170e-01
9.442611e-01	1.052632e+00	-3.078203e-01
9.267277e-01	1.052632e+00	-3.047010e-01
8.963175e-01	1.052632e+00	-2.991555e-01
8.562911e-01	1.052632e+00	-2.916579e-01
8.054250e-01	1.052632e+00	-2.817457e-01
7.470317e-01	1.052632e+00	-2.699633e-01
6.809074e-01	1.052632e+00	-2.559818e-01
6.100852e-01	1.052632e+00	-2.403847e-01
5.354138e-01	1.052632e+00	-2.229691e-01
4.593635e-01	1.052632e+00	-2.042585e-01
3.837764e-01	1.052632e+00	-1.841224e-01
3.103069e-01	1.052632e+00	-1.630077e-01
2.415927e-01	1.052632e+00	-1.409228e-01
1.782654e-01	1.052632e+00	-1.183331e-01
1.234349e-01	1.052632e+00	-9.558566e-02
7.662509e-02	1.052632e+00	-7.318920e-02
4.106998e-02	1.052632e+00	-5.193053e-02
1.528206e-02	1.052632e+00	-3.215886e-02
2.347037e-03	1.052632e+00	-1.488740e-02
0.000000e+00	1.052632e+00	0.000000e+00
1.064939e-02	1.052632e+00	1.066461e-02
3.126595e-02	1.052632e+00	1.703450e-02
6.375031e-02	1.052632e+00	1.787236e-02
1.050105e-01	1.052632e+00	1.417221e-02
1.560448e-01	1.052632e+00	4.777214e-03
2.137742e-01	1.052632e+00	-9.048270e-03
2.782849e-01	1.052632e+00	-2.799567e-02
3.468570e-01	1.052632e+00	-5.051783e-02
4.187060e-01	1.052632e+00	-7.662000e-02
4.916930e-01	1.052632e+00	-1.047585e-01
5.642168e-01	1.052632e+00	-1.343226e-01
6.348639e-01	1.052632e+00	-1.641238e-01
7.013280e-01	1.052632e+00	-1.931337e-01
7.630418e-01	1.052632e+00	-2.206893e-01
8.172084e-01	1.052632e+00	-2.454799e-01
8.641863e-01	1.052632e+00	-2.673591e-01
9.009752e-01	1.052632e+00	-2.848204e-01
9.288372e-01	1.052632e+00	-2.982085e-01
9.448555e-01	1.052632e+00	-3.059908e-01
9.510565e-01	1.052632e+00	-3.090170e-01
9.510565e-01	2.105263e+00	-3.090170e-01
9.442611e-01	2.105263e+00	-3.078203e-01
9.267277e-01	2.105263e+00	-3.047010e-01
8.963175e-01	2.105263e+00	-2.991555e-01
8.562911e-01	2.105263e+00	-2.916579e-01
8.054250e-01	2.105263e+00	-2.817457e-01
7.470317e-01	2.105263e+00	-2.699633e-01
6.809074e-01	2.105263e+00	-2.559818e-01
6.100852e-01	2.105263e+00	-2.403847e-01
5.354138e-01	2.105263e+00	-2.229691e-01
4.593635e-01	2.105263e+00	-2.042585e-01
3.837764e-01	2.105263e+00	-1.841224e-01
3.103069e-01	2.105263e+00	-1.630077e-01
2.415927e-01	2.105263e+00	-1.409228e-01
1.782654e-01	2.105263e+00	-1.183331e-01
1.234349e-01	2.105263e+00	-9.558566e-02
7.662509e-02	2.105263e+00	-7.318920e-02
4.106998e-02	2.105263e+00	-5.193053e-02
1.528206e-02	2.105263e+00	-3.215886e-02
2.347037e-03	2.105263e+00	-1.488740e-02
0.000000e+00	2.105263e+00	0.000000e+00
1.064939e-02	2.105263e+00	1.066461e-02
3.126595e-02	2.105263e+00	1.703450e-02
6.375031e-02	2.105263e+00	1.787236e-02
1.050105e-01	2.105263e+00	1.417221e-02
1.560448e-01	2.105263e+00	4.777214e-03
2.137742e-01	2.105263e+00	-9.048270e-03
2.782849e-01	2.105263e+00	-2.799567e-02
3.468570e-01	2.105263e+00	-5.051783e-02
4.187060e-01	2.105263e+00	-7.662000e-02
4.916930e-01	2.105263e+00	-1.047585e-01
5.642168e-01	2.105263e+00	-1.343226e-01
6.348639e-01	2.105263e+00	-1.641238e-01
7.013280e-01	2.105263e+00	-1.931337e-01
7.630418e-01	2.105263e+00	-2.206893e-01
8.172084e-01	2.105263e+00	-2.454799e-01
8.641863e-01	2.105263e+00	-2.673591e-01
9.009752e-01	2.105263e+00	-2.848204e-01
9.288372e-01	2.105263e+00	-2.982085e-01
9.448555e-01	2.105263e+00	-3.059908e-01
9.510565e-01	2.105263e+00	-3.090170e-01
9.510565e-01	3.157895e+00	-3.090170e-01
9.442611e-01	3.157895e+00	-3.078203e-01
9.267277e-01	3.157895e+00	-3.047010e-01
8.963175e-01	3.157895e+00	-2.991555e-01
8.562911e-01	3.157895e+00	-2.916579e-01
8.054250e-01	3.157895e+00	-2.817457e-01
7.470317e-01	3.157895e+00	-2.699633e-01
6.809074e-01	3.157895e+00	-2.559818e-01
6.100852e-01	3.157895e+00	-2.403847e-01
5.354138e-01	3.157895e+00	-2.229691e-01
4.593635e-01	3.157895e+00	-2.042585e-01
3.837764e-01	3.157895e+00	-1.841224e-01
3.103069e-01	3.157895e+00	-1.630077e-01
2.415927e-01	3.157895e+00	-1.409228e-01
1.782654e-01	3.157895e+00	-1.183331e-01
1.234349e-01	3.157895e+00	-9.558566e-02
7.662509e-02	3.157895e+00	-7.318920e-02
4.106998e-02	3.157895e+00	-5.193053e-02
1.528206e-02	3.157895e+00	-3.215886e-02
2.347037e-03	3.157895e+00	-1.488740e-02
0.000000e+00	3.157895e+00	0.000000e+00
1.064939e-02	3.157895e+00	1.066461e-02
3.126595e-02	3.157895e+00	1.703450e-02
6.375031e-02	3.157895e+00	1.787236e-02
1.050105e-01	3.157895e+00	1.417221e-02
1.560448e-01	3.157895e+00	4.777214e-03
2.137742e-01	3.157895e+00	-9.048270e-03
2.782849e-01	3.157895e+00	-2.799567e-02
3.468570e-01	3.157895e+00	-5.051783e-02
4.187060e-01	3.157895e+00	-7.662000e-02
4.916930e-01	3.157895e+00	-1.047585e-01
5.642168e-01	3.157895e+00	-1.343226e-01
6.348639e-01	3.157895e+00	-1.641238e-01
7.013280e-01	3.157895e+00	-1.931337e-01
7.630418e-01	3.157895e+00	-2.206893e-01
8.172084e-01	3.157895e+00	-2.454799e-01
8.641863e-01	3.157895e+00	-2.673591e-01
9.009752e-01	3.157895e+00	-2.848204e-01
9.288372e-01	3.157895e+00	-2.982085e-01
9.448555e-01	3.157895e+00	-3.059908e-01
9.510565e-01	3.157895e+00	-3.090170e-01
9.510565e-01	4.210526e+00	-3.090170e-01
9.442611e-01	4.210526e+00	-3.078203e-01
9.267277e-01	4.210526e+00	-3.047010e-01
8.963175e-01	4.210526e+00	-2.991555e-01
8.562911e-01	4.210526e+00	-2.916579e-01
8.054250e-01	4.210526e+00	-2.817457e-01
7.470317e-01	4.210526e+00	-2.699633e-01
6.809074e-01	4.210526e+00	-2.559818e-01
6.100852e-01	4.210526e+00	-2.403847e-01
5.354138e-01	4.210526e+00	-2.229691e-01
4.593635e-01	4.210526e+00	-2.042585e-01
3.837764e-01	4.210526e+00	-1.841224e-01
3.103069e-01	4.210526e+00	-1.630077e-01
2.415927e-01	4.210526e+00	-1.409228e-01
1.782654e-01	4.210526e+00	-1.183331e-01
1.234349e-01	4.210526e+00	-9.558566e-02
7.662509e-02	4.210526e+00	-7.318920e-02
4.106998e-02	4.210526e+00	-5.193053e-02
1.528206e-02	4.210526e+00	-3.215886e-02
2.347037e-03	4.210526e+00	-1.488740e-02
0.000000e+00	4.210526e+00	0.000000e+00
1.064939e-02	4.210526e+00	1.066461e-02
3.126595e-02	4.210526e+00	1.703450e-02
6.375031e-02	4.210526e+00	1.787236e-02
1.050105e-01	4.210526e+00	1.417221e-02
1.560448e-01	4.210526e+00	4.777214e-03
2.137742e-01	4.210526e+00	-9.048270e-03
2.782849e-01	4.210526e+00	-2.799567e-02
3.468570e-01	4.210526e+00	-5.051783e-02
4.187060e-01	4.210526e+00	-7.662000e-02
4.916930e-01	4.210526e+00	-1.047585e-01
5.642168e-01	4.210526e+00	-1.343226e-01
6.348639e-01	4.210526e+00	-1.641238e-01
7.013280e-01	4.210526e+00	-1.931337e-01
7.630418e-01	4.210526e+00	-2.206893e-01
8.172084e-01	4.210526e+00	-2.454799e-01
8.641863e-01	4.210526e+00	-2.673591e-01
9.009752e-01	4.210526e+00	-2.848204e-01
9.288372e-01	4.210526e+00	-2.982085e-01
9.448555e-01	4.210526e+00	-3.059908e-01
9.510565e-01	4.210526e+00	-3.090170e-01
9.510565e-01	5.263158e+00	-3.090170e-01
9.442611e-01	5.263158e+00	-3.078203e-01
9.267277e-01	5.263158e+00	-3.047010e-01
8.963175e-01	5.263158e+00	-2.991555e-01
8.562911e-01	5.263158e+00	-2.916579e-01
8.054250e-01	5.263158e+00	-2.817457e-01
7.470317e-01	5.263158e+00	-2.699633e-01
6.809074e-01	5.263158e+00	-2.559818e-01
6.100852e-01	5.263158e+00	-2.403847e-01
5.354138e-01	5.263158e+00	-2.229691e-01
4.593635e-01	5.263158e+00	-2.042585e-01
3.837764e-01	5.263158e+00	-1.841224e-01
3.103069e-01	5.263158e+00	-1.630077e-01
2.415927e-01	5.263158e+00	-1.409228e-01
1.782654e-01	5.263158e+00	-1.183331e-01
1.234349e-01	5.263158e+00	-9.558566e-02
7.662509e-02	5.263158e+00	-7.318920e-02
4.106998e-02	5.263158e+00	-5.193053e-02
1.528206e-02	5.263158e+00	-3.215886e-02
2.347037e-03	5.263158e+00	-1.488740e-02
0.000000e+00	5.263158e+00	0.000000e+00
1.064939e-02	5.263158e+00	1.066461e-02
3.126595e-02	5.263158e+00	1.703450e-02
6.375031e-02	5.263158e+00	1.787236e-02
1.050105e-01	5.263158e+00	1.417221e-02
1.560448e-01	5.263158e+00	4.777214e-03
2.137742e-01	5.263158e+00	-9.048270e-03
2.782849e-01	5.263158e+00	-2.799567e-02
3.468570e-01	5.263158e+00	-5.051783e-02
4.187060e-01	5.263158e+00	-7.662000e-02
4.916930e-01	5.263158e+00	-1.047585e-01
5.642168e-01	5.263158e+00	-1.343226e-01
6.348639e-01	5.263158e+00	-1.641238e-01
7.013280e-01	5.263158e+00	-1.931337e-01
7.630418e-01	5.263158e+00	-2.206893e-01
8.172084e-01	5.263158e+00	-2.454799e-01
8.641863e-01	5.263158e+00	-2.673591e-01
9.009752e-01	5.263158e+00	-2.848204e-01
9.288372e-01	5.263158e+00	-2.982085e-01
9.448555e-01	5.263158e+00	-3.059908e-01
9.510565e-01	5.263158e+00	-3.090170e-01
9.510565e-01	6.315789e+00	-3.090170e-01
9.442611e-01	6.315789e+00	-3.078203e-01
[...]
CELL_DATA 760
VECTORS V double
8.414220e-01	-6.903594e-02	-1.481713e-01
8.655426e-01	-6.886236e-02	-1.539854e-01
8.835570e-01	-6.841258e-02	-1.611250e-01
8.953222e-01	-6.761816e-02	-1.677076e-01
8.977863e-01	-6.645720e-02	-1.749505e-01
8.990978e-01	-6.491205e-02	-1.814167e-01
8.920590e-01	-6.297241e-02	-1.886193e-01
8.847475e-01	-6.061421e-02	-1.948471e-01
8.704121e-01	-5.780896e-02	-2.030064e-01
8.547707e-01	-5.452407e-02	-2.102982e-01
8.294643e-01	-5.073405e-02	-2.209665e-01
7.985406e-01	-4.642469e-02	-2.294957e-01
7.511893e-01	-4.162897e-02	-2.414334e-01
6.891621e-01	-3.639806e-02	-2.458335e-01
6.025079e-01	-3.076991e-02	-2.499615e-01
4.718262e-01	-2.486735e-02	-2.257484e-01
2.701095e-01	-1.869836e-02	-1.615005e-01
-1.747215e-02	-1.242901e-02	1.339595e-02
-4.218668e-01	-5.860727e-03	5.632967e-01
-3.427213e-01	7.203433e-04	2.173902e+00
2.327175e+00	8.434078e-03	2.330501e+00
2.541822e+00	1.519937e-02	7.853456e-01
2.210642e+00	2.214610e-02	5.701847e-02
1.925590e+00	2.899399e-02	-1.726838e-01
1.720232e+00	3.598404e-02	-3.166810e-01
1.570441e+00	4.295115e-02	-3.761012e-01
1.435582e+00	4.988966e-02	-4.216436e-01
1.336760e+00	5.662109e-02	-4.390521e-01
1.250658e+00	6.302725e-02	-4.543538e-01
1.181713e+00	6.891031e-02	-4.555828e-01
1.121881e+00	7.415476e-02	-4.573310e-01
1.071621e+00	7.862349e-02	-4.520443e-01
1.027480e+00	8.225427e-02	-4.484693e-01
9.872044e-01	8.503936e-02	-4.407934e-01
9.499822e-01	8.703014e-02	-4.347801e-01
9.115294e-01	8.832454e-02	-4.245309e-01
8.743616e-01	8.905086e-02	-4.150010e-01
8.341867e-01	8.935819e-02	-4.008419e-01
7.910580e-01	8.940215e-02	-3.843265e-01
7.483066e-01	8.935648e-02	-3.651808e-01
8.268559e-01	-4.834513e-02	-1.456063e-01
8.473434e-01	-4.822082e-02	-1.507476e-01
8.618055e-01	-4.790229e-02	-1.571584e-01
8.704912e-01	-4.733845e-02	-1.630564e-01
8.702420e-01	-4.650669e-02	-1.695830e-01
8.688573e-01	-4.538818e-02	-1.753149e-01
8.588576e-01	-4.397223e-02	-1.815991e-01
8.479873e-01	-4.224385e-02	-1.867515e-01
8.293161e-01	-4.018822e-02	-1.934216e-01
8.083268e-01	-3.779016e-02	-1.988717e-01
7.765375e-01	-3.501989e-02	-2.068670e-01
7.378758e-01	-3.192790e-02	-2.120609e-01
6.815691e-01	-2.849153e-02	-2.190574e-01
6.085141e-01	-2.476587e-02	-2.170653e-01
5.087102e-01	-2.077688e-02	-2.110478e-01
3.607039e-01	-1.660761e-02	-1.725812e-01
1.372890e-01	-1.225986e-02	-8.208610e-02
-1.816046e-01	-7.847033e-03	1.392367e-01
-6.033114e-01	-3.229273e-03	8.055702e-01
-4.198930e-01	1.390499e-03	2.663407e+00
2.682712e+00	6.790960e-03	2.686545e+00
2.844271e+00	1.150724e-02	8.787930e-01
2.433385e+00	1.632159e-02	6.276361e-02
2.097432e+00	2.103109e-02	-1.880943e-01
1.860560e+00	2.579445e-02	-3.425142e-01
1.689705e+00	3.049202e-02	-4.046636e-01
1.539110e+00	3.511800e-02	-4.520508e-01
1.427846e+00	3.955425e-02	-4.689691e-01
1.330749e+00	4.372893e-02	-4.834504e-01
1.251929e+00	4.753438e-02	-4.826531e-01
1.182690e+00	5.086028e-02	-4.821195e-01
1.123355e+00	5.367785e-02	-4.738672e-01
1.070406e+00	5.593736e-02	-4.672056e-01
1.021752e+00	5.764323e-02	-4.562192e-01
9.765985e-01	5.883671e-02	-4.469616e-01
9.307663e-01	5.958864e-02	-4.334902e-01
8.867530e-01	5.998741e-02	-4.208824e-01
8.402945e-01	6.013383e-02	-4.037768e-01
7.917010e-01	6.013020e-02	-3.846389e-01
7.448094e-01	6.008689e-02	-3.634741e-01
8.205596e-01	-2.041141e-02	-1.444975e-01
8.397176e-01	-2.035956e-02	-1.493909e-01
8.526998e-01	-2.022919e-02	-1.554979e-01
8.598576e-01	-1.999314e-02	-1.610645e-01
8.580659e-01	-1.963450e-02	-1.672103e-01
8.550983e-01	-1.913660e-02	-1.725386e-01
8.434737e-01	-1.848968e-02	-1.783463e-01
8.308687e-01	-1.768843e-02	-1.829814e-01
8.103076e-01	-1.670569e-02	-1.889882e-01
7.869145e-01	-1.558537e-02	-1.936036e-01
7.528441e-01	-1.431320e-02	-2.005552e-01
7.115457e-01	-1.290397e-02	-2.044938e-01
6.517201e-01	-1.134771e-02	-2.094639e-01
5.745583e-01	-9.680608e-03	-2.049528e-01
4.697650e-01	-7.912747e-03	-1.948906e-01
3.150072e-01	-6.076588e-03	-1.507173e-01
8.299901e-02	-4.168865e-03	-4.962573e-02
-2.484108e-01	-2.237500e-03	1.904573e-01
-6.768390e-01	-2.216351e-04	9.037478e-01
-4.509369e-01	1.786803e-03	2.860320e+00
2.823827e+00	4.116095e-03	2.827862e+00
2.962007e+00	6.124230e-03	9.151700e-01
2.518017e+00	8.137863e-03	6.494650e-02
2.160737e+00	1.006185e-02	-1.937713e-01
1.910387e+00	1.195243e-02	-3.516869e-01
1.730314e+00	1.375606e-02	-4.143888e-01
1.572808e+00	1.546813e-02	-4.619481e-01
1.456142e+00	1.704802e-02	-4.782628e-01
1.354666e+00	1.847823e-02	-4.921393e-01
1.271707e+00	1.974431e-02	-4.902782e-01
1.198804e+00	2.080960e-02	-4.886884e-01
1.136487e+00	2.166993e-02	-4.794066e-01
1.080555e+00	2.230695e-02	-4.716352e-01
1.029172e+00	2.277854e-02	-4.595323e-01
9.815360e-01	2.308061e-02	-4.492214e-01
9.334892e-01	2.324525e-02	-4.347584e-01
8.875243e-01	2.330771e-02	-4.212484e-01
8.394011e-01	2.330546e-02	-4.033475e-01
7.894756e-01	2.327499e-02	-3.835577e-01
7.416746e-01	2.324819e-02	-3.619443e-01
8.181557e-01	-1.021991e-02	-1.440742e-01
8.367404e-01	-1.019886e-02	-1.488613e-01
8.489672e-01	-1.014257e-02	-1.548172e-01
8.553525e-01	-1.003674e-02	-1.602206e-01
8.527726e-01	-9.871543e-03	-1.661788e-01
8.489660e-01	-9.623627e-03	-1.713013e-01
8.364730e-01	-9.310916e-03	-1.768660e-01
8.225737e-01	-8.913417e-03	-1.811546e-01
8.009407e-01	-8.440046e-03	-1.868036e-01
7.769165e-01	-7.876118e-03	-1.911438e-01
7.414905e-01	-7.236682e-03	-1.975306e-01
6.983562e-01	-6.499059e-03	-2.007033e-01
6.367931e-01	-5.693489e-03	-2.046663e-01
5.574746e-01	-4.817244e-03	-1.988588e-01
4.500573e-01	-3.882377e-03	-1.867145e-01
2.917587e-01	-2.906331e-03	-1.395939e-01
5.528074e-02	-1.892461e-03	-3.305277e-02
-2.825678e-01	-8.588963e-04	2.166456e-01
-7.144362e-01	2.208606e-04	9.539493e-01
-4.667721e-01	1.295575e-03	2.960764e+00
2.895402e+00	2.537771e-03	2.899540e+00
3.021259e+00	3.602566e-03	9.334769e-01
2.560228e+00	4.662246e-03	6.603524e-02
2.191963e+00	5.665686e-03	-1.965716e-01
1.934701e+00	6.645522e-03	-3.561630e-01
1.749918e+00	7.565761e-03	-4.190839e-01
1.588913e+00	8.430279e-03	-4.666783e-01
1.469553e+00	9.227420e-03	-4.826674e-01
1.365881e+00	9.936213e-03	-4.962134e-01
1.281346e+00	1.055537e-02	-4.939944e-01
1.206803e+00	1.109394e-02	-4.919494e-01
1.142500e+00	1.152535e-02	-4.819430e-01
1.085249e+00	1.186350e-02	-4.736841e-01
1.032974e+00	1.210171e-02	-4.612297e-01
9.842015e-01	1.226182e-02	-4.504413e-01
9.351559e-01	1.234283e-02	-4.355346e-01
8.883137e-01	1.238680e-02	-4.216231e-01
8.394624e-01	1.239700e-02	-4.033770e-01
7.889767e-01	1.239017e-02	-3.833154e-01
7.407051e-01	1.238151e-02	-3.614711e-01
8.170280e-01	-5.652057e-03	-1.438756e-01
8.351854e-01	-5.640936e-03	-1.485846e-01
8.470021e-01	-5.609430e-03	-1.544589e-01
8.529471e-01	-5.550052e-03	-1.597701e-01
8.496113e-01	-5.453860e-03	-1.655627e-01
8.453666e-01	-5.313563e-03	-1.705750e-01
8.324891e-01	-5.142202e-03	-1.760237e-01
8.184685e-01	-4.922502e-03	-1.802506e-01
7.963061e-01	-4.657574e-03	-1.857227e-01
7.711160e-01	-4.321773e-03	-1.897167e-01
7.348476e-01	-3.930818e-03	-1.957609e-01
6.909780e-01	-3.494524e-03	-1.985828e-01
6.283636e-01	-3.022996e-03	-2.019571e-01
5.476513e-01	-2.602640e-03	-1.953547e-01
4.386715e-01	-2.059317e-03	-1.819909e-01
2.783617e-01	-1.451722e-03	-1.331840e-01
3.928059e-02	-8.423041e-04	-2.348615e-02
-3.024619e-01	-2.227217e-04	2.318984e-01
-7.363373e-01	4.250711e-04	9.831928e-01
-4.759839e-01	1.069723e-03	3.019195e+00
2.936895e+00	1.812946e-03	2.941092e+00
3.055428e+00	2.447701e-03	9.440342e-01
2.584428e+00	3.076100e-03	6.665943e-02
2.209867e+00	3.666870e-03	-1.981772e-01
1.948494e+00	4.236482e-03	-3.587022e-01
1.760871e+00	4.759749e-03	-4.217068e-01
1.597946e+00	5.245480e-03	-4.693314e-01
1.477002e+00	5.789336e-03	-4.851140e-01
1.371967e+00	6.193669e-03	-4.984244e-01
1.286317e+00	6.532096e-03	-4.959106e-01
1.210950e+00	6.813028e-03	-4.936400e-01
1.146321e+00	7.042497e-03	-4.835549e-01
1.088277e+00	7.240008e-03	-4.750058e-01
1.034943e+00	7.382452e-03	-4.621091e-01
9.854726e-01	7.480592e-03	-4.510231e-01
9.358719e-01	7.529070e-03	-4.358681e-01
8.888575e-01	7.552409e-03	-4.218812e-01
8.396025e-01	7.558834e-03	-4.034443e-01
7.887816e-01	7.554990e-03	-3.832205e-01
7.403473e-01	7.550731e-03	-3.612965e-01
8.162893e-01	-3.263276e-03	-1.437456e-01
8.342264e-01	-3.270252e-03	-1.484140e-01
8.457724e-01	-3.250994e-03	-1.542346e-01
8.513772e-01	-3.214526e-03	-1.594760e-01
8.479388e-01	-3.152853e-03	-1.652368e-01
8.435617e-01	-3.100290e-03	-1.702108e-01
8.304233e-01	-2.983197e-03	-1.755869e-01
8.156718e-01	-2.839358e-03	-1.796346e-01
7.928273e-01	-2.655207e-03	-1.849113e-01
7.673745e-01	-2.422918e-03	-1.887962e-01
7.306783e-01	-2.183591e-03	-1.946503e-01
6.862554e-01	-1.957930e-03	-1.972256e-01
6.243675e-01	-1.643873e-03	-2.006727e-01
5.432236e-01	-1.425763e-03	-1.937753e-01
4.313716e-01	-1.061315e-03	-1.789624e-01
2.693120e-01	-6.836523e-04	-1.288541e-01
2.903403e-02	-2.879265e-04	-1.735967e-02
-3.149806e-01	1.070543e-04	2.414965e-01
-7.501293e-01	5.191673e-04	1.001608e+00
-4.817791e-01	9.284716e-04	3.055954e+00
2.962916e+00	1.399558e-03	2.967151e+00
3.076774e+00	1.800698e-03	9.506295e-01
2.599450e+00	2.196442e-03	6.704689e-02
2.220687e+00	2.566330e-03	-1.991476e-01
1.956598e+00	2.916225e-03	-3.601940e-01
1.767187e+00	3.242731e-03	-4.232195e-01
1.604562e+00	3.656320e-03	-4.712746e-01
1.482650e+00	3.906001e-03	-4.869690e-01
1.375553e+00	4.156343e-03	-4.997273e-01
1.289161e+00	4.375135e-03	-4.970072e-01
1.213195e+00	4.540176e-03	-4.945548e-01
1.147951e+00	4.645844e-03	-4.842427e-01
1.089803e+00	4.740403e-03	-4.756716e-01
1.036457e+00	4.815342e-03	-4.627852e-01
9.865969e-01	4.861367e-03	-4.515376e-01
9.365318e-01	4.922890e-03	-4.361754e-01
8.890414e-01	4.931982e-03	-4.219685e-01
8.396004e-01	4.933824e-03	-4.034433e-01
7.886055e-01	4.930487e-03	-3.831350e-01
7.400528e-01	4.941381e-03	-3.611528e-01
8.181988e-01	-2.031911e-03	-1.440818e-01
8.341215e-01	-2.027877e-03	-1.483954e-01
8.450425e-01	-2.017694e-03	-1.541015e-01
8.504331e-01	-1.999093e-03	-1.592992e-01
8.473328e-01	-1.968970e-03	-1.651187e-01
8.423705e-01	-2.012927e-03	-1.699705e-01
8.284567e-01	-1.890704e-03	-1.751710e-01
8.137931e-01	-1.785897e-03	-1.792209e-01
7.906819e-01	-1.686911e-03	-1.844109e-01
7.649258e-01	-1.545842e-03	-1.881938e-01
7.287671e-01	-1.390079e-03	-1.941411e-01
6.838019e-01	-1.220479e-03	-1.965204e-01
6.209205e-01	-1.022374e-03	-1.995649e-01
5.390882e-01	-7.442257e-04	-1.923001e-01
4.265933e-01	-5.083703e-04	-1.769801e-01
2.641248e-01	-3.004189e-04	-1.263722e-01
2.237605e-02	-5.634355e-05	-1.337880e-02
-3.231066e-01	1.665659e-04	2.477267e-01
-7.590268e-01	4.281872e-04	1.013489e+00
-4.855050e-01	6.874311e-04	3.079588e+00
2.979619e+00	9.847755e-04	2.983877e+00
3.090439e+00	1.236052e-03	9.548513e-01
2.609048e+00	1.508374e-03	6.729444e-02
2.227665e+00	1.737833e-03	-1.997733e-01
1.962056e+00	1.958344e-03	-3.611988e-01
1.773664e+00	2.172124e-03	-4.247706e-01
1.607879e+00	2.398648e-03	-4.722490e-01
1.483941e+00	2.471099e-03	-4.873932e-01
1.378079e+00	2.614998e-03	-5.006448e-01
1.291159e+00	2.750714e-03	-4.977772e-01
1.214342e+00	2.863017e-03	-4.950227e-01
1.148876e+00	2.953013e-03	-4.846329e-01
1.090544e+00	3.051204e-03	-4.759953e-01
1.036699e+00	3.116388e-03	-4.628932e-01
9.871749e-01	3.236920e-03	-4.518021e-01
9.372723e-01	3.228368e-03	-4.365203e-01
8.891278e-01	3.222394e-03	-4.220095e-01
8.395870e-01	3.219430e-03	-4.034369e-01
7.889168e-01	3.216178e-03	-3.832863e-01
7.420156e-01	3.213888e-03	-3.621107e-01
8.156124e-01	-1.153529e-03	-1.436264e-01
8.333988e-01	-1.136638e-03	-1.482668e-01
8.447632e-01	-1.128186e-03	-1.540506e-01
8.501322e-01	-1.137204e-03	-1.592428e-01
8.483543e-01	-1.116998e-03	-1.653178e-01
8.420243e-01	-1.065453e-03	-1.699006e-01
8.269451e-01	-1.024009e-03	-1.748514e-01
8.127806e-01	-9.951470e-04	-1.789979e-01
7.895816e-01	-1.001749e-03	-1.841543e-01
7.634778e-01	-9.210976e-04	-1.878375e-01
7.264255e-01	-8.174634e-04	-1.935173e-01
6.813579e-01	-6.617736e-04	-1.958181e-01
6.177801e-01	-5.811183e-04	-1.985555e-01
5.355449e-01	-3.458355e-04	-1.910362e-01
4.241107e-01	-2.549525e-04	-1.759501e-01
2.610325e-01	-1.259803e-04	-1.248927e-01
1.899885e-02	1.217472e-05	-1.135955e-02
-3.272573e-01	1.551276e-04	2.509091e-01
-7.645201e-01	3.055238e-04	1.020824e+00
-4.878002e-01	4.553879e-04	3.094146e+00
2.989771e+00	6.278740e-04	2.994044e+00
3.100000e+00	7.744142e-04	9.578054e-01
2.615451e+00	9.184699e-04	6.745959e-02
2.231824e+00	1.052985e-03	-2.001463e-01
1.965320e+00	1.181389e-03	-3.617997e-01
1.774755e+00	1.301862e-03	-4.250319e-01
1.608981e+00	1.329148e-03	-4.725724e-01
1.485684e+00	1.440193e-03	-4.879655e-01
1.379199e+00	1.547420e-03	-5.010518e-01
1.292291e+00	1.607991e-03	-4.982137e-01
1.215728e+00	1.676281e-03	-4.955875e-01
1.150348e+00	1.821935e-03	-4.852539e-01
1.091994e+00	1.842668e-03	-4.766279e-01
1.039084e+00	1.884527e-03	-4.639581e-01
9.885227e-01	1.896420e-03	-4.524190e-01
9.362578e-01	1.881621e-03	-4.360478e-01
8.888288e-01	1.884619e-03	-4.218676e-01
8.394130e-01	1.906332e-03	-4.033532e-01
7.883327e-01	1.903137e-03	-3.830024e-01
7.397021e-01	1.887534e-03	-3.609817e-01
8.153641e-01	-1.386819e-03	-1.435826e-01
8.329697e-01	-1.386874e-03	-1.481905e-01
8.451717e-01	-1.387520e-03	-1.541251e-01
8.500632e-01	-1.369584e-03	-1.592299e-01
8.458329e-01	-1.327799e-03	-1.648265e-01
8.407801e-01	-1.249887e-03	-1.696496e-01
8.273849e-01	-1.152668e-03	-1.749444e-01
8.134928e-01	-1.214962e-03	-1.791548e-01
7.896616e-01	-9.944313e-04	-1.841730e-01
7.625056e-01	-1.042398e-03	-1.875983e-01
7.253807e-01	-6.841835e-04	-1.932390e-01
6.806290e-01	-7.704097e-04	-1.956086e-01
6.165957e-01	-3.332286e-04	-1.981749e-01
5.341310e-01	-3.951510e-04	-1.905318e-01
4.230509e-01	6.595705e-05	-1.755104e-01
2.592121e-01	4.074741e-04	-1.240218e-01
1.637881e-02	6.048992e-04	-9.793014e-03
-3.306051e-01	6.547266e-04	2.534759e-01
-7.673179e-01	7.032182e-04	1.024559e+00
-4.889911e-01	7.649477e-04	3.101700e+00
2.995242e+00	8.470760e-04	2.999523e+00
3.103201e+00	9.271434e-04	9.587945e-01
2.618005e+00	9.947625e-04	6.752547e-02
2.234170e+00	1.108029e-03	-2.003566e-01
1.967047e+00	1.044308e-03	-3.621176e-01
1.776096e+00	8.632202e-04	-4.253530e-01
1.610038e+00	4.845965e-04	-4.728829e-01
1.486969e+00	6.476373e-04	-4.883876e-01
1.380255e+00	3.322532e-04	-5.014356e-01
1.292786e+00	4.636004e-04	-4.984046e-01
1.217015e+00	1.702706e-04	-4.961123e-01
1.151028e+00	3.221714e-04	-4.855406e-01
1.091370e+00	6.401492e-05	-4.763555e-01
1.037492e+00	1.204613e-04	-4.632470e-01
9.871566e-01	-9.688037e-05	-4.517938e-01
9.370228e-01	-3.895455e-05	-4.364041e-01
8.896369e-01	-5.341585e-05	-4.222512e-01
8.402948e-01	-5.947206e-05	-4.037770e-01
7.882300e-01	-5.444452e-05	-3.829526e-01
7.396260e-01	-5.337751e-05	-3.609446e-01
8.156216e-01	-2.074300e-04	-1.436280e-01
8.334444e-01	-2.355368e-04	-1.482749e-01
8.440714e-01	-1.810567e-04	-1.539244e-01
8.485754e-01	-1.281908e-04	-1.589512e-01
8.458821e-01	-1.055019e-04	-1.648360e-01
8.389853e-01	-8.520434e-05	-1.692874e-01
8.265269e-01	-6.817890e-05	-1.747630e-01
8.104075e-01	-5.140688e-05	-1.784753e-01
7.873252e-01	4.748774e-06	-1.836280e-01
7.593796e-01	4.641029e-06	-1.868292e-01
7.228344e-01	6.277403e-06	-1.925607e-01
6.768160e-01	-1.831148e-05	-1.945127e-01
6.123398e-01	-3.770062e-05	-1.968070e-01
5.299813e-01	-2.715859e-05	-1.890515e-01
4.109069e-01	1.091786e-05	-1.704723e-01
2.508563e-01	-1.577785e-05	-1.200239e-01
1.334664e-02	-6.997831e-06	-7.980057e-03
-3.297863e-01	5.603361e-07	2.528481e-01
-7.674878e-01	6.702859e-06	1.024786e+00
-4.893362e-01	1.171831e-05	3.103889e+00
2.997811e+00	1.685613e-05	3.002095e+00
3.106385e+00	2.102501e-05	9.597783e-01
2.621536e+00	2.505338e-05	6.761655e-02
2.232543e+00	2.846845e-05	-2.002107e-01
1.960189e+00	6.717565e-05	-3.608550e-01
1.764934e+00	7.036306e-05	-4.226799e-01
1.606110e+00	4.466143e-05	-4.717292e-01
1.483357e+00	1.062190e-04	-4.872014e-01
1.376914e+00	1.040443e-04	-5.002219e-01
1.290213e+00	1.042390e-04	-4.974129e-01
1.213930e+00	1.094005e-04	-4.948547e-01
1.149093e+00	8.080841e-05	-4.847245e-01
1.089174e+00	1.017494e-04	-4.753971e-01
1.036966e+00	1.209265e-04	-4.630120e-01
9.856845e-01	1.449873e-04	-4.511201e-01
9.371885e-01	1.706888e-04	-4.364813e-01
8.883367e-01	2.006486e-04	-4.216340e-01
8.393174e-01	2.118955e-04	-4.033073e-01
7.886770e-01	2.904212e-04	-3.831697e-01
7.398655e-01	2.798712e-04	-3.610614e-01
8.200811e-01	1.464395e-03	-1.444133e-01
8.302473e-01	1.464755e-03	-1.477061e-01
8.416166e-01	1.466447e-03	-1.534768e-01
8.482844e-01	1.451097e-03	-1.588967e-01
8.449736e-01	1.412960e-03	-1.646590e-01
8.401409e-01	1.426825e-03	-1.695206e-01
8.268654e-01	1.288908e-03	-1.748346e-01
8.124397e-01	1.351555e-03	-1.789228e-01
7.889208e-01	1.110353e-03	-1.840002e-01
7.624854e-01	1.135276e-03	-1.875934e-01
7.256787e-01	7.862181e-04	-1.933184e-01
6.812171e-01	7.991449e-04	-1.957776e-01
6.167320e-01	3.679286e-04	-1.982187e-01
5.334274e-01	4.582135e-04	-1.902808e-01
4.227974e-01	-3.703944e-05	-1.754053e-01
2.596004e-01	-3.781093e-04	-1.242075e-01
1.602652e-02	-5.759056e-04	-9.582376e-03
-3.309626e-01	-6.016186e-04	2.537500e-01
-7.676322e-01	-6.532933e-04	1.024979e+00
-4.891020e-01	-7.475098e-04	3.102404e+00
2.995696e+00	-8.348379e-04	2.999977e+00
3.103560e+00	-8.906511e-04	9.589056e-01
2.618242e+00	-9.885037e-04	6.753159e-02
2.235316e+00	-1.104378e-03	-2.004595e-01
1.967827e+00	-1.044327e-03	-3.622611e-01
1.775678e+00	-8.344477e-04	-4.252529e-01
1.610645e+00	-4.912208e-04	-4.730613e-01
1.487765e+00	-6.610366e-04	-4.886490e-01
1.380230e+00	-3.566913e-04	-5.014265e-01
1.292854e+00	-4.214789e-04	-4.984309e-01
1.216724e+00	-1.432057e-04	-4.959936e-01
1.150918e+00	-2.448790e-04	-4.854943e-01
1.091905e+00	-2.952558e-05	-4.765892e-01
1.038109e+00	-1.270748e-04	-4.635226e-01
9.879501e-01	-1.573399e-05	-4.521569e-01
9.380484e-01	-4.789939e-05	-4.368818e-01
8.906307e-01	-2.121513e-05	-4.227228e-01
8.426368e-01	-1.206230e-05	-4.049024e-01
7.927545e-01	-1.632307e-05	-3.851507e-01
7.380104e-01	-1.731205e-05	-3.601561e-01
8.155612e-01	1.523130e-03	-1.436173e-01
8.333175e-01	1.548392e-03	-1.482523e-01
8.446328e-01	1.485250e-03	-1.540268e-01
8.499742e-01	1.448405e-03	-1.592132e-01
8.462732e-01	1.312365e-03	-1.649123e-01
8.412951e-01	1.267034e-03	-1.697535e-01
8.275349e-01	1.208108e-03	-1.749761e-01
8.130785e-01	1.133185e-03	-1.790635e-01
7.901713e-01	1.087279e-03	-1.842918e-01
7.636580e-01	9.895706e-04	-1.878818e-01
7.272576e-01	8.839071e-04	-1.937390e-01
6.822773e-01	7.981466e-04	-1.960823e-01
6.173127e-01	7.035500e-04	-1.984053e-01
5.355860e-01	5.414572e-04	-1.910508e-01
4.246962e-01	3.946799e-04	-1.761930e-01
2.610297e-01	2.762186e-04	-1.248914e-01
1.855215e-02	1.166189e-04	-1.109247e-02
-3.279070e-01	-4.455499e-05	2.514072e-01
-7.637011e-01	-2.113492e-04	1.019730e+00
-4.873351e-01	-3.761957e-04	3.091196e+00
2.990975e+00	-5.654338e-04	2.995249e+00
3.099246e+00	-7.263539e-04	9.575725e-01
2.614532e+00	-8.849165e-04	6.743590e-02
2.231665e+00	-1.032993e-03	-2.001321e-01
1.965883e+00	-1.209722e-03	-3.619033e-01
1.774570e+00	-1.340449e-03	-4.249877e-01
1.608363e+00	-1.462989e-03	-4.723909e-01
1.485435e+00	-1.608601e-03	-4.878837e-01
1.379943e+00	-1.709676e-03	-5.013222e-01
1.292935e+00	-1.792246e-03	-4.984620e-01
1.216164e+00	-1.865635e-03	-4.957653e-01
1.150466e+00	-1.965228e-03	-4.853034e-01
1.090875e+00	-2.014078e-03	-4.761395e-01
1.037018e+00	-2.050291e-03	-4.630356e-01
9.871013e-01	-2.091816e-03	-4.517685e-01
9.369859e-01	-2.135720e-03	-4.363869e-01
8.892046e-01	-2.080992e-03	-4.220460e-01
8.395440e-01	-2.124524e-03	-4.034162e-01
7.883825e-01	-2.201421e-03	-3.830267e-01
7.397140e-01	-2.189806e-03	-3.609875e-01
8.158415e-01	2.166905e-03	-1.436667e-01
8.336535e-01	2.162430e-03	-1.483121e-01
8.447712e-01	2.155458e-03	-1.540521e-01
8.528863e-01	2.055598e-03	-1.597587e-01
8.484495e-01	2.022295e-03	-1.653364e-01
8.419524e-01	1.984076e-03	-1.698861e-01
8.289356e-01	1.902595e-03	-1.752723e-01
8.141425e-01	1.805218e-03	-1.792978e-01
7.908694e-01	1.677843e-03	-1.844547e-01
7.651551e-01	1.559515e-03	-1.882502e-01
7.281830e-01	1.391045e-03	-1.939855e-01
6.836207e-01	1.286865e-03	-1.964684e-01
6.202716e-01	1.063359e-03	-1.993563e-01
5.380343e-01	8.519885e-04	-1.919242e-01