# vtk DataFile Version 2.0
OUTPUT by 3D-VPM
ASCII
DATASET UNSTRUCTURED_GRID
POINTS 820 double
9.510565e-01	0.000000e+00	-3.090170e-01
9.442611e-01	0.000000e+00	-3.078203e-01
9.267277e-01	0.000000e+00	-3.047010e-01
8.963175e-01	0.000000e+00	-2.991555e-01
8.562911e-01	0.000000e+00	-2.916579e-01
8.054250e-01	0.000000e+00	-2.817457e-01
7.470317e-01	0.000000e+00	-2.699633e-01
6.809074e-01	0.000000e+00	-2.559818e-01
6.100852e-01	0.000000e+00	-2.403847e-01
5.354138e-01	0.000000e+00	-2.229691e-01
4.593635e-01	0.000000e+00	-2.042585e-01
3.837764e-01	0.000000e+00	-1.841224e-01
3.103069e-01	0.000000e+00	-1.630077e-01
2.415927e-01	0.000000e+00	-1.409228e-01
1.782654e-01	0.000000e+00	-1.183331e-01
1.234349e-01	0.000000e+00	-9.558566e-02
7.662509e-02	0.000000e+00	-7.318920e-02
4.106998e-02	0.000000e+00	-5.193053e-02
1.528206e-02	0.000000e+00	-3.215886e-02
2.347037e-03	0.000000e+00	-1.488740e-02
0.000000e+00	0.000000e+00	0.000000e+00
1.064939e-02	0.000000e+00	1.066461e-02
3.126595e-02	0.000000e+00	1.703450e-02
6.375031e-02	0.000000e+00	1.787236e-02
1.050105e-01	0.000000e+00	1.417221e-02
1.560448e-01	0.000000e+00	4.777214e-03
2.137742e-01	0.000000e+00	-9.048270e-03
2.782849e-01	0.000000e+00	-2.799567e-02
3.468570e-01	0.000000e+00	-5.051783e-02
4.187060e-01	0.000000e+00	-7.662000e-02
4.916930e-01	0.000000e+00	-1.047585e-01
5.642168e-01	0.000000e+00	-1.343226e-01
6.348639e-01	0.000000e+00	-1.641238e-01
7.013280e-01	0.000000e+00	-1.931337e-01
7.630418e-01	0.000000e+00	-2.206893e-01
8.172084e-01	0.000000e+00	-2.454799e-01
8.641863e-01	0.000000e+00	-2.673591e-01
9.009752e-01	0.000000e+00	-2.848204e-01
9.288372e-01	0.000000e+00	-2.982085e-01
9.448555e-01	0.000000e+00	-3.059908e-01
9.510565e-01	0.000000e+00	-3.090170e-01
9.510565e-01	1.052632e+00	-3.090170e-01
9.442611e-01	1.052632e+00	-3.078203e-01
9.267277e-01	1.052632e+00	-3.047010e-01
8.963175e-01	1.052632e+00	-2.991555e-01
8.562911e-01	1.052632e+00	-2.916579e-01
8.054250e-01	1.052632e+00	-2.817457e-01
7.470317e-01	1.052632e+00	-2.699633e-01
6.809074e-01	1.052632e+00	-2.559818e-01
6.100852e-01	1.052632e+00	-2.403847e-01
5.354138e-01	1.052632e+00	-2.229691e-01
4.593635e-01	1.052632e+00	-2.042585e-01
3.837764e-01	1.052632e+00	-1.841224e-01
3.103069e-01	1.052632e+00	-1.630077e-01
2.415927e-01	1.052632e+00	-1.409228e-01
1.782654e-01	1.052632e+00	-1.183331e-01
1.234349e-01	1.052632e+00	-9.558566e-02
7.662509e-02	1.052632e+00	-7.318920e-02
4.106998e-02	1.052632e+00	-5.193053e-02
1.528206e-02	1.052632e+00	-3.215886e-02
2.347037e-03	1.052632e+00	-1.488740e-02
0.000000e+00	1.052632e+00	0.000000e+00
1.064939e-02	1.052632e+00	1.066461e-02
3.126595e-02	1.052632e+00	1.703450e-02
6.375031e-02	1.052632e+00	1.787236e-02
1.050105e-01	1.052632e+00	1.417221e-02
1.560448e-01	1.052632e+00	4.777214e-03
2.137742e-01	1.052632e+00	-9.048270e-03
2.782849e-01	1.052632e+00	-2.799567e-02
3.468570e-01	1.052632e+00	-5.051783e-02
4.187060e-01	1.052632e+00	-7.662000e-02
4.916930e-01	1.052632e+00	-1.047585e-01
5.642168e-01	1.052632e+00	-1.343226e-01
6.348639e-01	1.052632e+00	-1.641238e-01
7.013280e-01	1.052632e+00	-1.931337e-01
7.630418e-01	1.052632e+00	-2.206893e-01
8.172084e-01	1.052632e+00	-2.454799e-01
8.641863e-01	1.052632e+00	-2.673591e-01
9.009752e-01	1.052632e+00	-2.848204e-01
9.288372e-01	1.052632e+00	-2.982085e-01
9.448555e-01	1.052632e+00	-3.059908e-01
9.510565e-01	1.052632e+00	-3.090170e-01
9.510565e-01	2.105263e+00	-3.090170e-01
9.442611e-01	2.105263e+00	-3.078203e-01
9.267277e-01	2.105263e+00	-3.047010e-01
8.963175e-01	2.105263e+00	-2.991555e-01
8.562911e-01	2.105263e+00	-2.916579e-01
8.054250e-01	2.105263e+00	-2.817457e-01
7.470317e-01	2.105263e+00	-2.699633e-01
6.809074e-01	2.105263e+00	-2.559818e-01
6.100852e-01	2.105263e+00	-2.403847e-01
5.354138e-01	2.105263e+00	-2.229691e-01
4.593635e-01	2.105263e+00	-2.042585e-01
3.837764e-01	2.105263e+00	-1.841224e-01
3.103069e-01	2.105263e+00	-1.630077e-01
2.415927e-01	2.105263e+00	-1.409228e-01
1.782654e-01	2.105263e+00	-1.183331e-01
1.234349e-01	2.105263e+00	-9.558566e-02
7.662509e-02	2.105263e+00	-7.318920e-02
4.106998e-02	2.105263e+00	-5.193053e-02
1.528206e-02	2.105263e+00	-3.215886e-02
2.347037e-03	2.105263e+00	-1.488740e-02
0.000000e+00	2.105263e+00	0.000000e+00
1.064939e-02	2.105263e+00	1.066461e-02
3.126595e-02	2.105263e+00	1.703450e-02
6.375031e-02	2.105263e+00	1.787236e-02
1.050105e-01	2.105263e+00	1.417221e-02
1.560448e-01	2.105263e+00	4.777214e-03
2.137742e-01	2.105263e+00	-9.048270e-03
2.782849e-01	2.105263e+00	-2.799567e-02
3.468570e-01	2.105263e+00	-5.051783e-02
4.187060e-01	2.105263e+00	-7.662000e-02
4.916930e-01	2.105263e+00	-1.047585e-01
5.642168e-01	2.105263e+00	-1.343226e-01
6.348639e-01	2.105263e+00	-1.641238e-01
7.013280e-01	2.105263e+00	-1.931337e-01
7.630418e-01	2.105263e+00	-2.206893e-01
8.172084e-01	2.105263e+00	-2.454799e-01
8.641863e-01	2.105263e+00	-2.673591e-01
9.009752e-01	2.105263e+00	-2.848204e-01
9.288372e-01	2.105263e+00	-2.982085e-01
9.448555e-01	2.105263e+00	-3.059908e-01
9.510565e-01	2.105263e+00	-3.090170e-01
9.510565e-01	3.157895e+00	-3.090170e-01
9.442611e-01	3.157895e+00	-3.078203e-01
9.267277e-01	3.157895e+00	-3.047010e-01
8.963175e-01	3.157895e+00	-2.991555e-01
8.562911e-01	3.157895e+00	-2.916579e-01
8.054250e-01	3.157895e+00	-2.817457e-01
7.470317e-01	3.157895e+00	-2.699633e-01
6.809074e-01	3.157895e+00	-2.559818e-01
6.100852e-01	3.157895e+00	-2.403847e-01
5.354138e-01	3.157895e+00	-2.229691e-01
4.593635e-01	3.157895e+00	-2.042585e-01
3.837764e-01	3.157895e+00	-1.841224e-01
3.103069e-01	3.157895e+00	-1.630077e-01
2.415927e-01	3.157895e+00	-1.409228e-01
1.782654e-01	3.157895e+00	-1.183331e-01
1.234349e-01	3.157895e+00	-9.558566e-02
7.662509e-02	3.157895e+00	-7.318920e-02
4.106998e-02	3.157895e+00	-5.193053e-02
1.528206e-02	3.157895e+00	-3.215886e-02
2.347037e-03	3.157895e+00	-1.488740e-02
0.000000e+00	3.157895e+00	0.000000e+00
1.064939e-02	3.157895e+00	1.066461e-02
3.126595e-02	3.157895e+00	1.703450e-02
6.375031e-02	3.157895e+00	1.787236e-02
1.050105e-01	3.157895e+00	1.417221e-02
1.560448e-01	3.157895e+00	4.777214e-03
2.137742e-01	3.157895e+00	-9.048270e-03
2.782849e-01	3.157895e+00	-2.799567e-02
3.468570e-01	3.157895e+00	-5.051783e-02
4.187060e-01	3.157895e+00	-7.662000e-02
4.916930e-01	3.157895e+00	-1.047585e-01
5.642168e-01	3.157895e+00	-1.343226e-01
6.348639e-01	3.157895e+00	-1.641238e-01
7.013280e-01	3.157895e+00	-1.931337e-01
7.630418e-01	3.157895e+00	-2.206893e-01
8.172084e-01	3.157895e+00	-2.454799e-01
8.641863e-01	3.157895e+00	-2.673591e-01
9.009752e-01	3.157895e+00	-2.848204e-01
9.288372e-01	3.157895e+00	-2.982085e-01
9.448555e-01	3.157895e+00	-3.059908e-01
9.510565e-01	3.157895e+00	-3.090170e-01
9.510565e-01	4.210526e+00	-3.090170e-01
9.442611e-01	4.210526e+00	-3.078203e-01
9.267277e-01	4.210526e+00	-3.047010e-01
8.963175e-01	4.210526e+00	-2.991555e-01
8.562911e-01	4.210526e+00	-2.916579e-01
8.054250e-01	4.210526e+00	-2.817457e-01
7.470317e-01	4.210526e+00	-2.699633e-01
6.809074e-01	4.210526e+00	-2.559818e-01
6.100852e-01	4.210526e+00	-2.403847e-01
5.354138e-01	4.210526e+00	-2.229691e-01
4.593635e-01	4.210526e+00	-2.042585e-01
3.837764e-01	4.210526e+00	-1.841224e-01
3.103069e-01	4.210526e+00	-1.630077e-01
2.415927e-01	4.210526e+00	-1.409228e-01
1.782654e-01	4.210526e+00	-1.183331e-01
1.234349e-01	4.210526e+00	-9.558566e-02
7.662509e-02	4.210526e+00	-7.318920e-02
4.106998e-02	4.210526e+00	-5.193053e-02
1.528206e-02	4.210526e+00	-3.215886e-02
2.347037e-03	4.210526e+00	-1.488740e-02
0.000000e+00	4.210526e+00	0.000000e+00
1.064939e-02	4.210526e+00	1.066461e-02
3.126595e-02	4.210526e+00	1.703450e-02
6.375031e-02	4.210526e+00	1.787236e-02
1.050105e-01	4.210526e+00	1.417221e-02
1.560448e-01	4.210526e+00	4.777214e-03
2.137742e-01	4.210526e+00	-9.048270e-03
2.782849e-01	4.210526e+00	-2.799567e-02
3.468570e-01	4.210526e+00	-5.051783e-02
4.187060e-01	4.210526e+00	-7.662000e-02
4.916930e-01	4.210526e+00	-1.047585e-01
5.642168e-01	4.210526e+00	-1.343226e-01
6.348639e-01	4.210526e+00	-1.641238e-01
7.013280e-01	4.210526e+00	-1.931337e-01
7.630418e-01	4.210526e+00	-2.206893e-01
8.172084e-01	4.210526e+00	-2.454799e-01
8.641863e-01	4.210526e+00	-2.673591e-01
9.009752e-01	4.210526e+00	-2.848204e-01
9.288372e-01	4.210526e+00	-2.982085e-01
9.448555e-01	4.210526e+00	-3.059908e-01
9.510565e-01	4.210526e+00	-3.090170e-01
9.510565e-01	5.263158e+00	-3.090170e-01
9.442611e-01	5.263158e+00	-3.078203e-01
9.267277e-01	5.263158e+00	-3.047010e-01
8.963175e-01	5.263158e+00	-2.991555e-01
8.562911e-01	5.263158e+00	-2.916579e-01
8.054250e-01	5.263158e+00	-2.817457e-01
7.470317e-01	5.263158e+00	-2.699633e-01
6.809074e-01	5.263158e+00	-2.559818e-01
6.100852e-01	5.263158e+00	-2.403847e-01
5.354138e-01	5.263158e+00	-2.229691e-01
4.593635e-01	5.263158e+00	-2.042585e-01
3.837764e-01	5.263158e+00	-1.841224e-01
3.103069e-01	5.263158e+00	-1.630077e-01
2.415927e-01	5.263158e+00	-1.409228e-01
1.782654e-01	5.263158e+00	-1.183331e-01
1.234349e-01	5.263158e+00	-9.558566e-02
7.662509e-02	5.263158e+00	-7.318920e-02
4.106998e-02	5.263158e+00	-5.193053e-02
1.528206e-02	5.263158e+00	-3.215886e-02
2.347037e-03	5.263158e+00	-1.488740e-02
0.000000e+00	5.263158e+00	0.000000e+00
1.064939e-02	5.263158e+00	1.066461e-02
3.126595e-02	5.263158e+00	1.703450e-02
6.375031e-02	5.263158e+00	1.787236e-02
1.050105e-01	5.263158e+00	1.417221e-02
1.560448e-01	5.263158e+00	4.777214e-03
2.137742e-01	5.263158e+00	-9.048270e-03
2.782849e-01	5.263158e+00	-2.799567e-02
3.468570e-01	5.263158e+00	-5.051783e-02
4.187060e-01	5.263158e+00	-7.662000e-02
4.916930e-01	5.263158e+00	-1.047585e-01
5.642168e-01	5.263158e+00	-1.343226e-01
6.348639e-01	5.263158e+00	-1.641238e-01
7.013280e-01	5.263158e+00	-1.931337e-01
7.630418e-01	5.263158e+00	-2.206893e-01
8.172084e-01	5.263158e+00	-2.454799e-01
8.641863e-01	5.263158e+00	-2.673591e-01
9.009752e-01	5.263158e+00	-2.848204e-01
9.288372e-01	5.263158e+00	-2.982085e-01
9.448555e-01	5.263158e+00	-3.059908e-01
9.510565e-01	5.263158e+00	-3.090170e-01
9.510565e-01	6.315789e+00	-3.090170e-01
9.442611e-01	6.315789e+00	-3.078203e-01
[...]
CELL_DATA 760
VECTORS V double
8.414308e-01	-6.902478e-02	-1.481729e-01
8.655537e-01	-6.885120e-02	-1.539873e-01
8.835710e-01	-6.840147e-02	-1.611276e-01
8.953396e-01	-6.760712e-02	-1.677109e-01
8.978076e-01	-6.644627e-02	-1.749547e-01
8.991234e-01	-6.490128e-02	-1.814219e-01
8.920890e-01	-6.296183e-02	-1.886256e-01
8.847821e-01	-6.060389e-02	-1.948547e-01
8.704515e-01	-5.779899e-02	-2.030156e-01
8.548154e-01	-5.451460e-02	-2.103092e-01
8.295152e-01	-5.072524e-02	-2.209801e-01
7.985987e-01	-4.641673e-02	-2.295123e-01
7.512556e-01	-4.162203e-02	-2.414548e-01
6.892395e-01	-3.639229e-02	-2.458611e-01
6.025993e-01	-3.076543e-02	-2.499994e-01
4.719365e-01	-2.486422e-02	-2.258012e-01
2.702439e-01	-1.869664e-02	-1.615809e-01
-1.730370e-02	-1.242867e-02	1.326680e-02
-4.216795e-01	-5.861792e-03	5.630467e-01
-3.426424e-01	7.179352e-04	2.173401e+00
2.326823e+00	8.430164e-03	2.330148e+00
2.541538e+00	1.519419e-02	7.852578e-01
2.210446e+00	2.213969e-02	5.701341e-02
1.925451e+00	2.898641e-02	-1.726713e-01
1.720129e+00	3.597530e-02	-3.166620e-01
1.570363e+00	4.294130e-02	-3.760826e-01
1.435522e+00	4.987870e-02	-4.216261e-01
1.336714e+00	5.660902e-02	-4.390371e-01
1.250623e+00	6.301407e-02	-4.543414e-01
1.181687e+00	6.889601e-02	-4.555731e-01
1.121862e+00	7.413936e-02	-4.573235e-01
1.071608e+00	7.860703e-02	-4.520388e-01
1.027471e+00	8.223687e-02	-4.484655e-01
9.871991e-01	8.502117e-02	-4.407910e-01
9.499796e-01	8.701133e-02	-4.347789e-01
9.115291e-01	8.830527e-02	-4.245308e-01
8.743632e-01	8.903129e-02	-4.150018e-01
8.341899e-01	8.933845e-02	-4.008434e-01
7.910622e-01	8.938233e-02	-3.843286e-01
7.483116e-01	8.933664e-02	-3.651832e-01
8.268656e-01	-4.833861e-02	-1.456080e-01
8.473560e-01	-4.821432e-02	-1.507499e-01
8.618215e-01	-4.789582e-02	-1.571613e-01
8.705110e-01	-4.733206e-02	-1.630601e-01
8.702660e-01	-4.650040e-02	-1.695877e-01
8.688859e-01	-4.538202e-02	-1.753207e-01
8.588911e-01	-4.396624e-02	-1.816062e-01
8.480263e-01	-4.223807e-02	-1.867600e-01
8.293613e-01	-4.018271e-02	-1.934321e-01
8.083790e-01	-3.778501e-02	-1.988845e-01
7.765982e-01	-3.501526e-02	-2.068832e-01
7.379462e-01	-3.192380e-02	-2.120812e-01
6.816505e-01	-2.848810e-02	-2.190836e-01
6.086098e-01	-2.476320e-02	-2.170994e-01
5.088231e-01	-2.077504e-02	-2.110946e-01
3.608396e-01	-1.660665e-02	-1.726461e-01
1.374532e-01	-1.225979e-02	-8.218428e-02
-1.814003e-01	-7.847868e-03	1.390802e-01
-6.030861e-01	-3.231022e-03	8.052694e-01
-4.197986e-01	1.387866e-03	2.662808e+00
2.682292e+00	6.787329e-03	2.686125e+00
2.843932e+00	1.150277e-02	8.786882e-01
2.433150e+00	1.631629e-02	6.275756e-02
2.097265e+00	2.102500e-02	-1.880792e-01
1.860434e+00	2.578760e-02	-3.424911e-01
1.689608e+00	3.048444e-02	-4.046404e-01
1.539034e+00	3.510970e-02	-4.520284e-01
1.427786e+00	3.954525e-02	-4.689491e-01
1.330700e+00	4.371924e-02	-4.834327e-01
1.251890e+00	4.752404e-02	-4.826380e-01
1.182658e+00	5.084932e-02	-4.821065e-01
1.123329e+00	5.366631e-02	-4.738564e-01
1.070386e+00	5.592533e-02	-4.671968e-01
1.021737e+00	5.763081e-02	-4.562123e-01
9.765872e-01	5.882399e-02	-4.469565e-01
9.307588e-01	5.957571e-02	-4.334867e-01
8.867491e-01	5.997436e-02	-4.208805e-01
8.402935e-01	6.012071e-02	-4.037764e-01
7.917027e-01	6.011706e-02	-3.846397e-01
7.448129e-01	6.007376e-02	-3.634758e-01
8.205711e-01	-2.041089e-02	-1.444996e-01
8.397320e-01	-2.035906e-02	-1.493935e-01
8.527177e-01	-2.022871e-02	-1.555012e-01
8.598794e-01	-1.999270e-02	-1.610686e-01
8.580919e-01	-1.963413e-02	-1.672154e-01
8.551290e-01	-1.913631e-02	-1.725448e-01
8.435096e-01	-1.848949e-02	-1.783539e-01
8.309103e-01	-1.768834e-02	-1.829906e-01
8.103557e-01	-1.670577e-02	-1.889994e-01
7.869707e-01	-1.558561e-02	-1.936174e-01
7.529087e-01	-1.431362e-02	-2.005724e-01
7.116198e-01	-1.290457e-02	-2.045151e-01
6.518062e-01	-1.134852e-02	-2.094916e-01
5.746593e-01	-9.681652e-03	-2.049888e-01
4.698841e-01	-7.914039e-03	-1.949400e-01
3.151503e-01	-6.078141e-03	-1.507857e-01
8.317198e-02	-4.170690e-03	-4.972914e-02
-2.481959e-01	-2.239601e-03	1.902925e-01
-6.766019e-01	-2.240254e-04	9.034312e-01
-4.508376e-01	1.784125e-03	2.859690e+00
2.823385e+00	4.113086e-03	2.827419e+00
2.961650e+00	6.120937e-03	9.150595e-01
2.517769e+00	8.134288e-03	6.494010e-02
2.160559e+00	1.005800e-02	-1.937554e-01
1.910254e+00	1.194834e-02	-3.516625e-01
1.730211e+00	1.375173e-02	-4.143641e-01
1.572727e+00	1.546358e-02	-4.619243e-01
1.456078e+00	1.704328e-02	-4.782415e-01
1.354615e+00	1.847332e-02	-4.921205e-01
1.271666e+00	1.973925e-02	-4.902622e-01
1.198770e+00	2.080447e-02	-4.886748e-01
1.136460e+00	2.166473e-02	-4.793954e-01
1.080535e+00	2.230176e-02	-4.716263e-01
1.029157e+00	2.277334e-02	-4.595254e-01
9.815253e-01	2.307543e-02	-4.492165e-01
9.334826e-01	2.324009e-02	-4.347553e-01
8.875214e-01	2.330258e-02	-4.212471e-01
8.394015e-01	2.330036e-02	-4.033477e-01
7.894786e-01	2.326991e-02	-3.835592e-01
7.416795e-01	2.324312e-02	-3.619467e-01
8.181677e-01	-1.022181e-02	-1.440763e-01
8.367552e-01	-1.020077e-02	-1.488639e-01
8.489857e-01	-1.014447e-02	-1.548206e-01
8.553750e-01	-1.003865e-02	-1.602249e-01
8.527994e-01	-9.873444e-03	-1.661840e-01
8.489976e-01	-9.625551e-03	-1.713077e-01
8.365097e-01	-9.312843e-03	-1.768738e-01
8.226168e-01	-8.915354e-03	-1.811641e-01
8.009903e-01	-8.442000e-03	-1.868152e-01
7.769732e-01	-7.878074e-03	-1.911578e-01
7.415560e-01	-7.238619e-03	-1.975480e-01
6.984317e-01	-6.501037e-03	-2.007250e-01
6.368808e-01	-5.695496e-03	-2.046945e-01
5.575775e-01	-4.819308e-03	-1.988955e-01
4.501785e-01	-3.884503e-03	-1.867648e-01
2.919043e-01	-2.908515e-03	-1.396635e-01
5.545666e-02	-1.894656e-03	-3.315795e-02
-2.823491e-01	-8.610358e-04	2.164779e-01
-7.141950e-01	2.190919e-04	9.536272e-01
-4.666710e-01	1.279218e-03	2.960123e+00
2.894952e+00	2.537831e-03	2.899089e+00
3.020895e+00	3.601492e-03	9.333644e-01
2.559976e+00	4.660568e-03	6.602873e-02
2.191783e+00	5.663619e-03	-1.965554e-01
1.934566e+00	6.643189e-03	-3.561380e-01
1.749814e+00	7.563275e-03	-4.190588e-01
1.588830e+00	8.427687e-03	-4.666541e-01
1.469487e+00	9.224734e-03	-4.826458e-01
1.365828e+00	9.933481e-03	-4.961942e-01
1.281304e+00	1.055259e-02	-4.939781e-01
1.206769e+00	1.109112e-02	-4.919356e-01
1.142473e+00	1.152251e-02	-4.819319e-01
1.085229e+00	1.186065e-02	-4.736753e-01
1.032958e+00	1.209885e-02	-4.612228e-01
9.841909e-01	1.225897e-02	-4.504365e-01
9.351495e-01	1.233999e-02	-4.355316e-01
8.883110e-01	1.238396e-02	-4.216218e-01
8.394629e-01	1.239416e-02	-4.033772e-01
7.889798e-01	1.238733e-02	-3.833169e-01
7.407103e-01	1.237866e-02	-3.614737e-01
8.170393e-01	-5.656973e-03	-1.438776e-01
8.351996e-01	-5.645854e-03	-1.485872e-01
8.470200e-01	-5.614355e-03	-1.544621e-01
8.529689e-01	-5.554974e-03	-1.597742e-01
8.496379e-01	-5.458765e-03	-1.655679e-01
8.453978e-01	-5.318425e-03	-1.705813e-01
8.325252e-01	-5.146973e-03	-1.760313e-01
8.185105e-01	-4.927125e-03	-1.802598e-01
7.963544e-01	-4.662012e-03	-1.857339e-01
7.711719e-01	-4.326030e-03	-1.897305e-01
7.349125e-01	-3.934860e-03	-1.957782e-01
6.910530e-01	-3.498349e-03	-1.986044e-01
6.284509e-01	-3.026556e-03	-2.019851e-01
5.477541e-01	-2.605926e-03	-1.953913e-01
4.387925e-01	-2.062358e-03	-1.820411e-01
2.785061e-01	-1.454617e-03	-1.332531e-01
3.945277e-02	-8.449844e-04	-2.358910e-02
-3.022567e-01	-2.251970e-04	2.317411e-01
-7.357923e-01	4.228015e-04	9.824651e-01
-4.758451e-01	1.067656e-03	3.018314e+00
2.937059e+00	1.811114e-03	2.941256e+00
3.054999e+00	2.446079e-03	9.439015e-01
2.584149e+00	3.074702e-03	6.665224e-02
2.209674e+00	3.665704e-03	-1.981599e-01
1.948353e+00	4.235557e-03	-3.586762e-01
1.760763e+00	4.759143e-03	-4.216811e-01
1.597862e+00	5.245155e-03	-4.693067e-01
1.476935e+00	5.789254e-03	-4.850921e-01
1.371914e+00	6.193845e-03	-4.984052e-01
1.286275e+00	6.532558e-03	-4.958943e-01
1.210916e+00	6.813739e-03	-4.936261e-01
1.146294e+00	7.043439e-03	-4.835435e-01
1.088257e+00	7.241099e-03	-4.749968e-01
1.034928e+00	7.383638e-03	-4.621022e-01
9.854621e-01	7.481841e-03	-4.510183e-01
9.358657e-01	7.530354e-03	-4.358652e-01
8.888545e-01	7.553701e-03	-4.218798e-01
8.396028e-01	7.560121e-03	-4.034444e-01
7.887844e-01	7.556277e-03	-3.832219e-01
7.403520e-01	7.552017e-03	-3.612989e-01
8.163017e-01	-3.305410e-03	-1.437477e-01
8.342417e-01	-3.298615e-03	-1.484167e-01
8.457910e-01	-3.280641e-03	-1.542380e-01
8.513992e-01	-3.246316e-03	-1.594801e-01
8.479644e-01	-3.213735e-03	-1.652418e-01
8.435910e-01	-3.126999e-03	-1.702167e-01
8.304564e-01	-3.004451e-03	-1.755939e-01
8.157102e-01	-2.856495e-03	-1.796431e-01
7.928719e-01	-2.669206e-03	-1.849217e-01
7.674261e-01	-2.434524e-03	-1.888089e-01
7.307381e-01	-2.193207e-03	-1.946662e-01
6.863246e-01	-1.965857e-03	-1.972455e-01
6.244477e-01	-1.650522e-03	-2.006985e-01
5.433187e-01	-1.431306e-03	-1.938092e-01
4.314863e-01	-1.065980e-03	-1.790100e-01
2.694510e-01	-6.875890e-04	-1.289206e-01
2.920096e-02	-2.912742e-04	-1.745947e-02
-3.147725e-01	1.041491e-04	2.413370e-01
-7.498993e-01	5.163576e-04	1.001301e+00
-4.816828e-01	9.406892e-04	3.055343e+00
2.962489e+00	1.395869e-03	2.966722e+00
3.076430e+00	1.798610e-03	9.505230e-01
2.599212e+00	2.195479e-03	6.704076e-02
2.220519e+00	2.566332e-03	-1.991324e-01
1.956474e+00	2.917177e-03	-3.601712e-01
1.767092e+00	3.244659e-03	-4.231968e-01
1.604487e+00	3.659318e-03	-4.712527e-01
1.482591e+00	3.910336e-03	-4.869496e-01
1.375507e+00	4.162234e-03	-4.997107e-01
1.289126e+00	4.382915e-03	-4.969936e-01
1.213167e+00	4.550321e-03	-4.945435e-01
1.147930e+00	4.659020e-03	-4.842336e-01
1.089786e+00	4.757274e-03	-4.756642e-01
1.036444e+00	4.837123e-03	-4.627793e-01
9.865879e-01	4.890973e-03	-4.515335e-01
9.365262e-01	4.964327e-03	-4.361728e-01
8.890388e-01	4.967049e-03	-4.219673e-01
8.396008e-01	4.965510e-03	-4.034435e-01
7.886086e-01	4.961773e-03	-3.831365e-01
7.400579e-01	4.958525e-03	-3.611553e-01
8.158988e-01	-2.029758e-03	-1.436768e-01
8.337499e-01	-2.025709e-03	-1.483293e-01
8.451796e-01	-2.015480e-03	-1.541265e-01
8.513148e-01	-1.996803e-03	-1.594643e-01
8.471398e-01	-1.966581e-03	-1.650811e-01
8.417517e-01	-2.010406e-03	-1.698456e-01
8.283465e-01	-1.888062e-03	-1.751477e-01
8.137325e-01	-1.783063e-03	-1.792075e-01
7.906559e-01	-1.683784e-03	-1.844049e-01
7.649242e-01	-1.542338e-03	-1.881934e-01
7.287839e-01	-1.385944e-03	-1.941456e-01
6.838372e-01	-1.215235e-03	-1.965306e-01
6.209746e-01	-1.015354e-03	-1.995822e-01
5.391612e-01	-7.359588e-04	-1.923262e-01
4.266879e-01	-5.010705e-04	-1.770193e-01
2.642446e-01	-2.942246e-04	-1.264296e-01
2.252582e-02	-5.050705e-05	-1.346835e-02
-3.229166e-01	1.718161e-04	2.475811e-01
-7.588149e-01	4.314462e-04	1.013206e+00
-4.854160e-01	6.881934e-04	3.079023e+00
2.979225e+00	9.830887e-04	2.983482e+00
3.090125e+00	1.233126e-03	9.547544e-01
2.608836e+00	1.473614e-03	6.728897e-02
2.227519e+00	1.731632e-03	-1.997603e-01
1.961954e+00	1.951257e-03	-3.611799e-01
1.773592e+00	2.164452e-03	-4.247534e-01
1.607832e+00	2.362136e-03	-4.722351e-01
1.483915e+00	2.463093e-03	-4.873846e-01
1.378071e+00	2.607387e-03	-5.006419e-01
1.291170e+00	2.743558e-03	-4.977816e-01
1.214376e+00	2.856250e-03	-4.950363e-01
1.148935e+00	2.946541e-03	-4.846576e-01
1.090638e+00	3.044904e-03	-4.760361e-01
1.036865e+00	3.110232e-03	-4.629670e-01
9.874742e-01	3.230888e-03	-4.519392e-01
9.373986e-01	3.222440e-03	-4.365791e-01
8.888939e-01	3.216539e-03	-4.218985e-01
8.394549e-01	3.213616e-03	-4.033734e-01
7.884515e-01	3.210377e-03	-3.830602e-01
7.398547e-01	3.208088e-03	-3.610561e-01
8.156222e-01	-1.104824e-03	-1.436281e-01
8.334104e-01	-1.101784e-03	-1.482689e-01
8.447775e-01	-1.092249e-03	-1.540532e-01
8.501498e-01	-1.099430e-03	-1.592461e-01
8.483752e-01	-1.050650e-03	-1.653219e-01
8.420492e-01	-1.033945e-03	-1.699056e-01
8.269733e-01	-9.988300e-04	-1.748574e-01
8.128120e-01	-9.750870e-04	-1.790048e-01
7.896172e-01	-9.861670e-04	-1.841626e-01
7.635161e-01	-9.093729e-04	-1.878469e-01
7.264625e-01	-8.091047e-04	-1.935272e-01
6.813888e-01	-6.882863e-04	-1.958269e-01
6.178181e-01	-5.767523e-04	-1.985677e-01
5.356342e-01	-3.425371e-04	-1.910680e-01
4.242591e-01	-2.523921e-04	-1.760117e-01
2.611997e-01	-1.242068e-04	-1.249727e-01
1.918539e-02	1.315239e-05	-1.147109e-02
-3.269888e-01	1.553013e-04	2.507032e-01
-7.641692e-01	3.048606e-04	1.020355e+00
-4.876497e-01	4.538937e-04	3.093191e+00
2.989171e+00	6.254196e-04	2.993442e+00
3.097924e+00	7.711362e-04	9.571642e-01
2.615421e+00	9.143752e-04	6.745882e-02
2.232257e+00	1.048134e-03	-2.001851e-01
1.965167e+00	1.175873e-03	-3.617715e-01
1.774124e+00	1.295853e-03	-4.248808e-01
1.608943e+00	1.323046e-03	-4.725614e-01
1.486013e+00	1.434757e-03	-4.880738e-01
1.379164e+00	1.541897e-03	-5.010392e-01
1.292266e+00	1.598390e-03	-4.982041e-01
1.215709e+00	1.661479e-03	-4.955797e-01
1.150333e+00	1.802465e-03	-4.852474e-01
1.091981e+00	1.818575e-03	-4.766223e-01
1.039075e+00	1.854831e-03	-4.639540e-01
9.885173e-01	1.858502e-03	-4.524165e-01
9.362555e-01	1.831619e-03	-4.360467e-01
8.888290e-01	1.840883e-03	-4.218677e-01
8.394151e-01	1.865916e-03	-4.033543e-01
7.883365e-01	1.863156e-03	-3.830043e-01
7.397074e-01	1.861729e-03	-3.609842e-01
8.153886e-01	-1.374844e-03	-1.435869e-01
8.330003e-01	-1.375038e-03	-1.481959e-01
8.452071e-01	-1.376223e-03	-1.541315e-01
8.501061e-01	-1.359684e-03	-1.592379e-01
8.458835e-01	-1.320408e-03	-1.648363e-01
8.408381e-01	-1.275832e-03	-1.696613e-01
8.274499e-01	-1.144094e-03	-1.749582e-01
8.135682e-01	-1.204034e-03	-1.791714e-01
7.897477e-01	-9.826276e-04	-1.841931e-01
7.625988e-01	-1.030889e-03	-1.876213e-01
7.258949e-01	-6.740078e-04	-1.933760e-01
6.807352e-01	-7.626541e-04	-1.956391e-01
6.162210e-01	-3.289380e-04	-1.980544e-01
5.342312e-01	-3.940073e-04	-1.905675e-01
4.231704e-01	6.602093e-05	-1.755600e-01
2.593612e-01	4.065123e-04	-1.240931e-01
1.656276e-02	6.020179e-04	-9.902998e-03
-3.303731e-01	6.501426e-04	2.532980e-01
-7.670599e-01	6.982454e-04	1.024215e+00
-4.888827e-01	7.600968e-04	3.101013e+00
2.994761e+00	8.419005e-04	2.999041e+00
3.102815e+00	9.207796e-04	9.586753e-01
2.617742e+00	1.017754e-03	6.751869e-02
2.233989e+00	1.100038e-03	-2.003404e-01
1.966922e+00	1.034774e-03	-3.620945e-01
1.776014e+00	8.517707e-04	-4.253335e-01
1.610000e+00	4.996459e-04	-4.728717e-01
1.486950e+00	6.321557e-04	-4.883814e-01
1.380192e+00	3.147100e-04	-5.014126e-01
1.292680e+00	4.443309e-04	-4.983638e-01
1.216925e+00	1.500691e-04	-4.960755e-01
1.150968e+00	3.021973e-04	-4.855153e-01
1.091327e+00	4.595707e-05	-4.763371e-01
1.037460e+00	1.075807e-04	-4.632330e-01
9.871356e-01	-1.013654e-04	-4.517842e-01
9.370096e-01	-4.955812e-05	-4.363980e-01
8.896300e-01	-6.789381e-05	-4.222479e-01
8.402937e-01	-7.503392e-05	-4.037765e-01
7.882361e-01	-7.029978e-05	-3.829555e-01
7.396362e-01	-6.927283e-05	-3.609495e-01
8.156549e-01	3.656500e-05	-1.436338e-01
8.334973e-01	1.894383e-05	-1.482843e-01
8.441555e-01	1.735923e-05	-1.539398e-01
8.486934e-01	3.875207e-05	-1.589733e-01
8.466805e-01	3.641003e-05	-1.649916e-01
8.389126e-01	3.531271e-05	-1.692728e-01
8.260120e-01	3.385376e-05	-1.746541e-01
8.103937e-01	3.469479e-05	-1.784722e-01
7.873532e-01	7.759312e-05	-1.836346e-01
7.594393e-01	6.624737e-05	-1.868439e-01
7.229204e-01	5.833761e-05	-1.925836e-01
6.769250e-01	5.757396e-05	-1.945441e-01
6.124698e-01	-2.183840e-06	-1.968488e-01
5.301350e-01	1.171804e-06	-1.891064e-01
4.110896e-01	3.272121e-05	-1.705481e-01
2.510764e-01	3.993081e-07	-1.201292e-01
1.361115e-02	3.922465e-06	-8.138210e-03
-3.294587e-01	6.639625e-06	2.525969e-01
-7.671266e-01	8.027412e-06	1.024304e+00
-4.891843e-01	8.436665e-06	3.102925e+00
2.997128e+00	8.199695e-06	3.001411e+00
3.105824e+00	7.543564e-06	9.596049e-01
2.621140e+00	6.377744e-06	6.760633e-02
2.232253e+00	4.287255e-06	-2.001848e-01
1.959965e+00	3.663138e-05	-3.608139e-01
1.764756e+00	3.267703e-05	-4.226374e-01
1.605969e+00	-1.591115e-06	-4.716880e-01
1.483247e+00	4.935533e-05	-4.871653e-01
1.376831e+00	3.563705e-05	-5.001914e-01
1.290155e+00	2.637668e-05	-4.973904e-01
1.213902e+00	2.079105e-05	-4.948433e-01
1.149105e+00	-2.199897e-05	-4.847293e-01
1.089254e+00	-1.832600e-05	-4.754323e-01
1.037149e+00	-1.917252e-05	-4.630939e-01
9.857309e-01	-1.806264e-05	-4.511413e-01
9.369969e-01	-1.806892e-05	-4.363921e-01
8.882156e-01	-1.692339e-05	-4.215766e-01
8.392731e-01	-3.930450e-05	-4.032860e-01
7.886615e-01	-3.818282e-05	-3.831622e-01
7.398646e-01	-2.065882e-05	-3.610610e-01
8.183458e-01	1.457058e-03	-1.441077e-01
8.337124e-01	1.457422e-03	-1.483226e-01
8.444039e-01	1.459260e-03	-1.539851e-01
8.497085e-01	1.444584e-03	-1.591634e-01
8.459503e-01	1.407867e-03	-1.648493e-01
8.408825e-01	1.453539e-03	-1.696702e-01
8.274577e-01	1.279122e-03	-1.749598e-01
8.129283e-01	1.337119e-03	-1.790304e-01
7.893365e-01	1.066175e-03	-1.840971e-01
7.628513e-01	1.118155e-03	-1.876834e-01
7.260089e-01	7.700239e-04	-1.934063e-01
6.815268e-01	7.843305e-04	-1.958666e-01
6.170334e-01	3.545995e-04	-1.983155e-01
5.337321e-01	4.463709e-04	-1.903895e-01
4.231158e-01	-4.724397e-05	-1.755374e-01
2.599508e-01	-3.866197e-04	-1.243752e-01
1.642736e-02	-5.825751e-04	-9.822041e-03
-3.304840e-01	-6.060459e-04	2.533830e-01
-7.671150e-01	-6.838644e-04	1.024289e+00
-4.888858e-01	-7.461020e-04	3.101032e+00
2.994713e+00	-8.305421e-04	2.998993e+00
3.102731e+00	-8.837820e-04	9.586491e-01
2.617632e+00	-9.802373e-04	6.751585e-02
2.234839e+00	-1.095275e-03	-2.004166e-01
1.967428e+00	-1.034237e-03	-3.621878e-01
1.775325e+00	-8.231818e-04	-4.251684e-01
1.610315e+00	-4.786828e-04	-4.729643e-01
1.487438e+00	-6.473427e-04	-4.885417e-01
1.379893e+00	-3.419602e-04	-5.013042e-01
1.292493e+00	-4.055811e-04	-4.982917e-01
1.216322e+00	-1.254997e-04	-4.958297e-01
1.150458e+00	-2.263581e-04	-4.853002e-01
1.091367e+00	-1.752145e-05	-4.763543e-01
1.037463e+00	-1.247581e-04	-4.632341e-01
9.871544e-01	-2.449752e-05	-4.517928e-01
9.370288e-01	-5.231204e-05	-4.364069e-01
8.892142e-01	-2.286988e-05	-4.220505e-01
8.395106e-01	-1.323646e-05	-4.034002e-01
7.888550e-01	-1.742565e-05	-3.832562e-01
7.423199e-01	-1.840164e-05	-3.622592e-01
8.155937e-01	1.196904e-03	-1.436231e-01
8.333604e-01	1.211648e-03	-1.482599e-01
8.446863e-01	1.204470e-03	-1.540366e-01
8.500379e-01	1.198862e-03	-1.592251e-01
8.463475e-01	1.087572e-03	-1.649267e-01
8.413810e-01	1.063426e-03	-1.697708e-01
8.276291e-01	9.902037e-04	-1.749961e-01
8.135642e-01	9.722159e-04	-1.791705e-01
7.902209e-01	9.471933e-04	-1.843034e-01
7.633521e-01	8.683875e-04	-1.878066e-01
7.273135e-01	7.797205e-04	-1.937539e-01
6.823482e-01	7.092978e-04	-1.961027e-01
6.174014e-01	6.288526e-04	-1.984338e-01
5.356933e-01	4.797995e-04	-1.910891e-01
4.248247e-01	3.452220e-04	-1.762463e-01
2.611849e-01	2.381453e-04	-1.249656e-01
1.873037e-02	8.965678e-05	-1.119903e-02
-3.270829e-01	-6.083465e-05	2.507754e-01
-7.631726e-01	-2.168330e-04	1.019025e+00
-4.876209e-01	-3.710749e-04	3.093009e+00
2.990560e+00	-5.479575e-04	2.994834e+00
3.098849e+00	-6.979716e-04	9.574499e-01
2.614206e+00	-8.451459e-04	6.742748e-02
2.231422e+00	-9.816796e-04	-2.001102e-01
1.965704e+00	-1.145986e-03	-3.618703e-01
1.774435e+00	-1.263729e-03	-4.249553e-01
1.608259e+00	-1.372230e-03	-4.723604e-01
1.485355e+00	-1.502711e-03	-4.878575e-01
1.379888e+00	-1.587127e-03	-5.013022e-01
1.292914e+00	-1.651410e-03	-4.984540e-01
1.216169e+00	-1.704470e-03	-4.957673e-01
1.150406e+00	-1.781075e-03	-4.852783e-01
1.090741e+00	-1.802865e-03	-4.760810e-01
1.036905e+00	-1.808833e-03	-4.629848e-01
9.870238e-01	-1.830811e-03	-4.517330e-01
9.369289e-01	-1.852275e-03	-4.363604e-01
8.891640e-01	-1.769955e-03	-4.220267e-01
8.395189e-01	-1.780418e-03	-4.034041e-01
7.883718e-01	-1.780186e-03	-3.830215e-01
7.397152e-01	-1.796717e-03	-3.609880e-01
8.158714e-01	1.719402e-03	-1.436720e-01
8.336921e-01	1.708508e-03	-1.483190e-01
8.448187e-01	1.584915e-03	-1.540607e-01
8.529421e-01	1.677787e-03	-1.597691e-01
8.485099e-01	1.705465e-03	-1.653481e-01
8.426157e-01	1.715151e-03	-1.700200e-01
8.288191e-01	1.674324e-03	-1.752477e-01
8.135422e-01	1.612227e-03	-1.791656e-01
7.907495e-01	1.542310e-03	-1.844267e-01
7.650500e-01	1.422047e-03	-1.882243e-01
7.280903e-01	1.275806e-03	-1.939608e-01
6.835367e-01	1.192017e-03	-1.964442e-01
6.201944e-01	9.865223e-04	-1.993315e-01
5.379629e-01	7.892222e-04	-1.918987e-01