# vtk DataFile Version 2.0
OUTPUT by 3D-VPM
ASCII
DATASET UNSTRUCTURED_GRID
POINTS 820 double
9.510565e-01	0.000000e+00	-3.090170e-01
9.442611e-01	0.000000e+00	-3.078203e-01
9.267277e-01	0.000000e+00	-3.047010e-01
8.963175e-01	0.000000e+00	-2.991555e-01
8.562911e-01	0.000000e+00	-2.916579e-01
8.054250e-01	0.000000e+00	-2.817457e-01
7.470317e-01	0.000000e+00	-2.699633e-01
6.809074e-01	0.000000e+00	-2.559818e-01
6.100852e-01	0.000000e+00	-2.403847e-01
5.354138e-01	0.000000e+00	-2.229691e-01
4.593635e-01	0.000000e+00	-2.042585e-01
3.837764e-01	0.000000e+00	-1.841224e-01
3.103069e-01	0.000000e+00	-1.630077e-01
2.415927e-01	0.000000e+00	-1.409228e-01
1.782654e-01	0.000000e+00	-1.183331e-01
1.234349e-01	0.000000e+00	-9.558566e-02
7.662509e-02	0.000000e+00	-7.318920e-02
4.106998e-02	0.000000e+00	-5.193053e-02
1.528206e-02	0.000000e+00	-3.215886e-02
2.347037e-03	0.000000e+00	-1.488740e-02
0.000000e+00	0.000000e+00	0.000000e+00
1.064939e-02	0.000000e+00	1.066461e-02
3.126595e-02	0.000000e+00	1.703450e-02
6.375031e-02	0.000000e+00	1.787236e-02
1.050105e-01	0.000000e+00	1.417221e-02
1.560448e-01	0.000000e+00	4.777214e-03
2.137742e-01	0.000000e+00	-9.048270e-03
2.782849e-01	0.000000e+00	-2.799567e-02
3.468570e-01	0.000000e+00	-5.051783e-02
4.187060e-01	0.000000e+00	-7.662000e-02
4.916930e-01	0.000000e+00	-1.047585e-01
5.642168e-01	0.000000e+00	-1.343226e-01
6.348639e-01	0.000000e+00	-1.641238e-01
7.013280e-01	0.000000e+00	-1.931337e-01
7.630418e-01	0.000000e+00	-2.206893e-01
8.172084e-01	0.000000e+00	-2.454799e-01
8.641863e-01	0.000000e+00	-2.673591e-01
9.009752e-01	0.000000e+00	-2.848204e-01
9.288372e-01	0.000000e+00	-2.982085e-01
9.448555e-01	0.000000e+00	-3.059908e-01
9.510565e-01	0.000000e+00	-3.090170e-01
9.510565e-01	1.052632e+00	-3.090170e-01
9.442611e-01	1.052632e+00	-3.078203e-01
9.267277e-01	1.052632e+00	-3.047010e-01
8.963175e-01	1.052632e+00	-2.991555e-01
8.562911e-01	1.052632e+00	-2.916579e-01
8.054250e-01	1.052632e+00	-2.817457e-01
7.470317e-01	1.052632e+00	-2.699633e-01
6.809074e-01	1.052632e+00	-2.559818e-01
6.100852e-01	1.052632e+00	-2.403847e-01
5.354138e-01	1.052632e+00	-2.229691e-01
4.593635e-01	1.052632e+00	-2.042585e-01
3.837764e-01	1.052632e+00	-1.841224e-01
3.103069e-01	1.052632e+00	-1.630077e-01
2.415927e-01	1.052632e+00	-1.409228e-01
1.782654e-01	1.052632e+00	-1.183331e-01
1.234349e-01	1.052632e+00	-9.558566e-02
7.662509e-02	1.052632e+00	-7.318920e-02
4.106998e-02	1.052632e+00	-5.193053e-02
1.528206e-02	1.052632e+00	-3.215886e-02
2.347037e-03	1.052632e+00	-1.488740e-02
0.000000e+00	1.052632e+00	0.000000e+00
1.064939e-02	1.052632e+00	1.066461e-02
3.126595e-02	1.052632e+00	1.703450e-02
6.375031e-02	1.052632e+00	1.787236e-02
1.050105e-01	1.052632e+00	1.417221e-02
1.560448e-01	1.052632e+00	4.777214e-03
2.137742e-01	1.052632e+00	-9.048270e-03
2.782849e-01	1.052632e+00	-2.799567e-02
3.468570e-01	1.052632e+00	-5.051783e-02
4.187060e-01	1.052632e+00	-7.662000e-02
4.916930e-01	1.052632e+00	-1.047585e-01
5.642168e-01	1.052632e+00	-1.343226e-01
6.348639e-01	1.052632e+00	-1.641238e-01
7.013280e-01	1.052632e+00	-1.931337e-01
7.630418e-01	1.052632e+00	-2.206893e-01
8.172084e-01	1.052632e+00	-2.454799e-01
8.641863e-01	1.052632e+00	-2.673591e-01
9.009752e-01	1.052632e+00	-2.848204e-01
9.288372e-01	1.052632e+00	-2.982085e-01
9.448555e-01	1.052632e+00	-3.059908e-01
9.510565e-01	1.052632e+00	-3.090170e-01
9.510565e-01	2.105263e+00	-3.090170e-01
9.442611e-01	2.105263e+00	-3.078203e-01
9.267277e-01	2.105263e+00	-3.047010e-01
8.963175e-01	2.105263e+00	-2.991555e-01
8.562911e-01	2.105263e+00	-2.916579e-01
8.054250e-01	2.105263e+00	-2.817457e-01
7.470317e-01	2.105263e+00	-2.699633e-01
6.809074e-01	2.105263e+00	-2.559818e-01
6.100852e-01	2.105263e+00	-2.403847e-01
5.354138e-01	2.105263e+00	-2.229691e-01
4.593635e-01	2.105263e+00	-2.042585e-01
3.837764e-01	2.105263e+00	-1.841224e-01
3.103069e-01	2.105263e+00	-1.630077e-01
2.415927e-01	2.105263e+00	-1.409228e-01
1.782654e-01	2.105263e+00	-1.183331e-01
1.234349e-01	2.105263e+00	-9.558566e-02
7.662509e-02	2.105263e+00	-7.318920e-02
4.106998e-02	2.105263e+00	-5.193053e-02
1.528206e-02	2.105263e+00	-3.215886e-02
2.347037e-03	2.105263e+00	-1.488740e-02
0.000000e+00	2.105263e+00	0.000000e+00
1.064939e-02	2.105263e+00	1.066461e-02
3.126595e-02	2.105263e+00	1.703450e-02
6.375031e-02	2.105263e+00	1.787236e-02
1.050105e-01	2.105263e+00	1.417221e-02
1.560448e-01	2.105263e+00	4.777214e-03
2.137742e-01	2.105263e+00	-9.048270e-03
2.782849e-01	2.105263e+00	-2.799567e-02
3.468570e-01	2.105263e+00	-5.051783e-02
4.187060e-01	2.105263e+00	-7.662000e-02
4.916930e-01	2.105263e+00	-1.047585e-01
5.642168e-01	2.105263e+00	-1.343226e-01
6.348639e-01	2.105263e+00	-1.641238e-01
7.013280e-01	2.105263e+00	-1.931337e-01
7.630418e-01	2.105263e+00	-2.206893e-01
8.172084e-01	2.105263e+00	-2.454799e-01
8.641863e-01	2.105263e+00	-2.673591e-01
9.009752e-01	2.105263e+00	-2.848204e-01
9.288372e-01	2.105263e+00	-2.982085e-01
9.448555e-01	2.105263e+00	-3.059908e-01
9.510565e-01	2.105263e+00	-3.090170e-01
9.510565e-01	3.157895e+00	-3.090170e-01
9.442611e-01	3.157895e+00	-3.078203e-01
9.267277e-01	3.157895e+00	-3.047010e-01
8.963175e-01	3.157895e+00	-2.991555e-01
8.562911e-01	3.157895e+00	-2.916579e-01
8.054250e-01	3.157895e+00	-2.817457e-01
7.470317e-01	3.157895e+00	-2.699633e-01
6.809074e-01	3.157895e+00	-2.559818e-01
6.100852e-01	3.157895e+00	-2.403847e-01
5.354138e-01	3.157895e+00	-2.229691e-01
4.593635e-01	3.157895e+00	-2.042585e-01
3.837764e-01	3.157895e+00	-1.841224e-01
3.103069e-01	3.157895e+00	-1.630077e-01
2.415927e-01	3.157895e+00	-1.409228e-01
1.782654e-01	3.157895e+00	-1.183331e-01
1.234349e-01	3.157895e+00	-9.558566e-02
7.662509e-02	3.157895e+00	-7.318920e-02
4.106998e-02	3.157895e+00	-5.193053e-02
1.528206e-02	3.157895e+00	-3.215886e-02
2.347037e-03	3.157895e+00	-1.488740e-02
0.000000e+00	3.157895e+00	0.000000e+00
1.064939e-02	3.157895e+00	1.066461e-02
3.126595e-02	3.157895e+00	1.703450e-02
6.375031e-02	3.157895e+00	1.787236e-02
1.050105e-01	3.157895e+00	1.417221e-02
1.560448e-01	3.157895e+00	4.777214e-03
2.137742e-01	3.157895e+00	-9.048270e-03
2.782849e-01	3.157895e+00	-2.799567e-02
3.468570e-01	3.157895e+00	-5.051783e-02
4.187060e-01	3.157895e+00	-7.662000e-02
4.916930e-01	3.157895e+00	-1.047585e-01
5.642168e-01	3.157895e+00	-1.343226e-01
6.348639e-01	3.157895e+00	-1.641238e-01
7.013280e-01	3.157895e+00	-1.931337e-01
7.630418e-01	3.157895e+00	-2.206893e-01
8.172084e-01	3.157895e+00	-2.454799e-01
8.641863e-01	3.157895e+00	-2.673591e-01
9.009752e-01	3.157895e+00	-2.848204e-01
9.288372e-01	3.157895e+00	-2.982085e-01
9.448555e-01	3.157895e+00	-3.059908e-01
9.510565e-01	3.157895e+00	-3.090170e-01
9.510565e-01	4.210526e+00	-3.090170e-01
9.442611e-01	4.210526e+00	-3.078203e-01
9.267277e-01	4.210526e+00	-3.047010e-01
8.963175e-01	4.210526e+00	-2.991555e-01
8.562911e-01	4.210526e+00	-2.916579e-01
8.054250e-01	4.210526e+00	-2.817457e-01
7.470317e-01	4.210526e+00	-2.699633e-01
6.809074e-01	4.210526e+00	-2.559818e-01
6.100852e-01	4.210526e+00	-2.403847e-01
5.354138e-01	4.210526e+00	-2.229691e-01
4.593635e-01	4.210526e+00	-2.042585e-01
3.837764e-01	4.210526e+00	-1.841224e-01
3.103069e-01	4.210526e+00	-1.630077e-01
2.415927e-01	4.210526e+00	-1.409228e-01
1.782654e-01	4.210526e+00	-1.183331e-01
1.234349e-01	4.210526e+00	-9.558566e-02
7.662509e-02	4.210526e+00	-7.318920e-02
4.106998e-02	4.210526e+00	-5.193053e-02
1.528206e-02	4.210526e+00	-3.215886e-02
2.347037e-03	4.210526e+00	-1.488740e-02
0.000000e+00	4.210526e+00	0.000000e+00
1.064939e-02	4.210526e+00	1.066461e-02
3.126595e-02	4.210526e+00	1.703450e-02
6.375031e-02	4.210526e+00	1.787236e-02
1.050105e-01	4.210526e+00	1.417221e-02
1.560448e-01	4.210526e+00	4.777214e-03
2.137742e-01	4.210526e+00	-9.048270e-03
2.782849e-01	4.210526e+00	-2.799567e-02
3.468570e-01	4.210526e+00	-5.051783e-02
4.187060e-01	4.210526e+00	-7.662000e-02
4.916930e-01	4.210526e+00	-1.047585e-01
5.642168e-01	4.210526e+00	-1.343226e-01
6.348639e-01	4.210526e+00	-1.641238e-01
7.013280e-01	4.210526e+00	-1.931337e-01
7.630418e-01	4.210526e+00	-2.206893e-01
8.172084e-01	4.210526e+00	-2.454799e-01
8.641863e-01	4.210526e+00	-2.673591e-01
9.009752e-01	4.210526e+00	-2.848204e-01
9.288372e-01	4.210526e+00	-2.982085e-01
9.448555e-01	4.210526e+00	-3.059908e-01
9.510565e-01	4.210526e+00	-3.090170e-01
9.510565e-01	5.263158e+00	-3.090170e-01
9.442611e-01	5.263158e+00	-3.078203e-01
9.267277e-01	5.263158e+00	-3.047010e-01
8.963175e-01	5.263158e+00	-2.991555e-01
8.562911e-01	5.263158e+00	-2.916579e-01
8.054250e-01	5.263158e+00	-2.817457e-01
7.470317e-01	5.263158e+00	-2.699633e-01
6.809074e-01	5.263158e+00	-2.559818e-01
6.100852e-01	5.263158e+00	-2.403847e-01
5.354138e-01	5.263158e+00	-2.229691e-01
4.593635e-01	5.263158e+00	-2.042585e-01
3.837764e-01	5.263158e+00	-1.841224e-01
3.103069e-01	5.263158e+00	-1.630077e-01
2.415927e-01	5.263158e+00	-1.409228e-01
1.782654e-01	5.263158e+00	-1.183331e-01
1.234349e-01	5.263158e+00	-9.558566e-02
7.662509e-02	5.263158e+00	-7.318920e-02
4.106998e-02	5.263158e+00	-5.193053e-02
1.528206e-02	5.263158e+00	-3.215886e-02
2.347037e-03	5.263158e+00	-1.488740e-02
0.000000e+00	5.263158e+00	0.000000e+00
1.064939e-02	5.263158e+00	1.066461e-02
3.126595e-02	5.263158e+00	1.703450e-02
6.375031e-02	5.263158e+00	1.787236e-02
1.050105e-01	5.263158e+00	1.417221e-02
1.560448e-01	5.263158e+00	4.777214e-03
2.137742e-01	5.263158e+00	-9.048270e-03
2.782849e-01	5.263158e+00	-2.799567e-02
3.468570e-01	5.263158e+00	-5.051783e-02
4.187060e-01	5.263158e+00	-7.662000e-02
4.916930e-01	5.263158e+00	-1.047585e-01
5.642168e-01	5.263158e+00	-1.343226e-01
6.348639e-01	5.263158e+00	-1.641238e-01
7.013280e-01	5.263158e+00	-1.931337e-01
7.630418e-01	5.263158e+00	-2.206893e-01
8.172084e-01	5.263158e+00	-2.454799e-01
8.641863e-01	5.263158e+00	-2.673591e-01
9.009752e-01	5.263158e+00	-2.848204e-01
9.288372e-01	5.263158e+00	-2.982085e-01
9.448555e-01	5.263158e+00	-3.059908e-01
9.510565e-01	5.263158e+00	-3.090170e-01
9.510565e-01	6.315789e+00	-3.090170e-01
9.442611e-01	6.315789e+00	-3.078203e-01
[...]
CELL_DATA 760
VECTORS V double
8.428852e-01	-6.651977e-02	-1.484290e-01
8.674542e-01	-6.635623e-02	-1.543255e-01
8.860183e-01	-6.593361e-02	-1.615739e-01
8.983697e-01	-6.518662e-02	-1.682784e-01
9.014313e-01	-6.409386e-02	-1.756608e-01
9.033509e-01	-6.263739e-02	-1.822749e-01
8.969260e-01	-6.080566e-02	-1.896484e-01
8.902490e-01	-5.857547e-02	-1.960587e-01
8.765767e-01	-5.591789e-02	-2.044442e-01
8.616673e-01	-5.280139e-02	-2.119950e-01
8.372846e-01	-4.919899e-02	-2.230498e-01
8.073673e-01	-4.510952e-02	-2.320324e-01
7.611166e-01	-4.054013e-02	-2.446241e-01
7.006001e-01	-3.555168e-02	-2.499136e-01
6.158020e-01	-3.018175e-02	-2.554768e-01
4.876254e-01	-2.454870e-02	-2.333076e-01
2.890666e-01	-1.866083e-02	-1.728351e-01
5.975885e-03	-1.267894e-02	-4.581728e-03
-3.960442e-01	-6.414150e-03	5.288171e-01
-3.318762e-01	-1.386750e-04	2.105111e+00
2.278509e+00	7.218413e-03	2.281765e+00
2.502038e+00	1.367403e-02	7.730534e-01
2.182733e+00	2.030587e-02	5.629861e-02
1.905303e+00	2.684781e-02	-1.708645e-01
1.704746e+00	3.353156e-02	-3.138300e-01
1.558205e+00	4.019845e-02	-3.731709e-01
1.425711e+00	4.684118e-02	-4.187446e-01
1.328658e+00	5.328480e-02	-4.363910e-01
1.244067e+00	5.941278e-02	-4.519596e-01
1.176228e+00	6.504193e-02	-4.534682e-01
1.117194e+00	7.003864e-02	-4.554205e-01
1.067680e+00	7.428549e-02	-4.503815e-01
1.024185e+00	7.772306e-02	-4.470312e-01
9.844949e-01	8.034797e-02	-4.395835e-01
9.478413e-01	8.221279e-02	-4.338003e-01
9.099595e-01	8.341675e-02	-4.237998e-01
8.733644e-01	8.408564e-02	-4.145277e-01
8.337336e-01	8.436377e-02	-4.006242e-01
7.910780e-01	8.439944e-02	-3.843363e-01
7.486943e-01	8.435447e-02	-3.653700e-01
8.291624e-01	-4.649767e-02	-1.460125e-01
8.503462e-01	-4.638237e-02	-1.512818e-01
8.655695e-01	-4.608699e-02	-1.578448e-01
8.750058e-01	-4.556308e-02	-1.639020e-01
8.754821e-01	-4.478861e-02	-1.706042e-01
8.748145e-01	-4.374477e-02	-1.765169e-01
8.655460e-01	-4.242044e-02	-1.830133e-01
8.554507e-01	-4.080035e-02	-1.883951e-01
8.376130e-01	-3.886896e-02	-1.953567e-01
8.175602e-01	-3.661100e-02	-2.011433e-01
7.870205e-01	-3.401518e-02	-2.096596e-01
7.496777e-01	-3.108795e-02	-2.154528e-01
6.947524e-01	-2.783900e-02	-2.232945e-01
6.236715e-01	-2.431322e-02	-2.224721e-01
5.262978e-01	-2.053592e-02	-2.183443e-01
3.815723e-01	-1.658707e-02	-1.825658e-01
1.623154e-01	-1.246867e-02	-9.704955e-02
-1.506057e-01	-8.290358e-03	1.154698e-01
-5.690885e-01	-3.919479e-03	7.598741e-01
-4.054714e-01	4.521703e-04	2.571930e+00
2.617698e+00	5.563129e-03	2.621439e+00
2.790724e+00	1.002824e-02	8.622486e-01
2.395463e+00	1.458818e-02	6.178549e-02
2.069551e+00	1.905181e-02	-1.855939e-01
1.838980e+00	2.357005e-02	-3.385415e-01
1.672360e+00	2.802993e-02	-4.005096e-01
1.524820e+00	3.242462e-02	-4.478536e-01
1.415819e+00	3.664009e-02	-4.650189e-01
1.320691e+00	4.060534e-02	-4.797964e-01
1.243278e+00	4.420880e-02	-4.793178e-01
1.175063e+00	4.737417e-02	-4.790107e-01
1.116764e+00	5.003457e-02	-4.710869e-01
1.064750e+00	5.216128e-02	-4.647368e-01
1.016978e+00	5.376042e-02	-4.540873e-01
9.727097e-01	5.487320e-02	-4.451818e-01
9.277960e-01	5.556951e-02	-4.321068e-01
8.847274e-01	5.593549e-02	-4.199209e-01
8.392104e-01	5.606767e-02	-4.032559e-01
7.914757e-01	5.606244e-02	-3.845294e-01
7.452504e-01	5.602166e-02	-3.636893e-01
8.235347e-01	-1.938104e-02	-1.450214e-01
8.435054e-01	-1.933584e-02	-1.500648e-01
8.573621e-01	-1.922098e-02	-1.563481e-01
8.653713e-01	-1.901307e-02	-1.620973e-01
8.643950e-01	-1.869463e-02	-1.684436e-01
8.622354e-01	-1.824966e-02	-1.739787e-01
8.514271e-01	-1.766794e-02	-1.800280e-01
8.396793e-01	-1.694179e-02	-1.849218e-01
8.200386e-01	-1.606804e-02	-1.912578e-01
7.979415e-01	-1.504661e-02	-1.963166e-01
7.651002e-01	-1.388087e-02	-2.038201e-01
7.250644e-01	-1.258054e-02	-2.083790e-01
6.670278e-01	-1.115430e-02	-2.143838e-01
5.921120e-01	-9.625089e-03	-2.112144e-01
4.900908e-01	-8.001801e-03	-2.033232e-01
3.390887e-01	-6.315595e-03	-1.622392e-01
1.118592e-01	-4.563758e-03	-6.688145e-02
-2.126582e-01	-2.790717e-03	1.630457e-01
-6.373598e-01	-9.405342e-04	8.510333e-01
-4.342847e-01	9.023198e-04	2.754694e+00
2.748633e+00	3.039119e-03	2.752561e+00
2.899951e+00	4.881095e-03	8.959963e-01
2.473977e+00	6.728129e-03	6.381060e-02
2.128272e+00	8.493135e-03	-1.908599e-01
1.885204e+00	1.022767e-02	-3.470509e-01
1.710039e+00	1.188228e-02	-4.095334e-01
1.556093e+00	1.345312e-02	-4.570387e-01
1.442075e+00	1.490281e-02	-4.736426e-01
1.342711e+00	1.621386e-02	-4.877960e-01
1.261648e+00	1.736118e-02	-4.864003e-01
1.190140e+00	1.833082e-02	-4.851569e-01
1.128842e+00	1.911309e-02	-4.761819e-01
1.074057e+00	1.970993e-02	-4.687991e-01
1.023755e+00	2.013257e-02	-4.571133e-01
9.771903e-01	2.040197e-02	-4.472325e-01
9.302394e-01	2.054678e-02	-4.332448e-01
8.854007e-01	2.060013e-02	-4.202405e-01
8.383927e-01	2.059701e-02	-4.028630e-01
7.894760e-01	2.056902e-02	-3.835579e-01
7.424491e-01	2.054552e-02	-3.623223e-01
8.215776e-01	-9.422026e-03	-1.446768e-01
8.410211e-01	-9.405556e-03	-1.496228e-01
8.542606e-01	-9.360980e-03	-1.557825e-01
8.616002e-01	-9.276195e-03	-1.613909e-01
8.599076e-01	-9.137719e-03	-1.675692e-01
8.569723e-01	-8.942891e-03	-1.729168e-01
8.453264e-01	-8.682549e-03	-1.787380e-01
8.326663e-01	-8.328854e-03	-1.833773e-01
8.120363e-01	-7.918247e-03	-1.893914e-01
7.888451e-01	-7.427908e-03	-1.940786e-01
7.547887e-01	-6.860135e-03	-2.010732e-01
7.133395e-01	-6.218796e-03	-2.050094e-01
6.536986e-01	-5.508693e-03	-2.100998e-01
5.768303e-01	-4.740300e-03	-2.057632e-01
4.724384e-01	-3.918426e-03	-1.959997e-01
3.182591e-01	-3.057590e-03	-1.522732e-01
8.701783e-02	-2.160178e-03	-5.202861e-02
-2.432831e-01	-1.248552e-03	1.865259e-01
-6.710688e-01	-2.955490e-04	8.960431e-01
-4.484815e-01	6.533917e-04	2.844745e+00
2.812799e+00	1.750513e-03	2.816819e+00
2.953068e+00	2.691154e-03	9.124080e-01
2.511819e+00	3.627476e-03	6.478664e-02
2.156275e+00	4.514062e-03	-1.933712e-01
1.906998e+00	5.374674e-03	-3.510631e-01
1.727602e+00	6.187893e-03	-4.137394e-01
1.570516e+00	6.951213e-03	-4.612750e-01
1.454070e+00	7.648263e-03	-4.775822e-01
1.352719e+00	8.273551e-03	-4.914320e-01
1.269990e+00	8.817509e-03	-4.896161e-01
1.197002e+00	9.275815e-03	-4.879539e-01
1.134392e+00	9.646693e-03	-4.785229e-01
1.078409e+00	9.933455e-03	-4.706984e-01
1.027016e+00	1.012035e-02	-4.585696e-01
9.794603e-01	1.025741e-02	-4.482714e-01
9.316302e-01	1.033570e-02	-4.338926e-01
8.860365e-01	1.036799e-02	-4.205423e-01
8.384080e-01	1.037657e-02	-4.028703e-01
7.890080e-01	1.037133e-02	-3.833306e-01
7.416505e-01	1.036463e-02	-3.619325e-01
8.207707e-01	-5.027960e-03	-1.445347e-01
8.399232e-01	-5.020451e-03	-1.494275e-01
8.528113e-01	-4.998988e-03	-1.555182e-01
8.596636e-01	-4.955939e-03	-1.610282e-01
8.575931e-01	-4.884718e-03	-1.671181e-01
8.543197e-01	-4.779727e-03	-1.723815e-01
8.419151e-01	-4.637277e-03	-1.780167e-01
8.288009e-01	-4.454329e-03	-1.825260e-01
8.078773e-01	-4.228727e-03	-1.884214e-01
7.840492e-01	-3.958871e-03	-1.928987e-01
7.492975e-01	-3.643514e-03	-1.996104e-01
7.070548e-01	-3.281665e-03	-2.032032e-01
6.464932e-01	-2.953247e-03	-2.077840e-01
5.684874e-01	-2.516497e-03	-2.027872e-01
4.627133e-01	-2.050788e-03	-1.919651e-01
3.067146e-01	-1.562821e-03	-1.467497e-01
7.322328e-02	-1.051369e-03	-4.378074e-02
-2.603462e-01	-5.301860e-04	1.996082e-01
-6.898821e-01	1.573161e-05	9.211635e-01
-4.564032e-01	5.596100e-04	2.894993e+00
2.848508e+00	1.187599e-03	2.852578e+00
2.982489e+00	1.724271e-03	9.214982e-01
2.532656e+00	2.255851e-03	6.532409e-02
2.171539e+00	2.755843e-03	-1.947400e-01
1.918782e+00	3.237979e-03	-3.532325e-01
1.737031e+00	3.687967e-03	-4.159975e-01
1.578180e+00	4.104474e-03	-4.635261e-01
1.460394e+00	4.476739e-03	-4.796594e-01
1.357943e+00	4.879995e-03	-4.933297e-01
1.274295e+00	5.161768e-03	-4.912760e-01
1.200524e+00	5.399812e-03	-4.893897e-01
1.137247e+00	5.591430e-03	-4.797273e-01
1.080411e+00	5.737853e-03	-4.715724e-01
1.028439e+00	5.842783e-03	-4.592048e-01
9.806936e-01	5.911973e-03	-4.488359e-01
9.323703e-01	5.952556e-03	-4.342372e-01
8.864013e-01	5.972171e-03	-4.207154e-01
8.385745e-01	5.978383e-03	-4.029503e-01
7.889420e-01	5.977393e-03	-3.832985e-01
7.414235e-01	5.974909e-03	-3.618217e-01
8.203175e-01	-2.959487e-03	-1.444549e-01
8.393107e-01	-2.955550e-03	-1.493186e-01
8.519815e-01	-2.944220e-03	-1.553669e-01
8.586767e-01	-2.920826e-03	-1.608433e-01
8.563042e-01	-2.884474e-03	-1.668670e-01
8.526670e-01	-2.824310e-03	-1.720481e-01
8.402924e-01	-2.739693e-03	-1.776736e-01
8.268459e-01	-2.650612e-03	-1.820955e-01
8.053483e-01	-2.516094e-03	-1.878316e-01
7.811615e-01	-2.356829e-03	-1.921882e-01
7.459382e-01	-2.171072e-03	-1.987155e-01
7.041226e-01	-1.958386e-03	-2.023605e-01
6.431061e-01	-1.750666e-03	-2.066953e-01
5.634226e-01	-1.491921e-03	-2.009805e-01
4.569224e-01	-1.214158e-03	-1.895626e-01
2.998615e-01	-9.232647e-04	-1.434707e-01
6.496768e-02	-6.156899e-04	-3.884466e-02
-2.705699e-01	-3.015735e-04	2.074467e-01
-7.011619e-01	2.781976e-05	9.362249e-01
-4.611511e-01	3.560182e-04	2.925110e+00
2.869865e+00	7.345412e-04	2.873967e+00
3.000020e+00	1.057228e-03	9.269148e-01
2.545007e+00	1.375706e-03	6.564265e-02
2.180587e+00	1.673822e-03	-1.955515e-01
1.925687e+00	1.961177e-03	-3.545036e-01
1.742430e+00	2.226175e-03	-4.172906e-01
1.582440e+00	2.469963e-03	-4.647772e-01
1.464846e+00	2.686898e-03	-4.811216e-01
1.361624e+00	2.906917e-03	-4.946670e-01
1.276549e+00	3.068848e-03	-4.921449e-01
1.202382e+00	3.203942e-03	-4.901472e-01
1.138713e+00	3.311438e-03	-4.803455e-01
1.081776e+00	3.391548e-03	-4.721680e-01
1.029540e+00	3.468296e-03	-4.596965e-01
9.812447e-01	3.504739e-03	-4.490881e-01
9.327833e-01	3.526779e-03	-4.344296e-01
8.866642e-01	3.540664e-03	-4.208402e-01
8.386086e-01	3.543836e-03	-4.029667e-01
7.888690e-01	3.543289e-03	-3.832630e-01
7.412701e-01	3.541959e-03	-3.617469e-01
8.201100e-01	-1.869590e-03	-1.444184e-01
8.390212e-01	-1.867597e-03	-1.492671e-01
8.515817e-01	-1.861784e-03	-1.552940e-01
8.581407e-01	-1.849728e-03	-1.607429e-01
8.556095e-01	-1.828841e-03	-1.667316e-01
8.517977e-01	-1.796365e-03	-1.718727e-01
8.392407e-01	-1.750156e-03	-1.774512e-01
8.256055e-01	-1.688803e-03	-1.818223e-01
8.039120e-01	-1.611795e-03	-1.874966e-01
7.795192e-01	-1.519286e-03	-1.917842e-01
7.440902e-01	-1.412448e-03	-1.982232e-01
7.014454e-01	-1.294290e-03	-2.015911e-01
6.400291e-01	-1.087975e-03	-2.057064e-01
5.605179e-01	-9.407387e-04	-1.999444e-01
4.534613e-01	-7.770057e-04	-1.881268e-01
2.957021e-01	-6.021512e-04	-1.414806e-01
5.994984e-02	-4.171630e-04	-3.584445e-02
-2.767998e-01	-2.276863e-04	2.122232e-01
-7.080403e-01	-2.870365e-05	9.454093e-01
-4.640447e-01	1.696452e-04	2.943464e+00
2.882858e+00	3.983142e-04	2.886978e+00
3.010659e+00	5.930355e-04	9.302020e-01
2.552486e+00	7.849247e-04	6.583555e-02
2.186032e+00	9.642641e-04	-1.960397e-01
1.929851e+00	1.136043e-03	-3.552701e-01
1.745736e+00	1.295625e-03	-4.180822e-01
1.585144e+00	1.444001e-03	-4.655714e-01
1.466460e+00	1.580625e-03	-4.816515e-01
1.362911e+00	1.628356e-03	-4.951344e-01
1.278043e+00	1.732683e-03	-4.927208e-01
1.203562e+00	1.816049e-03	-4.906281e-01
1.139646e+00	1.881330e-03	-4.807391e-01
1.082503e+00	1.930781e-03	-4.724854e-01
1.030091e+00	1.966311e-03	-4.599427e-01
9.816434e-01	1.990000e-03	-4.492705e-01
9.330509e-01	2.004162e-03	-4.345542e-01
8.868213e-01	2.011224e-03	-4.209148e-01
8.386759e-01	2.013698e-03	-4.029991e-01
7.888665e-01	2.013704e-03	-3.832618e-01
7.412198e-01	2.013107e-03	-3.617223e-01
8.199831e-01	-1.008889e-03	-1.443960e-01
8.388489e-01	-1.007693e-03	-1.492364e-01
8.513485e-01	-1.004319e-03	-1.552515e-01
8.578317e-01	-9.974674e-04	-1.606850e-01
8.552104e-01	-9.857390e-04	-1.666538e-01
8.512958e-01	-9.675731e-04	-1.717714e-01
8.386270e-01	-9.416235e-04	-1.773215e-01
8.248742e-01	-9.068877e-04	-1.816613e-01
8.030600e-01	-8.629605e-04	-1.872979e-01
7.785442e-01	-8.099368e-04	-1.915443e-01
7.429975e-01	-7.484326e-04	-1.979320e-01
6.998177e-01	-6.798326e-04	-2.011233e-01
6.381632e-01	-5.731811e-04	-2.051067e-01
5.588073e-01	-4.882022e-04	-1.993342e-01
4.514171e-01	-3.943742e-04	-1.872787e-01
2.932402e-01	-2.943555e-04	-1.403027e-01
5.697402e-02	-1.885354e-04	-3.406519e-02
-2.805011e-01	-8.009640e-05	2.150610e-01
-7.121330e-01	3.383088e-05	9.508741e-01
-4.657685e-01	1.474178e-04	2.954398e+00
2.890604e+00	2.783482e-04	2.894735e+00
3.017004e+00	3.897772e-04	9.321621e-01
2.556944e+00	4.994782e-04	6.595055e-02
2.189276e+00	6.018593e-04	-1.963306e-01
1.932330e+00	6.997350e-04	-3.557264e-01
1.747701e+00	7.904079e-04	-4.185529e-01
1.586751e+00	8.742910e-04	-4.660435e-01
1.467365e+00	9.507221e-04	-4.819489e-01
1.363623e+00	9.885100e-04	-4.953931e-01
1.278917e+00	1.046055e-03	-4.930578e-01
1.204244e+00	1.092157e-03	-4.909061e-01
1.140179e+00	1.128074e-03	-4.809642e-01
1.082914e+00	1.154961e-03	-4.726648e-01
1.030398e+00	1.173920e-03	-4.600797e-01
9.818596e-01	1.186185e-03	-4.493695e-01
9.331894e-01	1.193144e-03	-4.346187e-01
8.868950e-01	1.196259e-03	-4.209497e-01
8.386984e-01	1.197026e-03	-4.030099e-01
7.888506e-01	1.196667e-03	-3.832541e-01
7.411786e-01	1.196188e-03	-3.617022e-01
8.199093e-01	-1.346171e-03	-1.443830e-01
8.387518e-01	-1.347229e-03	-1.492191e-01
8.512201e-01	-1.350769e-03	-1.552281e-01
8.576644e-01	-1.338864e-03	-1.606537e-01
8.549969e-01	-1.306279e-03	-1.666122e-01
8.510289e-01	-1.330193e-03	-1.717175e-01
8.383009e-01	-1.178990e-03	-1.772525e-01
8.244844e-01	-1.224728e-03	-1.815754e-01
8.026032e-01	-9.768474e-04	-1.871913e-01
7.780155e-01	-1.038617e-03	-1.914142e-01
7.423898e-01	-6.964650e-04	-1.977702e-01
6.991177e-01	-7.686798e-04	-2.009221e-01
6.373546e-01	-3.529293e-04	-2.048468e-01
5.578637e-01	-4.347688e-04	-1.989976e-01
4.503093e-01	3.693382e-05	-1.868191e-01
2.919146e-01	3.536130e-04	-1.396685e-01
5.537619e-02	5.278659e-04	-3.310984e-02
-2.824846e-01	5.307689e-04	2.165817e-01
-7.143223e-01	5.599938e-04	9.537973e-01
-4.666887e-01	6.026840e-04	2.960235e+00
2.894729e+00	6.621764e-04	2.898866e+00
3.020372e+00	7.217235e-04	9.332030e-01
2.559305e+00	7.940887e-04	6.601143e-02
2.190986e+00	8.869355e-04	-1.964841e-01
1.933630e+00	8.051556e-04	-3.559659e-01
1.748723e+00	5.750445e-04	-4.187976e-01
1.587569e+00	1.839984e-04	-4.662835e-01
1.468028e+00	3.391057e-04	-4.821664e-01
1.364159e+00	-1.104906e-05	-4.955881e-01
1.279351e+00	1.183591e-04	-4.932250e-01
1.204589e+00	-1.751309e-04	-4.910468e-01
1.140448e+00	-7.339157e-05	-4.810778e-01
1.083117e+00	-2.897669e-04	-4.727535e-01
1.030544e+00	-2.205154e-04	-4.601448e-01
9.819562e-01	-3.552875e-04	-4.494137e-01
9.332444e-01	-3.208197e-04	-4.346444e-01
8.869166e-01	-3.473185e-04	-4.209600e-01
8.386948e-01	-3.561998e-04	-4.030082e-01
7.888293e-01	-3.515012e-04	-3.832437e-01
7.411465e-01	-3.501745e-04	-3.616865e-01
8.201607e-01	-4.224903e-06	-1.444273e-01
8.391249e-01	-4.333885e-06	-1.492855e-01
8.509730e-01	-4.641875e-06	-1.551830e-01
8.566627e-01	-5.217959e-06	-1.604661e-01
8.551411e-01	-6.089825e-06	-1.666403e-01
8.489037e-01	-7.234854e-06	-1.712887e-01
8.371520e-01	-8.546251e-06	-1.770096e-01
8.218728e-01	-9.843620e-06	-1.810003e-01
8.006315e-01	-1.094059e-05	-1.867315e-01
7.748381e-01	-1.173102e-05	-1.906325e-01
7.394355e-01	-1.222123e-05	-1.969832e-01
6.953653e-01	-1.249626e-05	-1.998437e-01
6.332985e-01	-1.266918e-05	-2.035432e-01
5.534043e-01	-1.283971e-05	-1.974069e-01
4.384081e-01	-1.308436e-05	-1.818816e-01
2.839523e-01	-1.344858e-05	-1.358589e-01
5.276122e-02	-1.396052e-05	-3.154632e-02
-2.812173e-01	-1.461458e-05	2.156101e-01
-7.140421e-01	-1.542784e-05	9.534231e-01
-4.668550e-01	-1.634986e-05	2.961290e+00
2.896519e+00	-1.752899e-05	2.900658e+00
3.022923e+00	-1.861709e-05	9.339909e-01
2.562392e+00	-1.975487e-05	6.609106e-02
2.189047e+00	-2.086694e-05	-1.963101e-01
1.925794e+00	-2.196084e-05	-3.545232e-01
1.736867e+00	-2.297705e-05	-4.159582e-01
1.583575e+00	-2.388154e-05	-4.651106e-01
1.464435e+00	-2.462198e-05	-4.809863e-01
1.360868e+00	-2.516752e-05	-4.943923e-01
1.276813e+00	-2.550304e-05	-4.922468e-01
1.201819e+00	-2.564700e-05	-4.899178e-01
1.138795e+00	-2.565276e-05	-4.803803e-01
1.080834e+00	-2.560310e-05	-4.717569e-01
1.029600e+00	-2.558752e-05	-4.597231e-01
9.800780e-01	-2.566836e-05	-4.485541e-01
9.334418e-01	-2.584565e-05	-4.347363e-01
8.860372e-01	-2.605745e-05	-4.205426e-01
8.384924e-01	-2.621841e-05	-4.029109e-01
7.891827e-01	-2.627821e-05	-3.834154e-01
7.413818e-01	-2.627039e-05	-3.618014e-01
8.199276e-01	1.337833e-03	-1.443862e-01
8.387764e-01	1.337534e-03	-1.492235e-01
8.512512e-01	1.329356e-03	-1.552337e-01
8.577013e-01	1.445340e-03	-1.606606e-01
8.550379e-01	1.400726e-03	-1.666202e-01
8.510714e-01	1.420694e-03	-1.717261e-01
8.383410e-01	1.266294e-03	-1.772610e-01
8.245183e-01	1.309291e-03	-1.815829e-01
8.026285e-01	1.059232e-03	-1.871972e-01
7.780323e-01	1.119397e-03	-1.914183e-01
7.423998e-01	7.760578e-04	-1.977728e-01
6.991237e-01	8.472715e-04	-2.009238e-01
6.373594e-01	4.304854e-04	-2.048483e-01
5.578698e-01	5.111126e-04	-1.989998e-01
4.503191e-01	3.794627e-05	-1.868231e-01
2.919305e-01	-2.804431e-04	-1.396761e-01
5.540077e-02	-4.566429e-04	-3.312453e-02
-2.824476e-01	-4.616481e-04	2.165534e-01
-7.142751e-01	-4.931576e-04	9.537342e-01
-4.666662e-01	-5.381674e-04	2.960092e+00
2.894617e+00	-6.003423e-04	2.898754e+00
3.020274e+00	-6.621458e-04	9.331726e-01
2.559232e+00	-7.366783e-04	6.600955e-02
2.190932e+00	-8.314691e-04	-1.964792e-01
1.933588e+00	-7.514444e-04	-3.559581e-01
1.748690e+00	-5.228350e-04	-4.187897e-01
1.587544e+00	-1.330316e-04	-4.662763e-01
1.468010e+00	-2.890989e-04	-4.821606e-01
1.364148e+00	6.037772e-05	-4.955839e-01
1.279345e+00	-6.942988e-05	-4.932226e-01
1.204587e+00	2.239154e-04	-4.910460e-01
1.140449e+00	1.222367e-04	-4.810780e-01
1.083118e+00	3.388043e-04	-4.727539e-01
1.030543e+00	2.698214e-04	-4.601444e-01
9.819522e-01	4.050191e-04	-4.494119e-01
9.332373e-01	3.717876e-04	-4.346410e-01
8.869080e-01	4.080475e-04	-4.209559e-01
8.386875e-01	2.874840e-04	-4.030047e-01
7.888258e-01	2.937197e-04	-3.832421e-01
7.411477e-01	2.935331e-04	-3.616871e-01
8.202108e-01	1.106288e-03	-1.444361e-01
8.396886e-01	1.104745e-03	-1.493858e-01
8.466073e-01	1.100449e-03	-1.543869e-01
8.553998e-01	1.091985e-03	-1.602295e-01
8.555164e-01	1.078040e-03	-1.667135e-01
8.514180e-01	1.057347e-03	-1.717961e-01
8.387180e-01	1.028978e-03	-1.773407e-01
8.249438e-01	9.922514e-04	-1.816766e-01
8.031108e-01	9.467884e-04	-1.873097e-01
7.785808e-01	8.923687e-04	-1.915533e-01
7.430261e-01	8.288793e-04	-1.979397e-01
6.998449e-01	7.564599e-04	-2.011311e-01
6.381944e-01	6.751830e-04	-2.051167e-01
5.588469e-01	5.858429e-04	-1.993483e-01
4.514685e-01	4.886452e-04	-1.873000e-01
2.933072e-01	3.851196e-04	-1.403348e-01
5.706019e-02	2.745191e-04	-3.411671e-02
-2.803893e-01	2.039194e-04	2.149753e-01
-7.120062e-01	8.189280e-05	9.507046e-01
-4.657144e-01	-3.863687e-05	2.954055e+00
2.890363e+00	-1.752486e-04	2.894493e+00
3.016810e+00	-2.886759e-04	9.321023e-01
2.556812e+00	-4.445047e-04	6.594715e-02
2.189184e+00	-5.446753e-04	-1.963224e-01
1.932265e+00	-6.409422e-04	-3.557144e-01
1.747654e+00	-7.309235e-04	-4.185417e-01
1.586718e+00	-8.141511e-04	-4.660337e-01
1.467343e+00	-8.886594e-04	-4.819415e-01
1.363609e+00	-9.539990e-04	-4.953880e-01
1.278910e+00	-1.009443e-03	-4.930552e-01
1.204243e+00	-1.055033e-03	-4.909057e-01
1.140182e+00	-1.091002e-03	-4.809656e-01
1.082920e+00	-1.118063e-03	-4.726675e-01
1.030408e+00	-1.137233e-03	-4.600841e-01
9.818853e-01	-1.149779e-03	-4.493813e-01
9.333788e-01	-1.157100e-03	-4.347070e-01
8.845705e-01	-1.160589e-03	-4.198465e-01
8.342788e-01	-1.161601e-03	-4.008862e-01
7.895624e-01	-1.161274e-03	-3.835999e-01
7.413532e-01	-1.160715e-03	-3.617874e-01
8.201864e-01	1.898018e-03	-1.444318e-01
8.391201e-01	1.896503e-03	-1.492846e-01
8.517014e-01	1.900182e-03	-1.553158e-01
8.582744e-01	1.756541e-03	-1.607680e-01
8.557464e-01	1.742939e-03	-1.667583e-01
8.519253e-01	1.709517e-03	-1.718984e-01
8.393483e-01	1.662981e-03	-1.774740e-01
8.256893e-01	1.606223e-03	-1.818408e-01
8.039768e-01	1.476646e-03	-1.875117e-01
7.795804e-01	1.387747e-03	-1.917992e-01
7.441760e-01	1.278699e-03	-1.982460e-01
7.011716e-01	1.152859e-03	-2.015124e-01
6.397284e-01	1.011318e-03	-2.056098e-01