# vtk DataFile Version 2.0
OUTPUT by 3D-VPM
ASCII
DATASET UNSTRUCTURED_GRID
POINTS 820 double
9.510565e-01	0.000000e+00	-3.090170e-01
9.442611e-01	0.000000e+00	-3.078203e-01
9.267277e-01	0.000000e+00	-3.047010e-01
8.963175e-01	0.000000e+00	-2.991555e-01
8.562911e-01	0.000000e+00	-2.916579e-01
8.054250e-01	0.000000e+00	-2.817457e-01
7.470317e-01	0.000000e+00	-2.699633e-01
6.809074e-01	0.000000e+00	-2.559818e-01
6.100852e-01	0.000000e+00	-2.403847e-01
5.354138e-01	0.000000e+00	-2.229691e-01
4.593635e-01	0.000000e+00	-2.042585e-01
3.837764e-01	0.000000e+00	-1.841224e-01
3.103069e-01	0.000000e+00	-1.630077e-01
2.415927e-01	0.000000e+00	-1.409228e-01
1.782654e-01	0.000000e+00	-1.183331e-01
1.234349e-01	0.000000e+00	-9.558566e-02
7.662509e-02	0.000000e+00	-7.318920e-02
4.106998e-02	0.000000e+00	-5.193053e-02
1.528206e-02	0.000000e+00	-3.215886e-02
2.347037e-03	0.000000e+00	-1.488740e-02
0.000000e+00	0.000000e+00	0.000000e+00
1.064939e-02	0.000000e+00	1.066461e-02
3.126595e-02	0.000000e+00	1.703450e-02
6.375031e-02	0.000000e+00	1.787236e-02
1.050105e-01	0.000000e+00	1.417221e-02
1.560448e-01	0.000000e+00	4.777214e-03
2.137742e-01	0.000000e+00	-9.048270e-03
2.782849e-01	0.000000e+00	-2.799567e-02
3.468570e-01	0.000000e+00	-5.051783e-02
4.187060e-01	0.000000e+00	-7.662000e-02
4.916930e-01	0.000000e+00	-1.047585e-01
5.642168e-01	0.000000e+00	-1.343226e-01
6.348639e-01	0.000000e+00	-1.641238e-01
7.013280e-01	0.000000e+00	-1.931337e-01
7.630418e-01	0.000000e+00	-2.206893e-01
8.172084e-01	0.000000e+00	-2.454799e-01
8.641863e-01	0.000000e+00	-2.673591e-01
9.009752e-01	0.000000e+00	-2.848204e-01
9.288372e-01	0.000000e+00	-2.982085e-01
9.448555e-01	0.000000e+00	-3.059908e-01
9.510565e-01	0.000000e+00	-3.090170e-01
9.510565e-01	1.052632e+00	-3.090170e-01
9.442611e-01	1.052632e+00	-3.078203e-01
9.267277e-01	1.052632e+00	-3.047010e-01
8.963175e-01	1.052632e+00	-2.991555e-01
8.562911e-01	1.052632e+00	-2.916579e-01
8.054250e-01	1.052632e+00	-2.817457e-01
7.470317e-01	1.052632e+00	-2.699633e-01
6.809074e-01	1.052632e+00	-2.559818e-01
6.100852e-01	1.052632e+00	-2.403847e-01
5.354138e-01	1.052632e+00	-2.229691e-01
4.593635e-01	1.052632e+00	-2.042585e-01
3.837764e-01	1.052632e+00	-1.841224e-01
3.103069e-01	1.052632e+00	-1.630077e-01
2.415927e-01	1.052632e+00	-1.409228e-01
1.782654e-01	1.052632e+00	-1.183331e-01
1.234349e-01	1.052632e+00	-9.558566e-02
7.662509e-02	1.052632e+00	-7.318920e-02
4.106998e-02	1.052632e+00	-5.193053e-02
1.528206e-02	1.052632e+00	-3.215886e-02
2.347037e-03	1.052632e+00	-1.488740e-02
0.000000e+00	1.052632e+00	0.000000e+00
1.064939e-02	1.052632e+00	1.066461e-02
3.126595e-02	1.052632e+00	1.703450e-02
6.375031e-02	1.052632e+00	1.787236e-02
1.050105e-01	1.052632e+00	1.417221e-02
1.560448e-01	1.052632e+00	4.777214e-03
2.137742e-01	1.052632e+00	-9.048270e-03
2.782849e-01	1.052632e+00	-2.799567e-02
3.468570e-01	1.052632e+00	-5.051783e-02
4.187060e-01	1.052632e+00	-7.662000e-02
4.916930e-01	1.052632e+00	-1.047585e-01
5.642168e-01	1.052632e+00	-1.343226e-01
6.348639e-01	1.052632e+00	-1.641238e-01
7.013280e-01	1.052632e+00	-1.931337e-01
7.630418e-01	1.052632e+00	-2.206893e-01
8.172084e-01	1.052632e+00	-2.454799e-01
8.641863e-01	1.052632e+00	-2.673591e-01
9.009752e-01	1.052632e+00	-2.848204e-01
9.288372e-01	1.052632e+00	-2.982085e-01
9.448555e-01	1.052632e+00	-3.059908e-01
9.510565e-01	1.052632e+00	-3.090170e-01
9.510565e-01	2.105263e+00	-3.090170e-01
9.442611e-01	2.105263e+00	-3.078203e-01
9.267277e-01	2.105263e+00	-3.047010e-01
8.963175e-01	2.105263e+00	-2.991555e-01
8.562911e-01	2.105263e+00	-2.916579e-01
8.054250e-01	2.105263e+00	-2.817457e-01
7.470317e-01	2.105263e+00	-2.699633e-01
6.809074e-01	2.105263e+00	-2.559818e-01
6.100852e-01	2.105263e+00	-2.403847e-01
5.354138e-01	2.105263e+00	-2.229691e-01
4.593635e-01	2.105263e+00	-2.042585e-01
3.837764e-01	2.105263e+00	-1.841224e-01
3.103069e-01	2.105263e+00	-1.630077e-01
2.415927e-01	2.105263e+00	-1.409228e-01
1.782654e-01	2.105263e+00	-1.183331e-01
1.234349e-01	2.105263e+00	-9.558566e-02
7.662509e-02	2.105263e+00	-7.318920e-02
4.106998e-02	2.105263e+00	-5.193053e-02
1.528206e-02	2.105263e+00	-3.215886e-02
2.347037e-03	2.105263e+00	-1.488740e-02
0.000000e+00	2.105263e+00	0.000000e+00
1.064939e-02	2.105263e+00	1.066461e-02
3.126595e-02	2.105263e+00	1.703450e-02
6.375031e-02	2.105263e+00	1.787236e-02
1.050105e-01	2.105263e+00	1.417221e-02
1.560448e-01	2.105263e+00	4.777214e-03
2.137742e-01	2.105263e+00	-9.048270e-03
2.782849e-01	2.105263e+00	-2.799567e-02
3.468570e-01	2.105263e+00	-5.051783e-02
4.187060e-01	2.105263e+00	-7.662000e-02
4.916930e-01	2.105263e+00	-1.047585e-01
5.642168e-01	2.105263e+00	-1.343226e-01
6.348639e-01	2.105263e+00	-1.641238e-01
7.013280e-01	2.105263e+00	-1.931337e-01
7.630418e-01	2.105263e+00	-2.206893e-01
8.172084e-01	2.105263e+00	-2.454799e-01
8.641863e-01	2.105263e+00	-2.673591e-01
9.009752e-01	2.105263e+00	-2.848204e-01
9.288372e-01	2.105263e+00	-2.982085e-01
9.448555e-01	2.105263e+00	-3.059908e-01
9.510565e-01	2.105263e+00	-3.090170e-01
9.510565e-01	3.157895e+00	-3.090170e-01
9.442611e-01	3.157895e+00	-3.078203e-01
9.267277e-01	3.157895e+00	-3.047010e-01
8.963175e-01	3.157895e+00	-2.991555e-01
8.562911e-01	3.157895e+00	-2.916579e-01
8.054250e-01	3.157895e+00	-2.817457e-01
7.470317e-01	3.157895e+00	-2.699633e-01
6.809074e-01	3.157895e+00	-2.559818e-01
6.100852e-01	3.157895e+00	-2.403847e-01
5.354138e-01	3.157895e+00	-2.229691e-01
4.593635e-01	3.157895e+00	-2.042585e-01
3.837764e-01	3.157895e+00	-1.841224e-01
3.103069e-01	3.157895e+00	-1.630077e-01
2.415927e-01	3.157895e+00	-1.409228e-01
1.782654e-01	3.157895e+00	-1.183331e-01
1.234349e-01	3.157895e+00	-9.558566e-02
7.662509e-02	3.157895e+00	-7.318920e-02
4.106998e-02	3.157895e+00	-5.193053e-02
1.528206e-02	3.157895e+00	-3.215886e-02
2.347037e-03	3.157895e+00	-1.488740e-02
0.000000e+00	3.157895e+00	0.000000e+00
1.064939e-02	3.157895e+00	1.066461e-02
3.126595e-02	3.157895e+00	1.703450e-02
6.375031e-02	3.157895e+00	1.787236e-02
1.050105e-01	3.157895e+00	1.417221e-02
1.560448e-01	3.157895e+00	4.777214e-03
2.137742e-01	3.157895e+00	-9.048270e-03
2.782849e-01	3.157895e+00	-2.799567e-02
3.468570e-01	3.157895e+00	-5.051783e-02
4.187060e-01	3.157895e+00	-7.662000e-02
4.916930e-01	3.157895e+00	-1.047585e-01
5.642168e-01	3.157895e+00	-1.343226e-01
6.348639e-01	3.157895e+00	-1.641238e-01
7.013280e-01	3.157895e+00	-1.931337e-01
7.630418e-01	3.157895e+00	-2.206893e-01
8.172084e-01	3.157895e+00	-2.454799e-01
8.641863e-01	3.157895e+00	-2.673591e-01
9.009752e-01	3.157895e+00	-2.848204e-01
9.288372e-01	3.157895e+00	-2.982085e-01
9.448555e-01	3.157895e+00	-3.059908e-01
9.510565e-01	3.157895e+00	-3.090170e-01
9.510565e-01	4.210526e+00	-3.090170e-01
9.442611e-01	4.210526e+00	-3.078203e-01
9.267277e-01	4.210526e+00	-3.047010e-01
8.963175e-01	4.210526e+00	-2.991555e-01
8.562911e-01	4.210526e+00	-2.916579e-01
8.054250e-01	4.210526e+00	-2.817457e-01
7.470317e-01	4.210526e+00	-2.699633e-01
6.809074e-01	4.210526e+00	-2.559818e-01
6.100852e-01	4.210526e+00	-2.403847e-01
5.354138e-01	4.210526e+00	-2.229691e-01
4.593635e-01	4.210526e+00	-2.042585e-01
3.837764e-01	4.210526e+00	-1.841224e-01
3.103069e-01	4.210526e+00	-1.630077e-01
2.415927e-01	4.210526e+00	-1.409228e-01
1.782654e-01	4.210526e+00	-1.183331e-01
1.234349e-01	4.210526e+00	-9.558566e-02
7.662509e-02	4.210526e+00	-7.318920e-02
4.106998e-02	4.210526e+00	-5.193053e-02
1.528206e-02	4.210526e+00	-3.215886e-02
2.347037e-03	4.210526e+00	-1.488740e-02
0.000000e+00	4.210526e+00	0.000000e+00
1.064939e-02	4.210526e+00	1.066461e-02
3.126595e-02	4.210526e+00	1.703450e-02
6.375031e-02	4.210526e+00	1.787236e-02
1.050105e-01	4.210526e+00	1.417221e-02
1.560448e-01	4.210526e+00	4.777214e-03
2.137742e-01	4.210526e+00	-9.048270e-03
2.782849e-01	4.210526e+00	-2.799567e-02
3.468570e-01	4.210526e+00	-5.051783e-02
4.187060e-01	4.210526e+00	-7.662000e-02
4.916930e-01	4.210526e+00	-1.047585e-01
5.642168e-01	4.210526e+00	-1.343226e-01
6.348639e-01	4.210526e+00	-1.641238e-01
7.013280e-01	4.210526e+00	-1.931337e-01
7.630418e-01	4.210526e+00	-2.206893e-01
8.172084e-01	4.210526e+00	-2.454799e-01
8.641863e-01	4.210526e+00	-2.673591e-01
9.009752e-01	4.210526e+00	-2.848204e-01
9.288372e-01	4.210526e+00	-2.982085e-01
9.448555e-01	4.210526e+00	-3.059908e-01
9.510565e-01	4.210526e+00	-3.090170e-01
9.510565e-01	5.263158e+00	-3.090170e-01
9.442611e-01	5.263158e+00	-3.078203e-01
9.267277e-01	5.263158e+00	-3.047010e-01
8.963175e-01	5.263158e+00	-2.991555e-01
8.562911e-01	5.263158e+00	-2.916579e-01
8.054250e-01	5.263158e+00	-2.817457e-01
7.470317e-01	5.263158e+00	-2.699633e-01
6.809074e-01	5.263158e+00	-2.559818e-01
6.100852e-01	5.263158e+00	-2.403847e-01
5.354138e-01	5.263158e+00	-2.229691e-01
4.593635e-01	5.263158e+00	-2.042585e-01
3.837764e-01	5.263158e+00	-1.841224e-01
3.103069e-01	5.263158e+00	-1.630077e-01
2.415927e-01	5.263158e+00	-1.409228e-01
1.782654e-01	5.263158e+00	-1.183331e-01
1.234349e-01	5.263158e+00	-9.558566e-02
7.662509e-02	5.263158e+00	-7.318920e-02
4.106998e-02	5.263158e+00	-5.193053e-02
1.528206e-02	5.263158e+00	-3.215886e-02
2.347037e-03	5.263158e+00	-1.488740e-02
0.000000e+00	5.263158e+00	0.000000e+00
1.064939e-02	5.263158e+00	1.066461e-02
3.126595e-02	5.263158e+00	1.703450e-02
6.375031e-02	5.263158e+00	1.787236e-02
1.050105e-01	5.263158e+00	1.417221e-02
1.560448e-01	5.263158e+00	4.777214e-03
2.137742e-01	5.263158e+00	-9.048270e-03
2.782849e-01	5.263158e+00	-2.799567e-02
3.468570e-01	5.263158e+00	-5.051783e-02
4.187060e-01	5.263158e+00	-7.662000e-02
4.916930e-01	5.263158e+00	-1.047585e-01
5.642168e-01	5.263158e+00	-1.343226e-01
6.348639e-01	5.263158e+00	-1.641238e-01
7.013280e-01	5.263158e+00	-1.931337e-01
7.630418e-01	5.263158e+00	-2.206893e-01
8.172084e-01	5.263158e+00	-2.454799e-01
8.641863e-01	5.263158e+00	-2.673591e-01
9.009752e-01	5.263158e+00	-2.848204e-01
9.288372e-01	5.263158e+00	-2.982085e-01
9.448555e-01	5.263158e+00	-3.059908e-01
9.510565e-01	5.263158e+00	-3.090170e-01
9.510565e-01	6.315789e+00	-3.090170e-01
9.442611e-01	6.315789e+00	-3.078203e-01
[...]
CELL_DATA 760
VECTORS V double
8.414220e-01	-6.903597e-02	-1.481713e-01
8.655426e-01	-6.886239e-02	-1.539854e-01
8.835570e-01	-6.841261e-02	-1.611250e-01
8.953222e-01	-6.761819e-02	-1.677076e-01
8.977863e-01	-6.645723e-02	-1.749505e-01
8.990978e-01	-6.491209e-02	-1.814167e-01
8.920590e-01	-6.297245e-02	-1.886193e-01
8.847474e-01	-6.061425e-02	-1.948471e-01
8.704121e-01	-5.780900e-02	-2.030064e-01
8.547707e-01	-5.452411e-02	-2.102982e-01
8.294643e-01	-5.073409e-02	-2.209665e-01
7.985407e-01	-4.642473e-02	-2.294957e-01
7.511893e-01	-4.162901e-02	-2.414335e-01
6.891622e-01	-3.639810e-02	-2.458336e-01
6.025081e-01	-3.076994e-02	-2.499615e-01
4.718263e-01	-2.486737e-02	-2.257484e-01
2.701097e-01	-1.869838e-02	-1.615006e-01
-1.747197e-02	-1.242902e-02	1.339581e-02
-4.218667e-01	-5.860740e-03	5.632965e-01
-3.427212e-01	7.203329e-04	2.173902e+00
2.327175e+00	8.434070e-03	2.330501e+00
2.541822e+00	1.519936e-02	7.853456e-01
2.210642e+00	2.214610e-02	5.701847e-02
1.925590e+00	2.899398e-02	-1.726838e-01
1.720232e+00	3.598403e-02	-3.166810e-01
1.570441e+00	4.295114e-02	-3.761013e-01
1.435582e+00	4.988965e-02	-4.216436e-01
1.336760e+00	5.662108e-02	-4.390521e-01
1.250658e+00	6.302724e-02	-4.543538e-01
1.181713e+00	6.891031e-02	-4.555829e-01
1.121881e+00	7.415476e-02	-4.573310e-01
1.071621e+00	7.862349e-02	-4.520443e-01
1.027480e+00	8.225428e-02	-4.484693e-01
9.872045e-01	8.503937e-02	-4.407934e-01
9.499822e-01	8.703016e-02	-4.347801e-01
9.115294e-01	8.832457e-02	-4.245309e-01
8.743617e-01	8.905089e-02	-4.150010e-01
8.341868e-01	8.935822e-02	-4.008419e-01
7.910580e-01	8.940218e-02	-3.843265e-01
7.483066e-01	8.935651e-02	-3.651808e-01
8.268559e-01	-4.834516e-02	-1.456063e-01
8.473434e-01	-4.822085e-02	-1.507476e-01
8.618055e-01	-4.790231e-02	-1.571584e-01
8.704912e-01	-4.733848e-02	-1.630564e-01
8.702420e-01	-4.650672e-02	-1.695830e-01
8.688573e-01	-4.538820e-02	-1.753149e-01
8.588576e-01	-4.397225e-02	-1.815991e-01
8.479873e-01	-4.224388e-02	-1.867515e-01
8.293161e-01	-4.018824e-02	-1.934216e-01
8.083268e-01	-3.779018e-02	-1.988717e-01
7.765375e-01	-3.501992e-02	-2.068670e-01
7.378758e-01	-3.192793e-02	-2.120610e-01
6.815691e-01	-2.849155e-02	-2.190574e-01
6.085142e-01	-2.476589e-02	-2.170653e-01
5.087102e-01	-2.077689e-02	-2.110478e-01
3.607039e-01	-1.660763e-02	-1.725812e-01
1.372890e-01	-1.225987e-02	-8.208614e-02
-1.816045e-01	-7.847040e-03	1.392367e-01
-6.033113e-01	-3.229279e-03	8.055701e-01
-4.198930e-01	1.390496e-03	2.663407e+00
2.682712e+00	6.790959e-03	2.686545e+00
2.844271e+00	1.150724e-02	8.787930e-01
2.433385e+00	1.632159e-02	6.276361e-02
2.097433e+00	2.103109e-02	-1.880943e-01
1.860560e+00	2.579445e-02	-3.425142e-01
1.689705e+00	3.049203e-02	-4.046636e-01
1.539110e+00	3.511801e-02	-4.520508e-01
1.427847e+00	3.955426e-02	-4.689692e-01
1.330749e+00	4.372893e-02	-4.834504e-01
1.251929e+00	4.753439e-02	-4.826532e-01
1.182690e+00	5.086028e-02	-4.821196e-01
1.123355e+00	5.367787e-02	-4.738673e-01
1.070407e+00	5.593737e-02	-4.672056e-01
1.021752e+00	5.764325e-02	-4.562192e-01
9.765986e-01	5.883673e-02	-4.469617e-01
9.307664e-01	5.958866e-02	-4.334903e-01
8.867531e-01	5.998743e-02	-4.208824e-01
8.402945e-01	6.013385e-02	-4.037768e-01
7.917011e-01	6.013023e-02	-3.846390e-01
7.448094e-01	6.008692e-02	-3.634741e-01
8.205596e-01	-2.041142e-02	-1.444975e-01
8.397175e-01	-2.035958e-02	-1.493909e-01
8.526998e-01	-2.022920e-02	-1.554979e-01
8.598576e-01	-1.999315e-02	-1.610645e-01
8.580659e-01	-1.963451e-02	-1.672103e-01
8.550983e-01	-1.913661e-02	-1.725386e-01
8.434737e-01	-1.848969e-02	-1.783463e-01
8.308687e-01	-1.768844e-02	-1.829814e-01
8.103076e-01	-1.670570e-02	-1.889882e-01
7.869145e-01	-1.558538e-02	-1.936036e-01
7.528441e-01	-1.431320e-02	-2.005552e-01
7.115457e-01	-1.290398e-02	-2.044939e-01
6.517202e-01	-1.134772e-02	-2.094639e-01
5.745583e-01	-9.680611e-03	-2.049528e-01
4.697650e-01	-7.912748e-03	-1.948907e-01
3.150072e-01	-6.076588e-03	-1.507173e-01
8.299905e-02	-4.168864e-03	-4.962575e-02
-2.484107e-01	-2.237497e-03	1.904572e-01
-6.768390e-01	-2.216318e-04	9.037477e-01
-4.509369e-01	1.786807e-03	2.860320e+00
2.823827e+00	4.116101e-03	2.827862e+00
2.962008e+00	6.124237e-03	9.151700e-01
2.518017e+00	8.137871e-03	6.494650e-02
2.160737e+00	1.006186e-02	-1.937713e-01
1.910387e+00	1.195244e-02	-3.516870e-01
1.730314e+00	1.375607e-02	-4.143888e-01
1.572808e+00	1.546815e-02	-4.619481e-01
1.456143e+00	1.704804e-02	-4.782628e-01
1.354666e+00	1.847824e-02	-4.921393e-01
1.271707e+00	1.974432e-02	-4.902782e-01
1.198804e+00	2.080962e-02	-4.886884e-01
1.136487e+00	2.166994e-02	-4.794066e-01
1.080555e+00	2.230697e-02	-4.716352e-01
1.029172e+00	2.277856e-02	-4.595323e-01
9.815361e-01	2.308063e-02	-4.492215e-01
9.334893e-01	2.324527e-02	-4.347584e-01
8.875243e-01	2.330773e-02	-4.212485e-01
8.394012e-01	2.330548e-02	-4.033476e-01
7.894756e-01	2.327501e-02	-3.835577e-01
7.416746e-01	2.324821e-02	-3.619443e-01
8.181557e-01	-1.021991e-02	-1.440742e-01
8.367404e-01	-1.019887e-02	-1.488613e-01
8.489672e-01	-1.014258e-02	-1.548172e-01
8.553524e-01	-1.003675e-02	-1.602206e-01
8.527726e-01	-9.871549e-03	-1.661788e-01
8.489659e-01	-9.623633e-03	-1.713013e-01
8.364730e-01	-9.310921e-03	-1.768660e-01
8.225737e-01	-8.913422e-03	-1.811546e-01
8.009407e-01	-8.440051e-03	-1.868036e-01
7.769165e-01	-7.876122e-03	-1.911438e-01
7.414905e-01	-7.236685e-03	-1.975306e-01
6.983562e-01	-6.499061e-03	-2.007033e-01
6.367931e-01	-5.693491e-03	-2.046663e-01
5.574746e-01	-4.817244e-03	-1.988588e-01
4.500573e-01	-3.882377e-03	-1.867145e-01
2.917587e-01	-2.906330e-03	-1.395939e-01
5.528076e-02	-1.892460e-03	-3.305278e-02
-2.825678e-01	-8.588937e-04	2.166455e-01
-7.144362e-01	2.208641e-04	9.539493e-01
-4.667721e-01	1.295579e-03	2.960764e+00
2.895402e+00	2.537776e-03	2.899540e+00
3.021259e+00	3.602572e-03	9.334769e-01
2.560228e+00	4.662253e-03	6.603525e-02
2.191963e+00	5.665694e-03	-1.965717e-01
1.934701e+00	6.645530e-03	-3.561630e-01
1.749919e+00	7.565770e-03	-4.190839e-01
1.588913e+00	8.430288e-03	-4.666783e-01
1.469553e+00	9.227430e-03	-4.826674e-01
1.365881e+00	9.936224e-03	-4.962134e-01
1.281347e+00	1.055538e-02	-4.939945e-01
1.206803e+00	1.109395e-02	-4.919494e-01
1.142500e+00	1.152536e-02	-4.819431e-01
1.085249e+00	1.186352e-02	-4.736842e-01
1.032974e+00	1.210172e-02	-4.612297e-01
9.842016e-01	1.226184e-02	-4.504414e-01
9.351560e-01	1.234284e-02	-4.355347e-01
8.883137e-01	1.238681e-02	-4.216231e-01
8.394624e-01	1.239702e-02	-4.033770e-01
7.889768e-01	1.239019e-02	-3.833154e-01
7.407051e-01	1.238152e-02	-3.614711e-01
8.170280e-01	-5.652059e-03	-1.438756e-01
8.351854e-01	-5.640939e-03	-1.485846e-01
8.470021e-01	-5.609432e-03	-1.544589e-01
8.529471e-01	-5.550054e-03	-1.597701e-01
8.496113e-01	-5.453862e-03	-1.655627e-01
8.453666e-01	-5.313564e-03	-1.705750e-01
8.324891e-01	-5.142204e-03	-1.760237e-01
8.184685e-01	-4.922503e-03	-1.802505e-01
7.963060e-01	-4.657575e-03	-1.857226e-01
7.711160e-01	-4.321774e-03	-1.897167e-01
7.348476e-01	-3.930818e-03	-1.957609e-01
6.909780e-01	-3.494524e-03	-1.985828e-01
6.283636e-01	-3.022995e-03	-2.019571e-01
5.476513e-01	-2.602639e-03	-1.953547e-01
4.386715e-01	-2.059316e-03	-1.819909e-01
2.783617e-01	-1.451720e-03	-1.331840e-01
3.928059e-02	-8.423016e-04	-2.348616e-02
-3.024619e-01	-2.227187e-04	2.318984e-01
-7.363374e-01	4.250748e-04	9.831928e-01
-4.759840e-01	1.069727e-03	3.019195e+00
2.936895e+00	1.812951e-03	2.941092e+00
3.055428e+00	2.447706e-03	9.440342e-01
2.584428e+00	3.076106e-03	6.665943e-02
2.209867e+00	3.666877e-03	-1.981773e-01
1.948494e+00	4.236489e-03	-3.587022e-01
1.760871e+00	4.759756e-03	-4.217069e-01
1.597946e+00	5.245488e-03	-4.693314e-01
1.477002e+00	5.789344e-03	-4.851141e-01
1.371967e+00	6.193677e-03	-4.984245e-01
1.286317e+00	6.532104e-03	-4.959107e-01
1.210951e+00	6.813037e-03	-4.936400e-01
1.146321e+00	7.042507e-03	-4.835550e-01
1.088278e+00	7.240018e-03	-4.750059e-01
1.034943e+00	7.382461e-03	-4.621091e-01
9.854727e-01	7.480602e-03	-4.510231e-01
9.358720e-01	7.529079e-03	-4.358681e-01
8.888576e-01	7.552418e-03	-4.218813e-01
8.396026e-01	7.558843e-03	-4.034443e-01
7.887816e-01	7.555000e-03	-3.832206e-01
7.403473e-01	7.550740e-03	-3.612966e-01
8.162893e-01	-3.263275e-03	-1.437456e-01
8.342264e-01	-3.270251e-03	-1.484140e-01
8.457724e-01	-3.250993e-03	-1.542346e-01
8.513772e-01	-3.214525e-03	-1.594760e-01
8.479388e-01	-3.152852e-03	-1.652368e-01
8.435617e-01	-3.100289e-03	-1.702108e-01
8.304233e-01	-2.983197e-03	-1.755869e-01
8.156718e-01	-2.839358e-03	-1.796346e-01
7.928273e-01	-2.655207e-03	-1.849113e-01
7.673745e-01	-2.422917e-03	-1.887962e-01
7.306783e-01	-2.183590e-03	-1.946503e-01
6.862554e-01	-1.957929e-03	-1.972256e-01
6.243675e-01	-1.643872e-03	-2.006727e-01
5.432236e-01	-1.425762e-03	-1.937753e-01
4.313715e-01	-1.061314e-03	-1.789624e-01
2.693120e-01	-6.836500e-04	-1.288541e-01
2.903403e-02	-2.879239e-04	-1.735966e-02
-3.149806e-01	1.070574e-04	2.414965e-01
-7.501293e-01	5.191709e-04	1.001608e+00
-4.817791e-01	9.284756e-04	3.055954e+00
2.962917e+00	1.399563e-03	2.967151e+00
3.076775e+00	1.800703e-03	9.506295e-01
2.599450e+00	2.196447e-03	6.704689e-02
2.220688e+00	2.566336e-03	-1.991476e-01
1.956598e+00	2.916231e-03	-3.601941e-01
1.767187e+00	3.242738e-03	-4.232195e-01
1.604562e+00	3.656327e-03	-4.712746e-01
1.482650e+00	3.906008e-03	-4.869690e-01
1.375553e+00	4.156350e-03	-4.997274e-01
1.289161e+00	4.375142e-03	-4.970073e-01
1.213195e+00	4.540183e-03	-4.945548e-01
1.147951e+00	4.645851e-03	-4.842427e-01
1.089803e+00	4.740409e-03	-4.756716e-01
1.036458e+00	4.815349e-03	-4.627852e-01
9.865970e-01	4.861373e-03	-4.515377e-01
9.365319e-01	4.922897e-03	-4.361755e-01
8.890415e-01	4.931989e-03	-4.219685e-01
8.396005e-01	4.933831e-03	-4.034433e-01
7.886055e-01	4.930494e-03	-3.831350e-01
7.400528e-01	4.941387e-03	-3.611528e-01
8.181988e-01	-2.031912e-03	-1.440818e-01
8.341215e-01	-2.027878e-03	-1.483954e-01
8.450424e-01	-2.017695e-03	-1.541015e-01
8.504330e-01	-1.999094e-03	-1.592992e-01
8.473328e-01	-1.968971e-03	-1.651187e-01
8.423705e-01	-2.012928e-03	-1.699705e-01
8.284566e-01	-1.890704e-03	-1.751710e-01
8.137931e-01	-1.785898e-03	-1.792209e-01
7.906819e-01	-1.686911e-03	-1.844109e-01
7.649258e-01	-1.545842e-03	-1.881938e-01
7.287671e-01	-1.390079e-03	-1.941411e-01
6.838019e-01	-1.220479e-03	-1.965204e-01
6.209205e-01	-1.022373e-03	-1.995649e-01
5.390882e-01	-7.442245e-04	-1.923001e-01
4.265932e-01	-5.083685e-04	-1.769800e-01
2.641247e-01	-3.004174e-04	-1.263722e-01
2.237603e-02	-5.634143e-05	-1.337880e-02
-3.231066e-01	1.665685e-04	2.477268e-01
-7.590268e-01	4.281904e-04	1.013489e+00
-4.855050e-01	6.874347e-04	3.079588e+00
2.979619e+00	9.847797e-04	2.983877e+00
3.090439e+00	1.236056e-03	9.548514e-01
2.609048e+00	1.508379e-03	6.729444e-02
2.227665e+00	1.737838e-03	-1.997733e-01
1.962056e+00	1.958350e-03	-3.611988e-01
1.773664e+00	2.172131e-03	-4.247707e-01
1.607880e+00	2.398655e-03	-4.722490e-01
1.483942e+00	2.471105e-03	-4.873933e-01
1.378079e+00	2.615005e-03	-5.006449e-01
1.291159e+00	2.750720e-03	-4.977773e-01
1.214342e+00	2.863024e-03	-4.950227e-01
1.148876e+00	2.953020e-03	-4.846330e-01
1.090545e+00	3.051211e-03	-4.759954e-01
1.036700e+00	3.116395e-03	-4.628933e-01
9.871750e-01	3.236927e-03	-4.518022e-01
9.372724e-01	3.228376e-03	-4.365203e-01
8.891279e-01	3.222401e-03	-4.220096e-01
8.395871e-01	3.219437e-03	-4.034369e-01
7.889169e-01	3.216186e-03	-3.832863e-01
7.420156e-01	3.213896e-03	-3.621107e-01
8.156124e-01	-1.153537e-03	-1.436264e-01
8.333987e-01	-1.136646e-03	-1.482668e-01
8.447631e-01	-1.128194e-03	-1.540506e-01
8.501321e-01	-1.137212e-03	-1.592428e-01
8.483543e-01	-1.117006e-03	-1.653178e-01
8.420242e-01	-1.065460e-03	-1.699006e-01
8.269451e-01	-1.024016e-03	-1.748514e-01
8.127805e-01	-9.951537e-04	-1.789979e-01
7.895816e-01	-1.001755e-03	-1.841543e-01
7.634778e-01	-9.211026e-04	-1.878375e-01
7.264255e-01	-8.174678e-04	-1.935173e-01
6.813579e-01	-6.617770e-04	-1.958181e-01
6.177801e-01	-5.811210e-04	-1.985555e-01
5.355449e-01	-3.458363e-04	-1.910362e-01
4.241107e-01	-2.549529e-04	-1.759501e-01
2.610325e-01	-1.259793e-04	-1.248927e-01
1.899882e-02	1.217648e-05	-1.135954e-02
-3.272573e-01	1.551301e-04	2.509091e-01
-7.645202e-01	3.055272e-04	1.020824e+00
-4.878003e-01	4.553921e-04	3.094147e+00
2.989771e+00	6.278792e-04	2.994044e+00
3.100000e+00	7.744203e-04	9.578055e-01
2.615451e+00	9.184769e-04	6.745960e-02
2.231824e+00	1.052992e-03	-2.001463e-01
1.965320e+00	1.181396e-03	-3.617998e-01
1.774755e+00	1.301871e-03	-4.250319e-01
1.608981e+00	1.329156e-03	-4.725725e-01
1.485684e+00	1.440202e-03	-4.879655e-01
1.379199e+00	1.547430e-03	-5.010518e-01
1.292291e+00	1.608002e-03	-4.982138e-01
1.215728e+00	1.676293e-03	-4.955876e-01
1.150349e+00	1.821947e-03	-4.852540e-01
1.091994e+00	1.842681e-03	-4.766279e-01
1.039084e+00	1.884541e-03	-4.639581e-01
9.885228e-01	1.896433e-03	-4.524190e-01
9.362579e-01	1.881634e-03	-4.360478e-01
8.888289e-01	1.884632e-03	-4.218677e-01
8.394130e-01	1.906346e-03	-4.033533e-01
7.883327e-01	1.903150e-03	-3.830025e-01
7.397021e-01	1.887547e-03	-3.609817e-01
8.153641e-01	-1.386841e-03	-1.435826e-01
8.329697e-01	-1.386895e-03	-1.481904e-01
8.451717e-01	-1.387542e-03	-1.541251e-01
8.500632e-01	-1.369605e-03	-1.592299e-01
8.458328e-01	-1.327819e-03	-1.648264e-01
8.407801e-01	-1.249906e-03	-1.696496e-01
8.273849e-01	-1.152686e-03	-1.749444e-01
8.134928e-01	-1.214979e-03	-1.791547e-01
7.896616e-01	-9.944464e-04	-1.841730e-01
7.625056e-01	-1.042412e-03	-1.875983e-01
7.253806e-01	-6.841955e-04	-1.932390e-01
6.806290e-01	-7.704198e-04	-1.956086e-01
6.165956e-01	-3.332367e-04	-1.981748e-01
5.341310e-01	-3.951583e-04	-1.905318e-01
4.230509e-01	6.595156e-05	-1.755104e-01
2.592121e-01	4.074733e-04	-1.240217e-01
1.637877e-02	6.049000e-04	-9.792987e-03
-3.306052e-01	6.547291e-04	2.534760e-01
-7.673180e-01	7.032226e-04	1.024560e+00
-4.889911e-01	7.649541e-04	3.101700e+00
2.995242e+00	8.470847e-04	2.999523e+00
3.103201e+00	9.271542e-04	9.587946e-01
2.618005e+00	9.947755e-04	6.752547e-02
2.234170e+00	1.108044e-03	-2.003567e-01
1.967047e+00	1.044322e-03	-3.621177e-01
1.776096e+00	8.632366e-04	-4.253531e-01
1.610038e+00	4.846170e-04	-4.728829e-01
1.486969e+00	6.476599e-04	-4.883876e-01
1.380256e+00	3.322777e-04	-5.014357e-01
1.292786e+00	4.636279e-04	-4.984047e-01
1.217015e+00	1.702999e-04	-4.961123e-01
1.151028e+00	3.222023e-04	-4.855406e-01
1.091370e+00	6.404719e-05	-4.763556e-01
1.037492e+00	1.204946e-04	-4.632470e-01
9.871567e-01	-9.684606e-05	-4.517938e-01
9.370229e-01	-3.891958e-05	-4.364041e-01
8.896370e-01	-5.338053e-05	-4.222512e-01
8.402949e-01	-5.943664e-05	-4.037770e-01
7.882300e-01	-5.440912e-05	-3.829526e-01
7.396261e-01	-5.334216e-05	-3.609446e-01
8.156216e-01	-2.074635e-04	-1.436280e-01
8.334444e-01	-2.355705e-04	-1.482749e-01
8.440714e-01	-1.810888e-04	-1.539244e-01
8.485753e-01	-1.282212e-04	-1.589512e-01
8.458820e-01	-1.055306e-04	-1.648360e-01
8.389853e-01	-8.523091e-05	-1.692874e-01
8.265268e-01	-6.820332e-05	-1.747630e-01
8.104074e-01	-5.142843e-05	-1.784753e-01
7.873251e-01	4.729273e-06	-1.836280e-01
7.593795e-01	4.623998e-06	-1.868292e-01
7.228343e-01	6.262853e-06	-1.925607e-01
6.768159e-01	-1.832367e-05	-1.945127e-01
6.123397e-01	-3.770994e-05	-1.968070e-01
5.299812e-01	-2.716562e-05	-1.890515e-01
4.109068e-01	1.091357e-05	-1.704722e-01
2.508561e-01	-1.578228e-05	-1.200238e-01
1.334654e-02	-6.999201e-06	-7.979997e-03
-3.297864e-01	5.618898e-07	2.528482e-01
-7.674879e-01	6.707278e-06	1.024787e+00
-4.893363e-01	1.172549e-05	3.103890e+00
2.997812e+00	1.686648e-05	3.002096e+00
3.106385e+00	2.103811e-05	9.597784e-01
2.621536e+00	2.506928e-05	6.761655e-02
2.232543e+00	2.848704e-05	-2.002108e-01
1.960189e+00	6.720091e-05	-3.608550e-01
1.764934e+00	7.039084e-05	-4.226800e-01
1.606110e+00	4.469314e-05	-4.717293e-01
1.483358e+00	1.062534e-04	-4.872015e-01
1.376915e+00	1.040817e-04	-5.002220e-01
1.290214e+00	1.042790e-04	-4.974129e-01
1.213930e+00	1.094435e-04	-4.948548e-01
1.149094e+00	8.085445e-05	-4.847246e-01
1.089174e+00	1.017985e-04	-4.753972e-01
1.036966e+00	1.209777e-04	-4.630121e-01
9.856847e-01	1.450410e-04	-4.511201e-01
9.371886e-01	1.707445e-04	-4.364813e-01
8.883367e-01	2.007059e-04	-4.216341e-01
8.393175e-01	2.119536e-04	-4.033074e-01
7.886770e-01	2.904806e-04	-3.831697e-01
7.398655e-01	2.799304e-04	-3.610614e-01
8.200811e-01	1.464388e-03	-1.444133e-01
8.302472e-01	1.464748e-03	-1.477061e-01
8.416165e-01	1.466440e-03	-1.534768e-01
8.482843e-01	1.451091e-03	-1.588967e-01
8.449735e-01	1.412955e-03	-1.646590e-01
8.401408e-01	1.426821e-03	-1.695206e-01
8.268652e-01	1.288905e-03	-1.748345e-01
8.124396e-01	1.351553e-03	-1.789228e-01
7.889207e-01	1.110352e-03	-1.840002e-01
7.624853e-01	1.135275e-03	-1.875933e-01
7.256786e-01	7.862180e-04	-1.933184e-01
6.812170e-01	7.991455e-04	-1.957776e-01
6.167319e-01	3.679299e-04	-1.982186e-01
5.334273e-01	4.582159e-04	-1.902808e-01
4.227973e-01	-3.703614e-05	-1.754052e-01
2.596003e-01	-3.781088e-04	-1.242075e-01
1.602635e-02	-5.759049e-04	-9.582272e-03
-3.309628e-01	-6.016169e-04	2.537502e-01
-7.676325e-01	-6.532907e-04	1.024980e+00
-4.891021e-01	-7.475068e-04	3.102405e+00
2.995697e+00	-8.348343e-04	2.999978e+00
3.103561e+00	-8.906466e-04	9.589057e-01
2.618243e+00	-9.884987e-04	6.753160e-02
2.235317e+00	-1.104372e-03	-2.004595e-01
1.967827e+00	-1.044315e-03	-3.622612e-01
1.775678e+00	-8.344355e-04	-4.252529e-01
1.610645e+00	-4.912088e-04	-4.730613e-01
1.487765e+00	-6.610243e-04	-4.886490e-01
1.380230e+00	-3.566784e-04	-5.014266e-01
1.292854e+00	-4.214660e-04	-4.984309e-01
1.216724e+00	-1.431923e-04	-4.959937e-01
1.150919e+00	-2.448643e-04	-4.854944e-01
1.091905e+00	-2.951016e-05	-4.765893e-01
1.038109e+00	-1.270588e-04	-4.635226e-01
9.879502e-01	-1.571746e-05	-4.521570e-01
9.380486e-01	-4.788211e-05	-4.368818e-01
8.906308e-01	-2.119730e-05	-4.227229e-01
8.426370e-01	-1.204416e-05	-4.049024e-01
7.927546e-01	-1.630485e-05	-3.851508e-01
7.380104e-01	-1.729386e-05	-3.601561e-01
8.155611e-01	1.523164e-03	-1.436173e-01
8.333175e-01	1.548427e-03	-1.482523e-01
8.446327e-01	1.485284e-03	-1.540268e-01
8.499741e-01	1.448438e-03	-1.592132e-01
8.462731e-01	1.312396e-03	-1.649122e-01
8.412950e-01	1.267063e-03	-1.697535e-01
8.275348e-01	1.208135e-03	-1.749761e-01
8.130784e-01	1.133210e-03	-1.790635e-01
7.901712e-01	1.087302e-03	-1.842918e-01
7.636579e-01	9.895918e-04	-1.878818e-01
7.272575e-01	8.839258e-04	-1.937390e-01
6.822772e-01	7.981636e-04	-1.960823e-01
6.173126e-01	7.035648e-04	-1.984053e-01
5.355859e-01	5.414684e-04	-1.910508e-01
4.246961e-01	3.946892e-04	-1.761930e-01
2.610296e-01	2.762288e-04	-1.248914e-01
1.855202e-02	1.166263e-04	-1.109239e-02
-3.279072e-01	-4.455024e-05	2.514074e-01
-7.637013e-01	-2.113470e-04	1.019730e+00
-4.873352e-01	-3.761960e-04	3.091197e+00
2.990975e+00	-5.654371e-04	2.995249e+00
3.099246e+00	-7.263596e-04	9.575727e-01
2.614533e+00	-8.849247e-04	6.743591e-02
2.231666e+00	-1.033004e-03	-2.001321e-01
1.965883e+00	-1.209739e-03	-3.619034e-01
1.774571e+00	-1.340468e-03	-4.249878e-01
1.608363e+00	-1.463009e-03	-4.723909e-01
1.485435e+00	-1.608624e-03	-4.878837e-01
1.379943e+00	-1.709701e-03	-5.013223e-01
1.292935e+00	-1.792274e-03	-4.984621e-01
1.216164e+00	-1.865665e-03	-4.957654e-01
1.150466e+00	-1.965262e-03	-4.853035e-01
1.090875e+00	-2.014114e-03	-4.761396e-01
1.037018e+00	-2.050329e-03	-4.630356e-01
9.871014e-01	-2.091856e-03	-4.517685e-01
9.369860e-01	-2.135762e-03	-4.363870e-01
8.892047e-01	-2.081035e-03	-4.220460e-01
8.395441e-01	-2.124568e-03	-4.034162e-01
7.883826e-01	-2.201466e-03	-3.830267e-01
7.397140e-01	-2.189851e-03	-3.609875e-01
8.158415e-01	2.166945e-03	-1.436667e-01
8.336535e-01	2.162471e-03	-1.483121e-01
8.447712e-01	2.155498e-03	-1.540521e-01
8.528862e-01	2.055637e-03	-1.597587e-01
8.484495e-01	2.022332e-03	-1.653363e-01
8.419523e-01	1.984112e-03	-1.698861e-01
8.289355e-01	1.902629e-03	-1.752723e-01
8.141425e-01	1.805248e-03	-1.792978e-01
7.908693e-01	1.677871e-03	-1.844546e-01
7.651551e-01	1.559541e-03	-1.882502e-01
7.281830e-01	1.391068e-03	-1.939855e-01
6.836206e-01	1.286885e-03	-1.964684e-01
6.202716e-01	1.063376e-03	-1.993563e-01
5.380343e-01	8.520040e-04	-1.919242e-01