# vtk DataFile Version 2.0
OUTPUT by 3D-VPM
ASCII
DATASET UNSTRUCTURED_GRID
POINTS 820 double
9.510565e-01	0.000000e+00	-3.090170e-01
9.442611e-01	0.000000e+00	-3.078203e-01
9.267277e-01	0.000000e+00	-3.047010e-01
8.963175e-01	0.000000e+00	-2.991555e-01
8.562911e-01	0.000000e+00	-2.916579e-01
8.054250e-01	0.000000e+00	-2.817457e-01
7.470317e-01	0.000000e+00	-2.699633e-01
6.809074e-01	0.000000e+00	-2.559818e-01
6.100852e-01	0.000000e+00	-2.403847e-01
5.354138e-01	0.000000e+00	-2.229691e-01
4.593635e-01	0.000000e+00	-2.042585e-01
3.837764e-01	0.000000e+00	-1.841224e-01
3.103069e-01	0.000000e+00	-1.630077e-01
2.415927e-01	0.000000e+00	-1.409228e-01
1.782654e-01	0.000000e+00	-1.183331e-01
1.234349e-01	0.000000e+00	-9.558566e-02
7.662509e-02	0.000000e+00	-7.318920e-02
4.106998e-02	0.000000e+00	-5.193053e-02
1.528206e-02	0.000000e+00	-3.215886e-02
2.347037e-03	0.000000e+00	-1.488740e-02
0.000000e+00	0.000000e+00	0.000000e+00
1.064939e-02	0.000000e+00	1.066461e-02
3.126595e-02	0.000000e+00	1.703450e-02
6.375031e-02	0.000000e+00	1.787236e-02
1.050105e-01	0.000000e+00	1.417221e-02
1.560448e-01	0.000000e+00	4.777214e-03
2.137742e-01	0.000000e+00	-9.048270e-03
2.782849e-01	0.000000e+00	-2.799567e-02
3.468570e-01	0.000000e+00	-5.051783e-02
4.187060e-01	0.000000e+00	-7.662000e-02
4.916930e-01	0.000000e+00	-1.047585e-01
5.642168e-01	0.000000e+00	-1.343226e-01
6.348639e-01	0.000000e+00	-1.641238e-01
7.013280e-01	0.000000e+00	-1.931337e-01
7.630418e-01	0.000000e+00	-2.206893e-01
8.172084e-01	0.000000e+00	-2.454799e-01
8.641863e-01	0.000000e+00	-2.673591e-01
9.009752e-01	0.000000e+00	-2.848204e-01
9.288372e-01	0.000000e+00	-2.982085e-01
9.448555e-01	0.000000e+00	-3.059908e-01
9.510565e-01	0.000000e+00	-3.090170e-01
9.510565e-01	1.052632e+00	-3.090170e-01
9.442611e-01	1.052632e+00	-3.078203e-01
9.267277e-01	1.052632e+00	-3.047010e-01
8.963175e-01	1.052632e+00	-2.991555e-01
8.562911e-01	1.052632e+00	-2.916579e-01
8.054250e-01	1.052632e+00	-2.817457e-01
7.470317e-01	1.052632e+00	-2.699633e-01
6.809074e-01	1.052632e+00	-2.559818e-01
6.100852e-01	1.052632e+00	-2.403847e-01
5.354138e-01	1.052632e+00	-2.229691e-01
4.593635e-01	1.052632e+00	-2.042585e-01
3.837764e-01	1.052632e+00	-1.841224e-01
3.103069e-01	1.052632e+00	-1.630077e-01
2.415927e-01	1.052632e+00	-1.409228e-01
1.782654e-01	1.052632e+00	-1.183331e-01
1.234349e-01	1.052632e+00	-9.558566e-02
7.662509e-02	1.052632e+00	-7.318920e-02
4.106998e-02	1.052632e+00	-5.193053e-02
1.528206e-02	1.052632e+00	-3.215886e-02
2.347037e-03	1.052632e+00	-1.488740e-02
0.000000e+00	1.052632e+00	0.000000e+00
1.064939e-02	1.052632e+00	1.066461e-02
3.126595e-02	1.052632e+00	1.703450e-02
6.375031e-02	1.052632e+00	1.787236e-02
1.050105e-01	1.052632e+00	1.417221e-02
1.560448e-01	1.052632e+00	4.777214e-03
2.137742e-01	1.052632e+00	-9.048270e-03
2.782849e-01	1.052632e+00	-2.799567e-02
3.468570e-01	1.052632e+00	-5.051783e-02
4.187060e-01	1.052632e+00	-7.662000e-02
4.916930e-01	1.052632e+00	-1.047585e-01
5.642168e-01	1.052632e+00	-1.343226e-01
6.348639e-01	1.052632e+00	-1.641238e-01
7.013280e-01	1.052632e+00	-1.931337e-01
7.630418e-01	1.052632e+00	-2.206893e-01
8.172084e-01	1.052632e+00	-2.454799e-01
8.641863e-01	1.052632e+00	-2.673591e-01
9.009752e-01	1.052632e+00	-2.848204e-01
9.288372e-01	1.052632e+00	-2.982085e-01
9.448555e-01	1.052632e+00	-3.059908e-01
9.510565e-01	1.052632e+00	-3.090170e-01
9.510565e-01	2.105263e+00	-3.090170e-01
9.442611e-01	2.105263e+00	-3.078203e-01
9.267277e-01	2.105263e+00	-3.047010e-01
8.963175e-01	2.105263e+00	-2.991555e-01
8.562911e-01	2.105263e+00	-2.916579e-01
8.054250e-01	2.105263e+00	-2.817457e-01
7.470317e-01	2.105263e+00	-2.699633e-01
6.809074e-01	2.105263e+00	-2.559818e-01
6.100852e-01	2.105263e+00	-2.403847e-01
5.354138e-01	2.105263e+00	-2.229691e-01
4.593635e-01	2.105263e+00	-2.042585e-01
3.837764e-01	2.105263e+00	-1.841224e-01
3.103069e-01	2.105263e+00	-1.630077e-01
2.415927e-01	2.105263e+00	-1.409228e-01
1.782654e-01	2.105263e+00	-1.183331e-01
1.234349e-01	2.105263e+00	-9.558566e-02
7.662509e-02	2.105263e+00	-7.318920e-02
4.106998e-02	2.105263e+00	-5.193053e-02
1.528206e-02	2.105263e+00	-3.215886e-02
2.347037e-03	2.105263e+00	-1.488740e-02
0.000000e+00	2.105263e+00	0.000000e+00
1.064939e-02	2.105263e+00	1.066461e-02
3.126595e-02	2.105263e+00	1.703450e-02
6.375031e-02	2.105263e+00	1.787236e-02
1.050105e-01	2.105263e+00	1.417221e-02
1.560448e-01	2.105263e+00	4.777214e-03
2.137742e-01	2.105263e+00	-9.048270e-03
2.782849e-01	2.105263e+00	-2.799567e-02
3.468570e-01	2.105263e+00	-5.051783e-02
4.187060e-01	2.105263e+00	-7.662000e-02
4.916930e-01	2.105263e+00	-1.047585e-01
5.642168e-01	2.105263e+00	-1.343226e-01
6.348639e-01	2.105263e+00	-1.641238e-01
7.013280e-01	2.105263e+00	-1.931337e-01
7.630418e-01	2.105263e+00	-2.206893e-01
8.172084e-01	2.105263e+00	-2.454799e-01
8.641863e-01	2.105263e+00	-2.673591e-01
9.009752e-01	2.105263e+00	-2.848204e-01
9.288372e-01	2.105263e+00	-2.982085e-01
9.448555e-01	2.105263e+00	-3.059908e-01
9.510565e-01	2.105263e+00	-3.090170e-01
9.510565e-01	3.157895e+00	-3.090170e-01
9.442611e-01	3.157895e+00	-3.078203e-01
9.267277e-01	3.157895e+00	-3.047010e-01
8.963175e-01	3.157895e+00	-2.991555e-01
8.562911e-01	3.157895e+00	-2.916579e-01
8.054250e-01	3.157895e+00	-2.817457e-01
7.470317e-01	3.157895e+00	-2.699633e-01
6.809074e-01	3.157895e+00	-2.559818e-01
6.100852e-01	3.157895e+00	-2.403847e-01
5.354138e-01	3.157895e+00	-2.229691e-01
4.593635e-01	3.157895e+00	-2.042585e-01
3.837764e-01	3.157895e+00	-1.841224e-01
3.103069e-01	3.157895e+00	-1.630077e-01
2.415927e-01	3.157895e+00	-1.409228e-01
1.782654e-01	3.157895e+00	-1.183331e-01
1.234349e-01	3.157895e+00	-9.558566e-02
7.662509e-02	3.157895e+00	-7.318920e-02
4.106998e-02	3.157895e+00	-5.193053e-02
1.528206e-02	3.157895e+00	-3.215886e-02
2.347037e-03	3.157895e+00	-1.488740e-02
0.000000e+00	3.157895e+00	0.000000e+00
1.064939e-02	3.157895e+00	1.066461e-02
3.126595e-02	3.157895e+00	1.703450e-02
6.375031e-02	3.157895e+00	1.787236e-02
1.050105e-01	3.157895e+00	1.417221e-02
1.560448e-01	3.157895e+00	4.777214e-03
2.137742e-01	3.157895e+00	-9.048270e-03
2.782849e-01	3.157895e+00	-2.799567e-02
3.468570e-01	3.157895e+00	-5.051783e-02
4.187060e-01	3.157895e+00	-7.662000e-02
4.916930e-01	3.157895e+00	-1.047585e-01
5.642168e-01	3.157895e+00	-1.343226e-01
6.348639e-01	3.157895e+00	-1.641238e-01
7.013280e-01	3.157895e+00	-1.931337e-01
7.630418e-01	3.157895e+00	-2.206893e-01
8.172084e-01	3.157895e+00	-2.454799e-01
8.641863e-01	3.157895e+00	-2.673591e-01
9.009752e-01	3.157895e+00	-2.848204e-01
9.288372e-01	3.157895e+00	-2.982085e-01
9.448555e-01	3.157895e+00	-3.059908e-01
9.510565e-01	3.157895e+00	-3.090170e-01
9.510565e-01	4.210526e+00	-3.090170e-01
9.442611e-01	4.210526e+00	-3.078203e-01
9.267277e-01	4.210526e+00	-3.047010e-01
8.963175e-01	4.210526e+00	-2.991555e-01
8.562911e-01	4.210526e+00	-2.916579e-01
8.054250e-01	4.210526e+00	-2.817457e-01
7.470317e-01	4.210526e+00	-2.699633e-01
6.809074e-01	4.210526e+00	-2.559818e-01
6.100852e-01	4.210526e+00	-2.403847e-01
5.354138e-01	4.210526e+00	-2.229691e-01
4.593635e-01	4.210526e+00	-2.042585e-01
3.837764e-01	4.210526e+00	-1.841224e-01
3.103069e-01	4.210526e+00	-1.630077e-01
2.415927e-01	4.210526e+00	-1.409228e-01
1.782654e-01	4.210526e+00	-1.183331e-01
1.234349e-01	4.210526e+00	-9.558566e-02
7.662509e-02	4.210526e+00	-7.318920e-02
4.106998e-02	4.210526e+00	-5.193053e-02
1.528206e-02	4.210526e+00	-3.215886e-02
2.347037e-03	4.210526e+00	-1.488740e-02
0.000000e+00	4.210526e+00	0.000000e+00
1.064939e-02	4.210526e+00	1.066461e-02
3.126595e-02	4.210526e+00	1.703450e-02
6.375031e-02	4.210526e+00	1.787236e-02
1.050105e-01	4.210526e+00	1.417221e-02
1.560448e-01	4.210526e+00	4.777214e-03
2.137742e-01	4.210526e+00	-9.048270e-03
2.782849e-01	4.210526e+00	-2.799567e-02
3.468570e-01	4.210526e+00	-5.051783e-02
4.187060e-01	4.210526e+00	-7.662000e-02
4.916930e-01	4.210526e+00	-1.047585e-01
5.642168e-01	4.210526e+00	-1.343226e-01
6.348639e-01	4.210526e+00	-1.641238e-01
7.013280e-01	4.210526e+00	-1.931337e-01
7.630418e-01	4.210526e+00	-2.206893e-01
8.172084e-01	4.210526e+00	-2.454799e-01
8.641863e-01	4.210526e+00	-2.673591e-01
9.009752e-01	4.210526e+00	-2.848204e-01
9.288372e-01	4.210526e+00	-2.982085e-01
9.448555e-01	4.210526e+00	-3.059908e-01
9.510565e-01	4.210526e+00	-3.090170e-01
9.510565e-01	5.263158e+00	-3.090170e-01
9.442611e-01	5.263158e+00	-3.078203e-01
9.267277e-01	5.263158e+00	-3.047010e-01
8.963175e-01	5.263158e+00	-2.991555e-01
8.562911e-01	5.263158e+00	-2.916579e-01
8.054250e-01	5.263158e+00	-2.817457e-01
7.470317e-01	5.263158e+00	-2.699633e-01
6.809074e-01	5.263158e+00	-2.559818e-01
6.100852e-01	5.263158e+00	-2.403847e-01
5.354138e-01	5.263158e+00	-2.229691e-01
4.593635e-01	5.263158e+00	-2.042585e-01
3.837764e-01	5.263158e+00	-1.841224e-01
3.103069e-01	5.263158e+00	-1.630077e-01
2.415927e-01	5.263158e+00	-1.409228e-01
1.782654e-01	5.263158e+00	-1.183331e-01
1.234349e-01	5.263158e+00	-9.558566e-02
7.662509e-02	5.263158e+00	-7.318920e-02
4.106998e-02	5.263158e+00	-5.193053e-02
1.528206e-02	5.263158e+00	-3.215886e-02
2.347037e-03	5.263158e+00	-1.488740e-02
0.000000e+00	5.263158e+00	0.000000e+00
1.064939e-02	5.263158e+00	1.066461e-02
3.126595e-02	5.263158e+00	1.703450e-02
6.375031e-02	5.263158e+00	1.787236e-02
1.050105e-01	5.263158e+00	1.417221e-02
1.560448e-01	5.263158e+00	4.777214e-03
2.137742e-01	5.263158e+00	-9.048270e-03
2.782849e-01	5.263158e+00	-2.799567e-02
3.468570e-01	5.263158e+00	-5.051783e-02
4.187060e-01	5.263158e+00	-7.662000e-02
4.916930e-01	5.263158e+00	-1.047585e-01
5.642168e-01	5.263158e+00	-1.343226e-01
6.348639e-01	5.263158e+00	-1.641238e-01
7.013280e-01	5.263158e+00	-1.931337e-01
7.630418e-01	5.263158e+00	-2.206893e-01
8.172084e-01	5.263158e+00	-2.454799e-01
8.641863e-01	5.263158e+00	-2.673591e-01
9.009752e-01	5.263158e+00	-2.848204e-01
9.288372e-01	5.263158e+00	-2.982085e-01
9.448555e-01	5.263158e+00	-3.059908e-01
9.510565e-01	5.263158e+00	-3.090170e-01
9.510565e-01	6.315789e+00	-3.090170e-01
9.442611e-01	6.315789e+00	-3.078203e-01
[...]
CELL_DATA 760
VECTORS V double
8.414624e-01	-6.898074e-02	-1.481785e-01
8.655942e-01	-6.880729e-02	-1.539946e-01
8.836236e-01	-6.835790e-02	-1.611372e-01
8.954066e-01	-6.756415e-02	-1.677234e-01
8.978904e-01	-6.640416e-02	-1.749708e-01
8.992231e-01	-6.486028e-02	-1.814420e-01
8.922065e-01	-6.292223e-02	-1.886505e-01
8.849183e-01	-6.056604e-02	-1.948847e-01
8.706081e-01	-5.776329e-02	-2.030521e-01
8.549424e-01	-5.448158e-02	-2.103404e-01
8.297304e-01	-5.069208e-02	-2.210374e-01
7.989034e-01	-4.639120e-02	-2.295999e-01
7.515364e-01	-4.160112e-02	-2.415450e-01
6.895679e-01	-3.637648e-02	-2.459783e-01
6.029856e-01	-3.075517e-02	-2.501597e-01
4.724010e-01	-2.485981e-02	-2.260234e-01
2.708063e-01	-1.869830e-02	-1.619171e-01
-1.660219e-02	-1.243654e-02	1.272895e-02
-4.209009e-01	-5.875981e-03	5.620070e-01
-3.423148e-01	6.975711e-04	2.171324e+00
2.325363e+00	8.402720e-03	2.328686e+00
2.540358e+00	1.516068e-02	7.848931e-01
2.209629e+00	2.210012e-02	5.699235e-02
1.924869e+00	2.894102e-02	-1.726191e-01
1.719696e+00	3.592414e-02	-3.165822e-01
1.570030e+00	4.288449e-02	-3.760028e-01
1.435262e+00	4.981629e-02	-4.215497e-01
1.336506e+00	5.654106e-02	-4.389689e-01
1.250466e+00	6.294060e-02	-4.542842e-01
1.181574e+00	6.881736e-02	-4.555294e-01
1.121780e+00	7.405595e-02	-4.572900e-01
1.071548e+00	7.851933e-02	-4.520133e-01
1.027425e+00	8.214535e-02	-4.484453e-01
9.871656e-01	8.492649e-02	-4.407760e-01
9.499575e-01	8.691417e-02	-4.347688e-01
9.115170e-01	8.820634e-02	-4.245251e-01
8.743601e-01	8.893122e-02	-4.150003e-01
8.341942e-01	8.923776e-02	-4.008455e-01
7.910725e-01	8.928143e-02	-3.843336e-01
7.483262e-01	8.923571e-02	-3.651903e-01
8.269072e-01	-4.831592e-02	-1.456153e-01
8.474102e-01	-4.819174e-02	-1.507595e-01
8.618907e-01	-4.787353e-02	-1.571740e-01
8.705965e-01	-4.731026e-02	-1.630761e-01
8.703689e-01	-4.647931e-02	-1.696078e-01
8.690074e-01	-4.536185e-02	-1.753452e-01
8.590328e-01	-4.394725e-02	-1.816361e-01
8.481904e-01	-4.222057e-02	-1.867962e-01
8.295506e-01	-4.016704e-02	-1.934763e-01
8.085226e-01	-3.777156e-02	-1.989198e-01
7.768621e-01	-3.500913e-02	-2.069535e-01
7.383330e-01	-3.191553e-02	-2.121924e-01
6.819988e-01	-2.848262e-02	-2.191955e-01
6.090173e-01	-2.476091e-02	-2.172448e-01
5.093022e-01	-2.077628e-02	-2.112934e-01
3.614138e-01	-1.661166e-02	-1.729209e-01
1.381467e-01	-1.226877e-02	-8.259891e-02
-1.805384e-01	-7.860927e-03	1.384193e-01
-6.021346e-01	-3.248298e-03	8.039989e-01
-4.193994e-01	1.366433e-03	2.660276e+00
2.680510e+00	6.761101e-03	2.684341e+00
2.842485e+00	1.147242e-02	8.782411e-01
2.432142e+00	1.628183e-02	6.273156e-02
2.096539e+00	2.098659e-02	-1.880142e-01
1.859886e+00	2.574533e-02	-3.423901e-01
1.689179e+00	3.043847e-02	-4.045375e-01
1.538689e+00	3.506019e-02	-4.519272e-01
1.427501e+00	3.949245e-02	-4.688557e-01
1.330473e+00	4.366350e-02	-4.833501e-01
1.251713e+00	4.746713e-02	-4.825701e-01
1.182519e+00	5.078766e-02	-4.820500e-01
1.123217e+00	5.360149e-02	-4.738091e-01
1.070293e+00	5.585800e-02	-4.671562e-01
1.021663e+00	5.756154e-02	-4.561791e-01
9.765307e-01	5.875331e-02	-4.469306e-01
9.307192e-01	5.950408e-02	-4.334683e-01
8.867251e-01	5.990218e-02	-4.208691e-01
8.402841e-01	6.004828e-02	-4.037718e-01
7.917057e-01	6.004458e-02	-3.846412e-01
7.448252e-01	6.000130e-02	-3.634818e-01
8.206213e-01	-2.041345e-02	-1.445084e-01
8.397958e-01	-2.036175e-02	-1.494049e-01
8.527975e-01	-2.023092e-02	-1.555157e-01
8.599766e-01	-1.999551e-02	-1.610868e-01
8.582079e-01	-1.963715e-02	-1.672380e-01
8.552654e-01	-1.913984e-02	-1.725724e-01
8.436682e-01	-1.849370e-02	-1.783874e-01
8.310936e-01	-1.769328e-02	-1.830310e-01
8.105669e-01	-1.671172e-02	-1.890487e-01
7.872232e-01	-1.559848e-02	-1.936796e-01
7.531924e-01	-1.432781e-02	-2.006479e-01
7.119319e-01	-1.291380e-02	-2.046048e-01
6.521701e-01	-1.135907e-02	-2.096085e-01
5.750874e-01	-9.693529e-03	-2.051415e-01
4.703893e-01	-7.927338e-03	-1.951496e-01
3.157571e-01	-6.092972e-03	-1.510761e-01
8.390593e-02	-4.187139e-03	-5.016798e-02
-2.472819e-01	-2.257734e-03	1.895917e-01
-6.755918e-01	-2.439424e-04	9.020825e-01
-4.504133e-01	1.762411e-03	2.856999e+00
2.821488e+00	4.089272e-03	2.825520e+00
2.960107e+00	6.095311e-03	9.145829e-01
2.516692e+00	8.106853e-03	6.491234e-02
2.159784e+00	1.002885e-02	-1.936858e-01
1.909668e+00	1.191753e-02	-3.515547e-01
1.729754e+00	1.371940e-02	-4.142547e-01
1.572363e+00	1.542993e-02	-4.618176e-01
1.455784e+00	1.700861e-02	-4.781450e-01
1.354404e+00	1.843811e-02	-4.920440e-01
1.271477e+00	1.970324e-02	-4.901896e-01
1.198589e+00	2.076213e-02	-4.886009e-01
1.136327e+00	2.162658e-02	-4.793393e-01
1.080429e+00	2.226280e-02	-4.715801e-01
1.029075e+00	2.273376e-02	-4.594889e-01
9.814649e-01	2.303553e-02	-4.491889e-01
9.334420e-01	2.319999e-02	-4.347364e-01
8.874990e-01	2.326221e-02	-4.212364e-01
8.393955e-01	2.326034e-02	-4.033448e-01
7.894865e-01	2.322926e-02	-3.835630e-01
7.416974e-01	2.320256e-02	-3.619554e-01
8.182291e-01	-1.023620e-02	-1.440872e-01
8.367810e-01	-1.021531e-02	-1.488685e-01
8.490654e-01	-1.015956e-02	-1.548352e-01
8.554795e-01	-1.005494e-02	-1.602444e-01
8.529175e-01	-9.903185e-03	-1.662070e-01
8.491399e-01	-9.640612e-03	-1.713364e-01
8.366732e-01	-9.325991e-03	-1.769084e-01
8.228055e-01	-8.927277e-03	-1.812057e-01
8.012880e-01	-8.453193e-03	-1.868846e-01
7.772246e-01	-7.888624e-03	-1.912196e-01
7.417727e-01	-7.248212e-03	-1.976058e-01
6.987682e-01	-6.510836e-03	-2.008217e-01
6.372658e-01	-5.705711e-03	-2.048183e-01
5.580259e-01	-4.830877e-03	-1.990554e-01
4.507056e-01	-3.897586e-03	-1.869835e-01
2.925365e-01	-2.927228e-03	-1.399660e-01
5.622054e-02	-1.909746e-03	-3.361468e-02
-2.813986e-01	-8.900494e-04	2.157491e-01
-7.131447e-01	1.898605e-04	9.522248e-01
-4.662297e-01	1.264399e-03	2.957323e+00
2.892978e+00	2.505705e-03	2.897113e+00
3.019288e+00	3.568909e-03	9.328681e-01
2.558854e+00	4.640368e-03	6.599981e-02
2.190973e+00	5.641272e-03	-1.964829e-01
1.933954e+00	6.618678e-03	-3.560254e-01
1.749336e+00	7.536872e-03	-4.189443e-01
1.588450e+00	8.399682e-03	-4.665425e-01
1.469181e+00	9.188303e-03	-4.825453e-01
1.365583e+00	9.903508e-03	-4.961053e-01
1.281038e+00	1.052025e-02	-4.938754e-01
1.206603e+00	1.106051e-02	-4.918679e-01
1.142405e+00	1.149242e-02	-4.819032e-01
1.085117e+00	1.183174e-02	-4.736263e-01
1.032870e+00	1.207169e-02	-4.611835e-01
9.841260e-01	1.223493e-02	-4.504068e-01
9.351011e-01	1.232124e-02	-4.355091e-01
8.882873e-01	1.236215e-02	-4.216106e-01
8.394507e-01	1.237073e-02	-4.033714e-01
7.889466e-01	1.236354e-02	-3.833007e-01
7.407357e-01	1.235482e-02	-3.614861e-01
8.171157e-01	-5.657692e-03	-1.438911e-01
8.353060e-01	-5.646520e-03	-1.486061e-01
8.471619e-01	-5.615663e-03	-1.544880e-01
8.534682e-01	-5.555912e-03	-1.598677e-01
8.496769e-01	-5.458800e-03	-1.655755e-01
8.452629e-01	-5.334440e-03	-1.705541e-01
8.326361e-01	-5.147004e-03	-1.760547e-01
8.186663e-01	-4.928450e-03	-1.802941e-01
7.965471e-01	-4.664022e-03	-1.857789e-01
7.714035e-01	-4.322773e-03	-1.897875e-01
7.351863e-01	-3.937733e-03	-1.958512e-01
6.913734e-01	-3.501355e-03	-1.986964e-01
6.288389e-01	-3.029333e-03	-2.021098e-01
5.482247e-01	-2.608513e-03	-1.955592e-01
4.394098e-01	-2.043031e-03	-1.822972e-01
2.791650e-01	-1.460747e-03	-1.335684e-01
4.036331e-02	-8.540354e-04	-2.413352e-02
-3.009232e-01	-2.365626e-04	2.307187e-01
-7.350914e-01	3.955554e-04	9.815292e-01
-4.754500e-01	1.038959e-03	3.015808e+00
2.934427e+00	1.779689e-03	2.938620e+00
3.054096e+00	2.425968e-03	9.436227e-01
2.583329e+00	3.050440e-03	6.663107e-02
2.208791e+00	3.637437e-03	-1.980808e-01
1.947686e+00	4.203409e-03	-3.585535e-01
1.760247e+00	4.705096e-03	-4.215574e-01
1.597341e+00	5.209503e-03	-4.691538e-01
1.476621e+00	5.753256e-03	-4.849888e-01
1.371754e+00	6.157188e-03	-4.983472e-01
1.286078e+00	6.495265e-03	-4.958187e-01
1.210763e+00	6.781253e-03	-4.935637e-01
1.146182e+00	7.005352e-03	-4.834965e-01
1.088190e+00	7.203100e-03	-4.749676e-01
1.034915e+00	7.346485e-03	-4.620964e-01
9.855340e-01	7.428669e-03	-4.510511e-01
9.358806e-01	7.492693e-03	-4.358721e-01
8.887212e-01	7.515010e-03	-4.218166e-01
8.395292e-01	7.520983e-03	-4.034091e-01
7.887685e-01	7.517802e-03	-3.832142e-01
7.403629e-01	7.513491e-03	-3.613041e-01
8.163543e-01	-3.269193e-03	-1.437570e-01
8.343092e-01	-3.261999e-03	-1.484287e-01
8.458734e-01	-3.242480e-03	-1.542530e-01
8.514704e-01	-3.203244e-03	-1.594935e-01
8.484167e-01	-3.149800e-03	-1.653300e-01
8.436968e-01	-3.089275e-03	-1.702381e-01
8.304068e-01	-2.975881e-03	-1.755834e-01
8.159267e-01	-2.833226e-03	-1.796908e-01
7.931063e-01	-2.649058e-03	-1.849764e-01
7.676895e-01	-2.416453e-03	-1.888737e-01
7.310372e-01	-2.174097e-03	-1.947459e-01
6.866599e-01	-1.942923e-03	-1.973418e-01
6.248269e-01	-1.624827e-03	-2.008204e-01
5.434539e-01	-1.404499e-03	-1.938574e-01
4.320213e-01	-1.047292e-03	-1.792320e-01
2.706434e-01	-6.746091e-04	-1.294911e-01
3.007826e-02	-2.907000e-04	-1.798402e-02
-3.134108e-01	1.123969e-04	2.402930e-01
-7.482891e-01	4.981267e-04	9.991514e-01
-4.811982e-01	9.040258e-04	3.052269e+00
2.961064e+00	1.370159e-03	2.965295e+00
3.074999e+00	1.789352e-03	9.500809e-01
2.597828e+00	2.165842e-03	6.700506e-02
2.219514e+00	2.531297e-03	-1.990424e-01
1.955311e+00	2.877084e-03	-3.599572e-01
1.766599e+00	3.200114e-03	-4.230786e-01
1.604367e+00	3.492094e-03	-4.712174e-01
1.482271e+00	3.865922e-03	-4.868445e-01
1.375246e+00	4.084441e-03	-4.996157e-01
1.288912e+00	4.327724e-03	-4.969113e-01
1.212991e+00	4.493655e-03	-4.944720e-01
1.147790e+00	4.600583e-03	-4.841747e-01
1.089686e+00	4.694695e-03	-4.756205e-01
1.036150e+00	4.768592e-03	-4.626481e-01
9.864816e-01	4.813551e-03	-4.514849e-01
9.367749e-01	4.846930e-03	-4.362886e-01
8.889797e-01	4.881081e-03	-4.219392e-01
8.395887e-01	4.883011e-03	-4.034377e-01
7.886148e-01	4.880321e-03	-3.831395e-01
7.400754e-01	4.877242e-03	-3.611639e-01
8.159084e-01	-2.045236e-03	-1.436785e-01
8.337380e-01	-2.041256e-03	-1.483271e-01
8.450858e-01	-2.031246e-03	-1.541094e-01
8.511244e-01	-2.013069e-03	-1.594287e-01
8.473737e-01	-1.984569e-03	-1.651267e-01
8.422066e-01	-2.011635e-03	-1.699374e-01
8.286768e-01	-1.932953e-03	-1.752176e-01
8.140069e-01	-1.829661e-03	-1.792680e-01
7.909184e-01	-1.702352e-03	-1.844661e-01
7.651692e-01	-1.560201e-03	-1.882536e-01
7.289942e-01	-1.403264e-03	-1.942016e-01
6.840694e-01	-1.232534e-03	-1.965973e-01
6.213080e-01	-1.033624e-03	-1.996894e-01
5.397295e-01	-7.546989e-04	-1.925289e-01
4.275331e-01	-5.427544e-04	-1.773700e-01
2.652268e-01	-3.111430e-04	-1.268995e-01
2.358740e-02	-9.428247e-05	-1.410308e-02
-3.212412e-01	1.562909e-04	2.462965e-01
-7.568288e-01	4.286907e-04	1.010554e+00
-4.848825e-01	6.844497e-04	3.075639e+00
2.978002e+00	9.797496e-04	2.982258e+00
3.088718e+00	1.216843e-03	9.543197e-01
2.607259e+00	1.465117e-03	6.724831e-02
2.226378e+00	1.692368e-03	-1.996579e-01
1.961097e+00	1.941971e-03	-3.610222e-01
1.770764e+00	2.174216e-03	-4.240760e-01
1.607494e+00	2.351469e-03	-4.721357e-01
1.484772e+00	2.450653e-03	-4.876661e-01
1.377785e+00	2.594791e-03	-5.005382e-01
1.291239e+00	2.731235e-03	-4.978081e-01
1.214182e+00	2.845329e-03	-4.949574e-01
1.148749e+00	2.939266e-03	-4.845790e-01
1.090437e+00	3.042706e-03	-4.759485e-01
1.036641e+00	3.076265e-03	-4.628671e-01
9.867980e-01	3.235367e-03	-4.516297e-01
9.371325e-01	3.207968e-03	-4.364552e-01
8.896374e-01	3.202359e-03	-4.222514e-01
8.395329e-01	3.199176e-03	-4.034108e-01
7.885057e-01	3.195835e-03	-3.830865e-01
7.398913e-01	3.193535e-03	-3.610740e-01
8.156865e-01	-1.152728e-03	-1.436394e-01
8.334951e-01	-1.168504e-03	-1.482839e-01
8.448855e-01	-1.161656e-03	-1.540729e-01
8.502799e-01	-1.151520e-03	-1.592705e-01
8.484911e-01	-1.113323e-03	-1.653445e-01
8.426873e-01	-1.087454e-03	-1.700344e-01
8.275901e-01	-1.077160e-03	-1.749878e-01
8.126414e-01	-1.015681e-03	-1.789673e-01
7.894714e-01	-1.022430e-03	-1.841286e-01
7.637632e-01	-9.420190e-04	-1.879077e-01
7.267542e-01	-8.406178e-04	-1.936049e-01
6.817365e-01	-7.218624e-04	-1.959269e-01
6.182175e-01	-6.163948e-04	-1.986961e-01
5.361016e-01	-3.864891e-04	-1.912348e-01
4.248146e-01	-2.897942e-04	-1.762421e-01
2.623466e-01	-1.538720e-04	-1.255215e-01
2.016985e-02	-1.123972e-05	-1.205970e-02
-3.267437e-01	1.337315e-04	2.505154e-01
-7.629619e-01	3.064559e-04	1.018743e+00
-4.871560e-01	4.560131e-04	3.090060e+00
2.987006e+00	6.298546e-04	2.991275e+00
3.096453e+00	7.561036e-04	9.567097e-01
2.613093e+00	9.038672e-04	6.739879e-02
2.231408e+00	1.041878e-03	-2.001090e-01
1.964971e+00	1.173620e-03	-3.617355e-01
1.773563e+00	1.296886e-03	-4.247465e-01
1.608500e+00	1.444654e-03	-4.724313e-01
1.485668e+00	1.439598e-03	-4.879602e-01
1.378904e+00	1.539276e-03	-5.009447e-01
1.292074e+00	1.605007e-03	-4.981300e-01
1.215596e+00	1.670468e-03	-4.955339e-01
1.150304e+00	1.815166e-03	-4.852352e-01
1.091541e+00	1.839622e-03	-4.764301e-01
1.038828e+00	1.885616e-03	-4.638437e-01
9.887831e-01	1.890454e-03	-4.525382e-01
9.361250e-01	1.894728e-03	-4.359860e-01
8.887722e-01	1.875948e-03	-4.218408e-01
8.393911e-01	1.876669e-03	-4.033427e-01
7.883361e-01	1.874398e-03	-3.830041e-01
7.397232e-01	1.891333e-03	-3.609920e-01
8.185562e-01	-1.351641e-03	-1.441447e-01
8.338160e-01	-1.351623e-03	-1.483410e-01
8.445010e-01	-1.352066e-03	-1.540028e-01
8.498368e-01	-1.333688e-03	-1.591875e-01
8.461093e-01	-1.289541e-03	-1.648803e-01
8.416014e-01	-1.236674e-03	-1.698153e-01
8.275350e-01	-1.116396e-03	-1.749761e-01
8.132602e-01	-1.149117e-03	-1.791035e-01
7.899034e-01	-9.614780e-04	-1.842294e-01
7.627816e-01	-1.012763e-03	-1.876662e-01
7.261172e-01	-6.567445e-04	-1.934352e-01
6.810748e-01	-7.458145e-04	-1.957367e-01
6.166995e-01	-3.138997e-04	-1.982082e-01
5.347739e-01	-4.136620e-04	-1.907611e-01
4.237840e-01	7.670696e-05	-1.758146e-01
2.600993e-01	4.105840e-04	-1.244463e-01
1.744521e-02	6.288028e-04	-1.043062e-02
-3.292809e-01	6.450468e-04	2.524606e-01
-7.658556e-01	6.908089e-04	1.022607e+00
-4.883769e-01	7.500347e-04	3.097804e+00
2.992496e+00	8.284839e-04	2.996772e+00
3.100967e+00	9.041527e-04	9.581043e-01
2.616448e+00	9.926547e-04	6.748532e-02
2.233052e+00	1.105191e-03	-2.002564e-01
1.966210e+00	1.009848e-03	-3.619635e-01
1.775440e+00	7.918407e-04	-4.251961e-01
1.609545e+00	4.415952e-04	-4.727381e-01
1.486132e+00	6.010915e-04	-4.881127e-01
1.379934e+00	2.496737e-04	-5.013189e-01
1.292895e+00	4.055994e-04	-4.984466e-01
1.216808e+00	1.074277e-04	-4.960276e-01
1.150934e+00	2.537208e-04	-4.855011e-01
1.091367e+00	-9.034611e-06	-4.763543e-01
1.037399e+00	4.760405e-05	-4.632056e-01
9.869442e-01	-1.901058e-04	-4.516966e-01
9.369028e-01	-1.056894e-04	-4.363482e-01
8.891691e-01	-1.216164e-04	-4.220291e-01
8.395030e-01	-1.275290e-04	-4.033965e-01
7.888963e-01	-1.224034e-04	-3.832763e-01
7.424848e-01	-1.213232e-04	-3.623396e-01
8.156835e-01	4.589705e-05	-1.436389e-01
8.335245e-01	6.421308e-05	-1.482891e-01
8.441708e-01	6.379858e-05	-1.539426e-01
8.486475e-01	6.407167e-05	-1.589647e-01
8.465256e-01	6.492569e-05	-1.649614e-01
8.396278e-01	6.645756e-05	-1.694171e-01
8.263577e-01	9.797400e-05	-1.747272e-01
8.103433e-01	6.767023e-05	-1.784611e-01
7.876953e-01	1.123195e-04	-1.837144e-01
7.597372e-01	9.333261e-05	-1.869172e-01
7.232290e-01	7.850163e-05	-1.926658e-01
6.773021e-01	7.317570e-05	-1.946525e-01
6.133621e-01	1.047814e-05	-1.971356e-01
5.307139e-01	1.210332e-05	-1.893129e-01
4.112197e-01	4.184906e-05	-1.706020e-01
2.519741e-01	8.816020e-06	-1.205587e-01
1.465592e-02	8.576806e-06	-8.762881e-03
-3.282136e-01	6.933509e-06	2.516423e-01
-7.657838e-01	4.343588e-06	1.022511e+00
-4.886265e-01	1.248552e-06	3.099388e+00
2.994639e+00	-2.803688e-06	2.998919e+00
3.103792e+00	-6.693005e-06	9.589770e-01
2.619718e+00	-1.109539e-05	6.756965e-02
2.231235e+00	-1.609954e-05	-2.000935e-01
1.958452e+00	-2.234376e-05	-3.605353e-01
1.763668e+00	5.543971e-06	-4.223768e-01
1.605982e+00	-3.056984e-05	-4.716918e-01
1.482777e+00	1.758943e-05	-4.870109e-01
1.376486e+00	3.357923e-06	-5.000663e-01
1.290243e+00	-1.288668e-05	-4.974244e-01
1.213668e+00	-2.337237e-05	-4.947478e-01
1.148919e+00	-1.084929e-04	-4.846508e-01
1.088660e+00	-7.482271e-05	-4.751729e-01
1.036434e+00	-8.036896e-05	-4.627747e-01
9.859934e-01	-7.417861e-05	-4.512614e-01
9.375681e-01	-7.037995e-05	-4.366581e-01
8.882452e-01	-6.941901e-05	-4.215906e-01
8.393032e-01	-6.922017e-05	-4.033005e-01
7.886868e-01	-6.877349e-05	-3.831745e-01
7.398886e-01	-8.713286e-05	-3.610727e-01
8.154823e-01	1.466897e-03	-1.436034e-01
8.332154e-01	1.467049e-03	-1.482342e-01
8.445013e-01	1.468232e-03	-1.540028e-01
8.498070e-01	1.452009e-03	-1.591819e-01
8.460601e-01	1.410999e-03	-1.648707e-01
8.409979e-01	1.447877e-03	-1.696935e-01
8.275624e-01	1.313955e-03	-1.749819e-01
8.130231e-01	1.352254e-03	-1.790513e-01
7.895739e-01	1.093217e-03	-1.841525e-01
7.632252e-01	1.137431e-03	-1.877754e-01
7.263815e-01	7.797165e-04	-1.935056e-01
6.819669e-01	7.877923e-04	-1.959931e-01
6.175773e-01	3.552187e-04	-1.984904e-01
5.343273e-01	4.777234e-04	-1.906018e-01
4.237716e-01	-4.978567e-05	-1.758094e-01
2.607665e-01	-3.887211e-04	-1.247655e-01
1.748196e-02	-5.847256e-04	-1.045259e-02
-3.291762e-01	-6.348979e-04	2.523803e-01
-7.657016e-01	-6.851601e-04	1.022401e+00
-4.883005e-01	-7.493683e-04	3.097320e+00
2.992103e+00	-8.350260e-04	2.996379e+00
3.100598e+00	-9.186160e-04	9.579902e-01
2.616141e+00	-9.884367e-04	6.747739e-02
2.232769e+00	-1.106218e-03	-2.002311e-01
1.966706e+00	-1.048497e-03	-3.620548e-01
1.775228e+00	-8.406175e-04	-4.251453e-01
1.609789e+00	-4.679151e-04	-4.728099e-01
1.486575e+00	-6.672329e-04	-4.882582e-01
1.379536e+00	-3.328743e-04	-5.011742e-01
1.292558e+00	-4.288036e-04	-4.983167e-01
1.215616e+00	-1.518558e-04	-4.955417e-01
1.150250e+00	-3.193852e-04	-4.852122e-01
1.091758e+00	-4.720129e-05	-4.765251e-01
1.037400e+00	-1.172612e-04	-4.632061e-01
9.871064e-01	-9.502784e-06	-4.517708e-01
9.369960e-01	-6.573528e-05	-4.363916e-01
8.891977e-01	-3.734940e-05	-4.220427e-01
8.395212e-01	-2.832983e-05	-4.034053e-01
7.883482e-01	-3.265420e-05	-3.830100e-01
7.396731e-01	-3.360361e-05	-3.609675e-01
8.156579e-01	1.226008e-03	-1.436344e-01
8.334392e-01	1.222967e-03	-1.482740e-01
8.447804e-01	1.214656e-03	-1.540537e-01
8.501455e-01	1.185264e-03	-1.592453e-01
8.464640e-01	1.105866e-03	-1.649494e-01
8.414940e-01	1.090222e-03	-1.697936e-01
8.276998e-01	1.023481e-03	-1.750110e-01
8.136104e-01	9.953932e-04	-1.791807e-01
7.905123e-01	9.590811e-04	-1.843714e-01
7.638779e-01	8.795789e-04	-1.879359e-01
7.278291e-01	7.900818e-04	-1.938912e-01
6.828472e-01	6.879273e-04	-1.962461e-01
6.179208e-01	6.120855e-04	-1.986007e-01
5.362728e-01	4.835875e-04	-1.912958e-01
4.255359e-01	3.454509e-04	-1.765414e-01
2.620745e-01	2.346157e-04	-1.253913e-01
2.028074e-02	8.525224e-05	-1.212601e-02
-3.256361e-01	-6.555860e-05	2.496662e-01
-7.627029e-01	-2.224775e-04	1.018397e+00
-4.870268e-01	-3.781152e-04	3.089240e+00
2.986249e+00	-5.569084e-04	2.990516e+00
3.097166e+00	-7.086773e-04	9.569300e-01
2.613404e+00	-8.576687e-04	6.740679e-02
2.230251e+00	-9.961302e-04	-2.000052e-01
1.964060e+00	-1.126560e-03	-3.615677e-01
1.773811e+00	-1.280376e-03	-4.248058e-01
1.608191e+00	-1.389473e-03	-4.723406e-01
1.484888e+00	-1.520648e-03	-4.877042e-01
1.379484e+00	-1.608583e-03	-5.011555e-01
1.292557e+00	-1.678038e-03	-4.983164e-01
1.215065e+00	-1.736023e-03	-4.953172e-01
1.150146e+00	-1.779078e-03	-4.851686e-01
1.091497e+00	-1.840955e-03	-4.764110e-01
1.036852e+00	-1.884997e-03	-4.629611e-01
9.869899e-01	-1.868606e-03	-4.517175e-01
9.369062e-01	-1.881268e-03	-4.363498e-01
8.891543e-01	-1.784952e-03	-4.220221e-01
8.395234e-01	-1.801592e-03	-4.034063e-01
7.883897e-01	-1.804107e-03	-3.830302e-01
7.397432e-01	-1.803527e-03	-3.610017e-01
8.159926e-01	2.096966e-03	-1.436933e-01
8.338822e-01	2.096662e-03	-1.483528e-01
8.458868e-01	2.014123e-03	-1.542555e-01
8.526636e-01	1.992812e-03	-1.597170e-01
8.478514e-01	1.952859e-03	-1.652198e-01
8.424753e-01	1.910978e-03	-1.699916e-01
8.289919e-01	1.836009e-03	-1.752842e-01
8.139412e-01	1.741268e-03	-1.792535e-01
7.911457e-01	1.642583e-03	-1.845191e-01
7.654439e-01	1.505970e-03	-1.883212e-01
7.288862e-01	1.345640e-03	-1.941729e-01
6.843484e-01	1.247065e-03	-1.966775e-01
6.203956e-01	1.027075e-03	-1.993961e-01
5.382879e-01	8.192211e-04	-1.920146e-01