# vtk DataFile Version 2.0
OUTPUT by 3D-VPM
ASCII
DATASET UNSTRUCTURED_GRID
POINTS 820 double
9.510565e-01	0.000000e+00	-3.090170e-01
9.442611e-01	0.000000e+00	-3.078203e-01
9.267277e-01	0.000000e+00	-3.047010e-01
8.963175e-01	0.000000e+00	-2.991555e-01
8.562911e-01	0.000000e+00	-2.916579e-01
8.054250e-01	0.000000e+00	-2.817457e-01
7.470317e-01	0.000000e+00	-2.699633e-01
6.809074e-01	0.000000e+00	-2.559818e-01
6.100852e-01	0.000000e+00	-2.403847e-01
5.354138e-01	0.000000e+00	-2.229691e-01
4.593635e-01	0.000000e+00	-2.042585e-01
3.837764e-01	0.000000e+00	-1.841224e-01
3.103069e-01	0.000000e+00	-1.630077e-01
2.415927e-01	0.000000e+00	-1.409228e-01
1.782654e-01	0.000000e+00	-1.183331e-01
1.234349e-01	0.000000e+00	-9.558566e-02
7.662509e-02	0.000000e+00	-7.318920e-02
4.106998e-02	0.000000e+00	-5.193053e-02
1.528206e-02	0.000000e+00	-3.215886e-02
2.347037e-03	0.000000e+00	-1.488740e-02
0.000000e+00	0.000000e+00	0.000000e+00
1.064939e-02	0.000000e+00	1.066461e-02
3.126595e-02	0.000000e+00	1.703450e-02
6.375031e-02	0.000000e+00	1.787236e-02
1.050105e-01	0.000000e+00	1.417221e-02
1.560448e-01	0.000000e+00	4.777214e-03
2.137742e-01	0.000000e+00	-9.048270e-03
2.782849e-01	0.000000e+00	-2.799567e-02
3.468570e-01	0.000000e+00	-5.051783e-02
4.187060e-01	0.000000e+00	-7.662000e-02
4.916930e-01	0.000000e+00	-1.047585e-01
5.642168e-01	0.000000e+00	-1.343226e-01
6.348639e-01	0.000000e+00	-1.641238e-01
7.013280e-01	0.000000e+00	-1.931337e-01
7.630418e-01	0.000000e+00	-2.206893e-01
8.172084e-01	0.000000e+00	-2.454799e-01
8.641863e-01	0.000000e+00	-2.673591e-01
9.009752e-01	0.000000e+00	-2.848204e-01
9.288372e-01	0.000000e+00	-2.982085e-01
9.448555e-01	0.000000e+00	-3.059908e-01
9.510565e-01	0.000000e+00	-3.090170e-01
9.510565e-01	1.052632e+00	-3.090170e-01
9.442611e-01	1.052632e+00	-3.078203e-01
9.267277e-01	1.052632e+00	-3.047010e-01
8.963175e-01	1.052632e+00	-2.991555e-01
8.562911e-01	1.052632e+00	-2.916579e-01
8.054250e-01	1.052632e+00	-2.817457e-01
7.470317e-01	1.052632e+00	-2.699633e-01
6.809074e-01	1.052632e+00	-2.559818e-01
6.100852e-01	1.052632e+00	-2.403847e-01
5.354138e-01	1.052632e+00	-2.229691e-01
4.593635e-01	1.052632e+00	-2.042585e-01
3.837764e-01	1.052632e+00	-1.841224e-01
3.103069e-01	1.052632e+00	-1.630077e-01
2.415927e-01	1.052632e+00	-1.409228e-01
1.782654e-01	1.052632e+00	-1.183331e-01
1.234349e-01	1.052632e+00	-9.558566e-02
7.662509e-02	1.052632e+00	-7.318920e-02
4.106998e-02	1.052632e+00	-5.193053e-02
1.528206e-02	1.052632e+00	-3.215886e-02
2.347037e-03	1.052632e+00	-1.488740e-02
0.000000e+00	1.052632e+00	0.000000e+00
1.064939e-02	1.052632e+00	1.066461e-02
3.126595e-02	1.052632e+00	1.703450e-02
6.375031e-02	1.052632e+00	1.787236e-02
1.050105e-01	1.052632e+00	1.417221e-02
1.560448e-01	1.052632e+00	4.777214e-03
2.137742e-01	1.052632e+00	-9.048270e-03
2.782849e-01	1.052632e+00	-2.799567e-02
3.468570e-01	1.052632e+00	-5.051783e-02
4.187060e-01	1.052632e+00	-7.662000e-02
4.916930e-01	1.052632e+00	-1.047585e-01
5.642168e-01	1.052632e+00	-1.343226e-01
6.348639e-01	1.052632e+00	-1.641238e-01
7.013280e-01	1.052632e+00	-1.931337e-01
7.630418e-01	1.052632e+00	-2.206893e-01
8.172084e-01	1.052632e+00	-2.454799e-01
8.641863e-01	1.052632e+00	-2.673591e-01
9.009752e-01	1.052632e+00	-2.848204e-01
9.288372e-01	1.052632e+00	-2.982085e-01
9.448555e-01	1.052632e+00	-3.059908e-01
9.510565e-01	1.052632e+00	-3.090170e-01
9.510565e-01	2.105263e+00	-3.090170e-01
9.442611e-01	2.105263e+00	-3.078203e-01
9.267277e-01	2.105263e+00	-3.047010e-01
8.963175e-01	2.105263e+00	-2.991555e-01
8.562911e-01	2.105263e+00	-2.916579e-01
8.054250e-01	2.105263e+00	-2.817457e-01
7.470317e-01	2.105263e+00	-2.699633e-01
6.809074e-01	2.105263e+00	-2.559818e-01
6.100852e-01	2.105263e+00	-2.403847e-01
5.354138e-01	2.105263e+00	-2.229691e-01
4.593635e-01	2.105263e+00	-2.042585e-01
3.837764e-01	2.105263e+00	-1.841224e-01
3.103069e-01	2.105263e+00	-1.630077e-01
2.415927e-01	2.105263e+00	-1.409228e-01
1.782654e-01	2.105263e+00	-1.183331e-01
1.234349e-01	2.105263e+00	-9.558566e-02
7.662509e-02	2.105263e+00	-7.318920e-02
4.106998e-02	2.105263e+00	-5.193053e-02
1.528206e-02	2.105263e+00	-3.215886e-02
2.347037e-03	2.105263e+00	-1.488740e-02
0.000000e+00	2.105263e+00	0.000000e+00
1.064939e-02	2.105263e+00	1.066461e-02
3.126595e-02	2.105263e+00	1.703450e-02
6.375031e-02	2.105263e+00	1.787236e-02
1.050105e-01	2.105263e+00	1.417221e-02
1.560448e-01	2.105263e+00	4.777214e-03
2.137742e-01	2.105263e+00	-9.048270e-03
2.782849e-01	2.105263e+00	-2.799567e-02
3.468570e-01	2.105263e+00	-5.051783e-02
4.187060e-01	2.105263e+00	-7.662000e-02
4.916930e-01	2.105263e+00	-1.047585e-01
5.642168e-01	2.105263e+00	-1.343226e-01
6.348639e-01	2.105263e+00	-1.641238e-01
7.013280e-01	2.105263e+00	-1.931337e-01
7.630418e-01	2.105263e+00	-2.206893e-01
8.172084e-01	2.105263e+00	-2.454799e-01
8.641863e-01	2.105263e+00	-2.673591e-01
9.009752e-01	2.105263e+00	-2.848204e-01
9.288372e-01	2.105263e+00	-2.982085e-01
9.448555e-01	2.105263e+00	-3.059908e-01
9.510565e-01	2.105263e+00	-3.090170e-01
9.510565e-01	3.157895e+00	-3.090170e-01
9.442611e-01	3.157895e+00	-3.078203e-01
9.267277e-01	3.157895e+00	-3.047010e-01
8.963175e-01	3.157895e+00	-2.991555e-01
8.562911e-01	3.157895e+00	-2.916579e-01
8.054250e-01	3.157895e+00	-2.817457e-01
7.470317e-01	3.157895e+00	-2.699633e-01
6.809074e-01	3.157895e+00	-2.559818e-01
6.100852e-01	3.157895e+00	-2.403847e-01
5.354138e-01	3.157895e+00	-2.229691e-01
4.593635e-01	3.157895e+00	-2.042585e-01
3.837764e-01	3.157895e+00	-1.841224e-01
3.103069e-01	3.157895e+00	-1.630077e-01
2.415927e-01	3.157895e+00	-1.409228e-01
1.782654e-01	3.157895e+00	-1.183331e-01
1.234349e-01	3.157895e+00	-9.558566e-02
7.662509e-02	3.157895e+00	-7.318920e-02
4.106998e-02	3.157895e+00	-5.193053e-02
1.528206e-02	3.157895e+00	-3.215886e-02
2.347037e-03	3.157895e+00	-1.488740e-02
0.000000e+00	3.157895e+00	0.000000e+00
1.064939e-02	3.157895e+00	1.066461e-02
3.126595e-02	3.157895e+00	1.703450e-02
6.375031e-02	3.157895e+00	1.787236e-02
1.050105e-01	3.157895e+00	1.417221e-02
1.560448e-01	3.157895e+00	4.777214e-03
2.137742e-01	3.157895e+00	-9.048270e-03
2.782849e-01	3.157895e+00	-2.799567e-02
3.468570e-01	3.157895e+00	-5.051783e-02
4.187060e-01	3.157895e+00	-7.662000e-02
4.916930e-01	3.157895e+00	-1.047585e-01
5.642168e-01	3.157895e+00	-1.343226e-01
6.348639e-01	3.157895e+00	-1.641238e-01
7.013280e-01	3.157895e+00	-1.931337e-01
7.630418e-01	3.157895e+00	-2.206893e-01
8.172084e-01	3.157895e+00	-2.454799e-01
8.641863e-01	3.157895e+00	-2.673591e-01
9.009752e-01	3.157895e+00	-2.848204e-01
9.288372e-01	3.157895e+00	-2.982085e-01
9.448555e-01	3.157895e+00	-3.059908e-01
9.510565e-01	3.157895e+00	-3.090170e-01
9.510565e-01	4.210526e+00	-3.090170e-01
9.442611e-01	4.210526e+00	-3.078203e-01
9.267277e-01	4.210526e+00	-3.047010e-01
8.963175e-01	4.210526e+00	-2.991555e-01
8.562911e-01	4.210526e+00	-2.916579e-01
8.054250e-01	4.210526e+00	-2.817457e-01
7.470317e-01	4.210526e+00	-2.699633e-01
6.809074e-01	4.210526e+00	-2.559818e-01
6.100852e-01	4.210526e+00	-2.403847e-01
5.354138e-01	4.210526e+00	-2.229691e-01
4.593635e-01	4.210526e+00	-2.042585e-01
3.837764e-01	4.210526e+00	-1.841224e-01
3.103069e-01	4.210526e+00	-1.630077e-01
2.415927e-01	4.210526e+00	-1.409228e-01
1.782654e-01	4.210526e+00	-1.183331e-01
1.234349e-01	4.210526e+00	-9.558566e-02
7.662509e-02	4.210526e+00	-7.318920e-02
4.106998e-02	4.210526e+00	-5.193053e-02
1.528206e-02	4.210526e+00	-3.215886e-02
2.347037e-03	4.210526e+00	-1.488740e-02
0.000000e+00	4.210526e+00	0.000000e+00
1.064939e-02	4.210526e+00	1.066461e-02
3.126595e-02	4.210526e+00	1.703450e-02
6.375031e-02	4.210526e+00	1.787236e-02
1.050105e-01	4.210526e+00	1.417221e-02
1.560448e-01	4.210526e+00	4.777214e-03
2.137742e-01	4.210526e+00	-9.048270e-03
2.782849e-01	4.210526e+00	-2.799567e-02
3.468570e-01	4.210526e+00	-5.051783e-02
4.187060e-01	4.210526e+00	-7.662000e-02
4.916930e-01	4.210526e+00	-1.047585e-01
5.642168e-01	4.210526e+00	-1.343226e-01
6.348639e-01	4.210526e+00	-1.641238e-01
7.013280e-01	4.210526e+00	-1.931337e-01
7.630418e-01	4.210526e+00	-2.206893e-01
8.172084e-01	4.210526e+00	-2.454799e-01
8.641863e-01	4.210526e+00	-2.673591e-01
9.009752e-01	4.210526e+00	-2.848204e-01
9.288372e-01	4.210526e+00	-2.982085e-01
9.448555e-01	4.210526e+00	-3.059908e-01
9.510565e-01	4.210526e+00	-3.090170e-01
9.510565e-01	5.263158e+00	-3.090170e-01
9.442611e-01	5.263158e+00	-3.078203e-01
9.267277e-01	5.263158e+00	-3.047010e-01
8.963175e-01	5.263158e+00	-2.991555e-01
8.562911e-01	5.263158e+00	-2.916579e-01
8.054250e-01	5.263158e+00	-2.817457e-01
7.470317e-01	5.263158e+00	-2.699633e-01
6.809074e-01	5.263158e+00	-2.559818e-01
6.100852e-01	5.263158e+00	-2.403847e-01
5.354138e-01	5.263158e+00	-2.229691e-01
4.593635e-01	5.263158e+00	-2.042585e-01
3.837764e-01	5.263158e+00	-1.841224e-01
3.103069e-01	5.263158e+00	-1.630077e-01
2.415927e-01	5.263158e+00	-1.409228e-01
1.782654e-01	5.263158e+00	-1.183331e-01
1.234349e-01	5.263158e+00	-9.558566e-02
7.662509e-02	5.263158e+00	-7.318920e-02
4.106998e-02	5.263158e+00	-5.193053e-02
1.528206e-02	5.263158e+00	-3.215886e-02
2.347037e-03	5.263158e+00	-1.488740e-02
0.000000e+00	5.263158e+00	0.000000e+00
1.064939e-02	5.263158e+00	1.066461e-02
3.126595e-02	5.263158e+00	1.703450e-02
6.375031e-02	5.263158e+00	1.787236e-02
1.050105e-01	5.263158e+00	1.417221e-02
1.560448e-01	5.263158e+00	4.777214e-03
2.137742e-01	5.263158e+00	-9.048270e-03
2.782849e-01	5.263158e+00	-2.799567e-02
3.468570e-01	5.263158e+00	-5.051783e-02
4.187060e-01	5.263158e+00	-7.662000e-02
4.916930e-01	5.263158e+00	-1.047585e-01
5.642168e-01	5.263158e+00	-1.343226e-01
6.348639e-01	5.263158e+00	-1.641238e-01
7.013280e-01	5.263158e+00	-1.931337e-01
7.630418e-01	5.263158e+00	-2.206893e-01
8.172084e-01	5.263158e+00	-2.454799e-01
8.641863e-01	5.263158e+00	-2.673591e-01
9.009752e-01	5.263158e+00	-2.848204e-01
9.288372e-01	5.263158e+00	-2.982085e-01
9.448555e-01	5.263158e+00	-3.059908e-01
9.510565e-01	5.263158e+00	-3.090170e-01
9.510565e-01	6.315789e+00	-3.090170e-01
9.442611e-01	6.315789e+00	-3.078203e-01
[...]
CELL_DATA 760
VECTORS V double
8.414300e-01	-6.902640e-02	-1.481727e-01
8.655526e-01	-6.885282e-02	-1.539871e-01
8.835694e-01	-6.840309e-02	-1.611273e-01
8.953373e-01	-6.760873e-02	-1.677104e-01
8.978043e-01	-6.644786e-02	-1.749541e-01
8.991189e-01	-6.490284e-02	-1.814210e-01
8.920832e-01	-6.296336e-02	-1.886244e-01
8.847749e-01	-6.060537e-02	-1.948532e-01
8.704429e-01	-5.780040e-02	-2.030136e-01
8.548051e-01	-5.451592e-02	-2.103067e-01
8.295030e-01	-5.072644e-02	-2.209768e-01
7.985843e-01	-4.641778e-02	-2.295082e-01
7.512388e-01	-4.162291e-02	-2.414494e-01
6.892197e-01	-3.639297e-02	-2.458540e-01
6.025757e-01	-3.076589e-02	-2.499896e-01
4.719081e-01	-2.486446e-02	-2.257876e-01
2.702094e-01	-1.869663e-02	-1.615602e-01
-1.734673e-02	-1.242842e-02	1.329979e-02
-4.217270e-01	-5.861292e-03	5.631101e-01
-3.426622e-01	7.186781e-04	2.173527e+00
2.326910e+00	8.431188e-03	2.330235e+00
2.541607e+00	1.519546e-02	7.852792e-01
2.210493e+00	2.214120e-02	5.701462e-02
1.925484e+00	2.898816e-02	-1.726742e-01
1.720153e+00	3.597729e-02	-3.166664e-01
1.570380e+00	4.294353e-02	-3.760867e-01
1.435535e+00	4.988117e-02	-4.216298e-01
1.336723e+00	5.661172e-02	-4.390402e-01
1.250630e+00	6.301699e-02	-4.543437e-01
1.181692e+00	6.889914e-02	-4.555748e-01
1.121865e+00	7.414269e-02	-4.573246e-01
1.071610e+00	7.861054e-02	-4.520394e-01
1.027472e+00	8.224053e-02	-4.484656e-01
9.871985e-01	8.502495e-02	-4.407907e-01
9.499785e-01	8.701521e-02	-4.347784e-01
9.115276e-01	8.830921e-02	-4.245301e-01
8.743617e-01	8.903528e-02	-4.150010e-01
8.341885e-01	8.934246e-02	-4.008428e-01
7.910611e-01	8.938635e-02	-3.843280e-01
7.483106e-01	8.934066e-02	-3.651827e-01
8.268647e-01	-4.833928e-02	-1.456078e-01
8.473547e-01	-4.821499e-02	-1.507496e-01
8.618196e-01	-4.789648e-02	-1.571610e-01
8.705082e-01	-4.733271e-02	-1.630596e-01
8.702623e-01	-4.650103e-02	-1.695870e-01
8.688809e-01	-4.538263e-02	-1.753196e-01
8.588847e-01	-4.396682e-02	-1.816048e-01
8.480183e-01	-4.223862e-02	-1.867583e-01
8.293516e-01	-4.018322e-02	-1.934299e-01
8.083674e-01	-3.778546e-02	-1.988816e-01
7.765843e-01	-3.501562e-02	-2.068795e-01
7.379297e-01	-3.192409e-02	-2.120765e-01
6.816312e-01	-2.848829e-02	-2.190774e-01
6.085869e-01	-2.476328e-02	-2.170912e-01
5.087959e-01	-2.077499e-02	-2.110833e-01
3.608068e-01	-1.660647e-02	-1.726304e-01
1.374135e-01	-1.225949e-02	-8.216053e-02
-1.814497e-01	-7.847427e-03	1.391180e-01
-6.031404e-01	-3.230444e-03	8.053419e-01
-4.198212e-01	1.388580e-03	2.662952e+00
2.682392e+00	6.788200e-03	2.686225e+00
2.844012e+00	1.150378e-02	8.787129e-01
2.433205e+00	1.631744e-02	6.275897e-02
2.097303e+00	2.102628e-02	-1.880827e-01
1.860463e+00	2.578903e-02	-3.424963e-01
1.689630e+00	3.048599e-02	-4.046455e-01
1.539050e+00	3.511139e-02	-4.520332e-01
1.427798e+00	3.954707e-02	-4.689532e-01
1.330710e+00	4.372118e-02	-4.834360e-01
1.251897e+00	4.752610e-02	-4.826407e-01
1.182663e+00	5.085149e-02	-4.821086e-01
1.123333e+00	5.366857e-02	-4.738579e-01
1.070388e+00	5.592767e-02	-4.671977e-01
1.021738e+00	5.763321e-02	-4.562127e-01
9.765873e-01	5.882644e-02	-4.469565e-01
9.307584e-01	5.957819e-02	-4.334865e-01
8.867484e-01	5.997686e-02	-4.208802e-01
8.402927e-01	6.012322e-02	-4.037760e-01
7.917018e-01	6.011957e-02	-3.846393e-01
7.448122e-01	6.007627e-02	-3.634754e-01
8.205698e-01	-2.041019e-02	-1.444993e-01
8.397303e-01	-2.035836e-02	-1.493932e-01
8.527154e-01	-2.022800e-02	-1.555008e-01
8.598763e-01	-1.999199e-02	-1.610680e-01
8.580878e-01	-1.963341e-02	-1.672145e-01
8.551236e-01	-1.913557e-02	-1.725438e-01
8.435028e-01	-1.848875e-02	-1.783524e-01
8.309020e-01	-1.768759e-02	-1.829888e-01
8.103457e-01	-1.670501e-02	-1.889971e-01
7.869585e-01	-1.558485e-02	-1.936144e-01
7.528944e-01	-1.431286e-02	-2.005686e-01
7.116031e-01	-1.290382e-02	-2.045103e-01
6.517866e-01	-1.134778e-02	-2.094853e-01
5.746360e-01	-9.680921e-03	-2.049805e-01
4.698564e-01	-7.913321e-03	-1.949286e-01
3.151170e-01	-6.077438e-03	-1.507698e-01
8.313178e-02	-4.170005e-03	-4.970511e-02
-2.482459e-01	-2.238934e-03	1.903309e-01
-6.766570e-01	-2.233760e-04	9.035047e-01
-4.508606e-01	1.784757e-03	2.859836e+00
2.823486e+00	4.113698e-03	2.827521e+00
2.961731e+00	6.121534e-03	9.150846e-01
2.517824e+00	8.134872e-03	6.494154e-02
2.160599e+00	1.005858e-02	-1.937589e-01
1.910283e+00	1.194890e-02	-3.516678e-01
1.730233e+00	1.375228e-02	-4.143694e-01
1.572743e+00	1.546413e-02	-4.619292e-01
1.456091e+00	1.704383e-02	-4.782457e-01
1.354624e+00	1.847386e-02	-4.921240e-01
1.271673e+00	1.973980e-02	-4.902650e-01
1.198775e+00	2.080500e-02	-4.886769e-01
1.136464e+00	2.166527e-02	-4.793969e-01
1.080537e+00	2.230228e-02	-4.716272e-01
1.029158e+00	2.277387e-02	-4.595259e-01
9.815254e-01	2.307595e-02	-4.492166e-01
9.334821e-01	2.324061e-02	-4.347551e-01
8.875205e-01	2.330309e-02	-4.212466e-01
8.394005e-01	2.330086e-02	-4.033472e-01
7.894776e-01	2.327041e-02	-3.835587e-01
7.416785e-01	2.324362e-02	-3.619462e-01
8.181662e-01	-1.021990e-02	-1.440761e-01
8.367534e-01	-1.019885e-02	-1.488636e-01
8.489834e-01	-1.014256e-02	-1.548202e-01
8.553718e-01	-1.003675e-02	-1.602243e-01
8.527952e-01	-9.871562e-03	-1.661832e-01
8.489923e-01	-9.623689e-03	-1.713066e-01
8.365031e-01	-9.311017e-03	-1.768724e-01
8.226085e-01	-8.913576e-03	-1.811623e-01
8.009804e-01	-8.440280e-03	-1.868128e-01
7.769615e-01	-7.876430e-03	-1.911549e-01
7.415422e-01	-7.237070e-03	-1.975444e-01
6.984155e-01	-6.499578e-03	-2.007203e-01
6.368618e-01	-5.694141e-03	-2.046884e-01
5.575549e-01	-4.818060e-03	-1.988874e-01
4.501518e-01	-3.883369e-03	-1.867537e-01
2.918721e-01	-2.907498e-03	-1.396481e-01
5.541768e-02	-1.893759e-03	-3.313464e-02
-2.823976e-01	-8.602591e-04	2.165150e-01
-7.142483e-01	2.197449e-04	9.536984e-01
-4.666933e-01	1.279749e-03	2.960264e+00
2.895050e+00	2.538224e-03	2.899188e+00
3.020974e+00	3.601766e-03	9.333887e-01
2.560029e+00	4.660724e-03	6.603012e-02
2.191821e+00	5.663663e-03	-1.965589e-01
1.934594e+00	6.643123e-03	-3.561432e-01
1.749835e+00	7.563107e-03	-4.190638e-01
1.588846e+00	8.427423e-03	-4.666588e-01
1.469499e+00	9.224388e-03	-4.826498e-01
1.365837e+00	9.933058e-03	-4.961976e-01
1.281311e+00	1.055211e-02	-4.939808e-01
1.206774e+00	1.109060e-02	-4.919377e-01
1.142477e+00	1.152195e-02	-4.819333e-01
1.085231e+00	1.186007e-02	-4.736761e-01
1.032959e+00	1.209826e-02	-4.612232e-01
9.841909e-01	1.225837e-02	-4.504365e-01
9.351489e-01	1.233938e-02	-4.355313e-01
8.883100e-01	1.238335e-02	-4.216214e-01
8.394618e-01	1.239356e-02	-4.033767e-01
7.889787e-01	1.238673e-02	-3.833163e-01
7.407092e-01	1.237806e-02	-3.614732e-01
8.170383e-01	-5.652224e-03	-1.438774e-01
8.351984e-01	-5.641102e-03	-1.485869e-01
8.470182e-01	-5.609598e-03	-1.544618e-01
8.529665e-01	-5.550220e-03	-1.597737e-01
8.496345e-01	-5.454036e-03	-1.655673e-01
8.453934e-01	-5.313755e-03	-1.705804e-01
8.325197e-01	-5.142411e-03	-1.760301e-01
8.185037e-01	-4.922728e-03	-1.802583e-01
7.963462e-01	-4.657832e-03	-1.857320e-01
7.711620e-01	-4.322102e-03	-1.897281e-01
7.349006e-01	-3.931228e-03	-1.957751e-01
6.910389e-01	-3.495038e-03	-1.986003e-01
6.284342e-01	-3.023598e-03	-2.019798e-01
5.477341e-01	-2.603334e-03	-1.953842e-01
4.387686e-01	-2.060134e-03	-1.820312e-01
2.784772e-01	-1.452735e-03	-1.332393e-01
3.941770e-02	-8.434662e-04	-2.356814e-02
-3.023005e-01	-2.240365e-04	2.317746e-01
-7.358406e-01	4.235962e-04	9.825295e-01
-4.758652e-01	1.068090e-03	3.018442e+00
2.937148e+00	1.811130e-03	2.941345e+00
3.055070e+00	2.445731e-03	9.439234e-01
2.584197e+00	3.073980e-03	6.665348e-02
2.209708e+00	3.664613e-03	-1.981630e-01
1.948378e+00	4.234090e-03	-3.586807e-01
1.760782e+00	4.757283e-03	-4.216856e-01
1.597876e+00	5.242913e-03	-4.693108e-01
1.476946e+00	5.786648e-03	-4.850956e-01
1.371922e+00	6.190887e-03	-4.984080e-01
1.286280e+00	6.529263e-03	-4.958965e-01
1.210921e+00	6.810151e-03	-4.936278e-01
1.146297e+00	7.039601e-03	-4.835447e-01
1.088258e+00	7.237082e-03	-4.749976e-01
1.034929e+00	7.379506e-03	-4.621025e-01
9.854621e-01	7.477644e-03	-4.510183e-01
9.358651e-01	7.526133e-03	-4.358649e-01
8.888538e-01	7.549481e-03	-4.218795e-01
8.396019e-01	7.555910e-03	-4.034440e-01
7.887836e-01	7.552070e-03	-3.832215e-01
7.403513e-01	7.547811e-03	-3.612985e-01
8.162998e-01	-3.275734e-03	-1.437474e-01
8.342395e-01	-3.268717e-03	-1.484164e-01
8.457886e-01	-3.249855e-03	-1.542376e-01
8.513968e-01	-3.213451e-03	-1.594797e-01
8.479619e-01	-3.151815e-03	-1.652413e-01
8.435886e-01	-3.099234e-03	-1.702163e-01
8.304540e-01	-2.982184e-03	-1.755933e-01
8.157073e-01	-2.838387e-03	-1.796425e-01
7.928683e-01	-2.654313e-03	-1.849209e-01
7.674216e-01	-2.422176e-03	-1.888078e-01
7.307324e-01	-2.182960e-03	-1.946647e-01
6.863173e-01	-1.957372e-03	-1.972434e-01
6.244387e-01	-1.643496e-03	-2.006956e-01
5.433071e-01	-1.425542e-03	-1.938051e-01
4.314712e-01	-1.061307e-03	-1.790037e-01
2.694318e-01	-6.838837e-04	-1.289114e-01
2.917742e-02	-2.884534e-04	-1.744540e-02
-3.148023e-01	1.061497e-04	2.413599e-01
-7.499326e-01	5.175531e-04	1.001346e+00
-4.816966e-01	9.411087e-04	3.055431e+00
2.962548e+00	1.395391e-03	2.966782e+00
3.076476e+00	1.797337e-03	9.505372e-01
2.599242e+00	2.193363e-03	6.704153e-02
2.220538e+00	2.563341e-03	-1.991342e-01
1.956486e+00	2.913213e-03	-3.601735e-01
1.767100e+00	3.239620e-03	-4.231987e-01
1.604492e+00	3.653061e-03	-4.712541e-01
1.482593e+00	3.902651e-03	-4.869504e-01
1.375508e+00	4.152876e-03	-4.997109e-01
1.289125e+00	4.371566e-03	-4.969932e-01
1.213165e+00	4.536547e-03	-4.945427e-01
1.147927e+00	4.642252e-03	-4.842327e-01
1.089784e+00	4.736794e-03	-4.756633e-01
1.036443e+00	4.811738e-03	-4.627785e-01
9.865865e-01	4.857783e-03	-4.515328e-01
9.365251e-01	4.919287e-03	-4.361723e-01
8.890380e-01	4.928420e-03	-4.219669e-01
8.396001e-01	4.930333e-03	-4.034431e-01
7.886077e-01	4.927393e-03	-3.831361e-01
7.400569e-01	4.924289e-03	-3.611548e-01
8.158607e-01	-2.026586e-03	-1.436701e-01
8.336809e-01	-2.022556e-03	-1.483170e-01
8.450717e-01	-2.012372e-03	-1.541069e-01
8.504548e-01	-1.993770e-03	-1.593032e-01
8.473563e-01	-1.963644e-03	-1.651233e-01
8.423978e-01	-2.007582e-03	-1.699760e-01
8.284886e-01	-1.885346e-03	-1.751778e-01
8.138300e-01	-1.780474e-03	-1.792290e-01
7.907251e-01	-1.681333e-03	-1.844210e-01
7.649752e-01	-1.540022e-03	-1.882059e-01
7.288225e-01	-1.383777e-03	-1.941559e-01
6.838662e-01	-1.213233e-03	-1.965389e-01
6.209957e-01	-1.013523e-03	-1.995890e-01
5.391764e-01	-7.343262e-04	-1.923316e-01
4.266977e-01	-4.996378e-04	-1.770234e-01
2.642501e-01	-2.930238e-04	-1.264322e-01
2.252735e-02	-4.952460e-05	-1.346927e-02
-3.229186e-01	1.725842e-04	2.475826e-01
-7.588193e-01	4.319872e-04	1.013212e+00
-4.854180e-01	6.885098e-04	3.079036e+00
2.979230e+00	9.831464e-04	2.983488e+00
3.090123e+00	1.232962e-03	9.547539e-01
2.608828e+00	1.473204e-03	6.728878e-02
2.227507e+00	1.731021e-03	-1.997592e-01
1.961937e+00	1.950431e-03	-3.611769e-01
1.773571e+00	2.163433e-03	-4.247483e-01
1.607806e+00	2.360918e-03	-4.722274e-01
1.483882e+00	2.461695e-03	-4.873739e-01
1.378031e+00	2.605811e-03	-5.006274e-01
1.291120e+00	2.741835e-03	-4.977623e-01
1.214312e+00	2.854397e-03	-4.950104e-01
1.148852e+00	2.944572e-03	-4.846228e-01
1.090525e+00	3.042842e-03	-4.759870e-01
1.036685e+00	3.108081e-03	-4.628868e-01
9.871644e-01	3.228651e-03	-4.517974e-01
9.372658e-01	3.220123e-03	-4.365172e-01
8.891266e-01	3.214162e-03	-4.220089e-01
8.395988e-01	3.211205e-03	-4.034425e-01
7.885045e-01	3.207957e-03	-3.830859e-01
7.398759e-01	3.205671e-03	-3.610665e-01
8.156234e-01	-1.127053e-03	-1.436283e-01
8.334119e-01	-1.124222e-03	-1.482691e-01
8.447793e-01	-1.115543e-03	-1.540535e-01
8.501516e-01	-1.124756e-03	-1.592464e-01
8.483770e-01	-1.104939e-03	-1.653222e-01
8.420506e-01	-1.053950e-03	-1.699059e-01
8.269745e-01	-1.013145e-03	-1.748576e-01
8.128129e-01	-9.849844e-04	-1.790050e-01
7.896172e-01	-9.924367e-04	-1.841626e-01
7.635153e-01	-9.125966e-04	-1.878467e-01
7.264609e-01	-8.098744e-04	-1.935268e-01
6.813860e-01	-6.551948e-04	-1.958261e-01
6.178141e-01	-5.754638e-04	-1.985665e-01
5.356285e-01	-3.411944e-04	-1.910660e-01
4.242510e-01	-2.512564e-04	-1.760083e-01
2.611888e-01	-1.232734e-04	-1.249675e-01
1.917111e-02	1.390653e-05	-1.146255e-02
-3.270074e-01	1.559045e-04	2.507175e-01
-7.641899e-01	3.053279e-04	1.020383e+00
-4.876582e-01	4.542383e-04	3.093246e+00
2.989207e+00	6.256282e-04	2.993479e+00
3.097950e+00	7.712240e-04	9.571720e-01
2.615436e+00	9.143261e-04	6.745922e-02
2.232266e+00	1.047919e-03	-2.001859e-01
1.965171e+00	1.175420e-03	-3.617723e-01
1.774125e+00	1.294995e-03	-4.248811e-01
1.608942e+00	1.321401e-03	-4.725611e-01
1.486011e+00	1.431618e-03	-4.880729e-01
1.379160e+00	1.538051e-03	-5.010378e-01
1.292261e+00	1.597950e-03	-4.982024e-01
1.215704e+00	1.665639e-03	-4.955777e-01
1.150328e+00	1.810738e-03	-4.852453e-01
1.091976e+00	1.831129e-03	-4.766204e-01
1.039071e+00	1.872655e-03	-4.639521e-01
9.885132e-01	1.884349e-03	-4.524147e-01
9.362518e-01	1.869466e-03	-4.360450e-01
8.888260e-01	1.872410e-03	-4.218663e-01
8.394129e-01	1.894051e-03	-4.033532e-01
7.883352e-01	1.890510e-03	-3.830037e-01
7.397068e-01	1.888941e-03	-3.609840e-01
8.153857e-01	-1.359554e-03	-1.435864e-01
8.329964e-01	-1.359610e-03	-1.481952e-01
8.452026e-01	-1.360296e-03	-1.541307e-01
8.501001e-01	-1.342529e-03	-1.592368e-01
8.458757e-01	-1.301154e-03	-1.648348e-01
8.408281e-01	-1.224014e-03	-1.696593e-01
8.274375e-01	-1.127934e-03	-1.749555e-01
8.135518e-01	-1.191831e-03	-1.791677e-01
7.897272e-01	-9.733961e-04	-1.841883e-01
7.625777e-01	-1.023844e-03	-1.876161e-01
7.254612e-01	-6.685927e-04	-1.932604e-01
6.807192e-01	-7.584585e-04	-1.956345e-01
6.166978e-01	-3.256827e-04	-1.982077e-01
5.342484e-01	-3.914787e-04	-1.905737e-01
4.231869e-01	6.796418e-05	-1.755669e-01
2.593737e-01	4.080052e-04	-1.240991e-01
1.657142e-02	6.031344e-04	-9.908175e-03
-3.303677e-01	6.509330e-04	2.532939e-01
-7.670571e-01	6.987391e-04	1.024211e+00
-4.888819e-01	7.603146e-04	3.101008e+00
2.994754e+00	8.418025e-04	2.999034e+00
3.102802e+00	9.203962e-04	9.586713e-01
2.617725e+00	1.017075e-03	6.751824e-02
2.233966e+00	1.098994e-03	-2.003384e-01
1.966892e+00	1.033311e-03	-3.620891e-01
1.775972e+00	8.498166e-04	-4.253234e-01
1.609938e+00	4.970656e-04	-4.728536e-01
1.486887e+00	6.287310e-04	-4.883608e-01
1.380188e+00	3.101944e-04	-5.014113e-01
1.292731e+00	4.383979e-04	-4.983836e-01
1.216971e+00	1.422476e-04	-4.960941e-01
1.150993e+00	2.918053e-04	-4.855256e-01
1.091342e+00	3.185535e-05	-4.763432e-01
1.037470e+00	8.703416e-05	-4.632372e-01
9.871415e-01	-1.310542e-04	-4.517869e-01
9.370136e-01	-7.342612e-05	-4.363998e-01
8.896328e-01	-8.791294e-05	-4.222492e-01
8.402955e-01	-9.388938e-05	-4.037773e-01
7.882363e-01	-8.879421e-05	-3.829556e-01
7.396357e-01	-8.770770e-05	-3.609492e-01
8.156327e-01	3.298901e-05	-1.436299e-01
8.334603e-01	1.534125e-05	-1.482777e-01
8.440953e-01	1.370769e-05	-1.539288e-01
8.486100e-01	3.502148e-05	-1.589577e-01
8.459292e-01	3.253758e-05	-1.648452e-01
8.390450e-01	3.123582e-05	-1.692995e-01
8.265988e-01	2.948712e-05	-1.747782e-01
8.104925e-01	2.995643e-05	-1.784940e-01
7.874226e-01	7.226761e-05	-1.836508e-01
7.594886e-01	6.024944e-05	-1.868561e-01
7.229561e-01	5.178302e-05	-1.925931e-01
6.769512e-01	1.868148e-05	-1.945516e-01
6.124892e-01	-8.043905e-06	-1.968550e-01
5.301489e-01	-3.727981e-06	-1.891114e-01
4.110985e-01	2.886803e-05	-1.705518e-01
2.510809e-01	-2.556809e-06	-1.201313e-01
1.361201e-02	1.780339e-06	-8.138722e-03
-3.294612e-01	5.218859e-06	2.525988e-01
-7.671314e-01	7.291161e-06	1.024310e+00
-4.891864e-01	8.345994e-06	3.102939e+00
2.997135e+00	8.848822e-06	3.001418e+00
3.105824e+00	8.853235e-06	9.596048e-01
2.621134e+00	8.406001e-06	6.760618e-02
2.232243e+00	7.100594e-06	-2.001839e-01
1.959951e+00	4.041036e-05	-3.608113e-01
1.764738e+00	3.766737e-05	-4.226330e-01
1.605946e+00	5.136402e-06	-4.716811e-01
1.483218e+00	5.873017e-05	-4.871556e-01
1.376794e+00	4.714644e-05	-5.001781e-01
1.290109e+00	3.622458e-05	-4.973725e-01
1.213842e+00	2.823567e-05	-4.948185e-01
1.149020e+00	-1.586124e-05	-4.846936e-01
1.089116e+00	-1.292732e-05	-4.753717e-01
1.036923e+00	-1.428607e-05	-4.629930e-01
9.856579e-01	-1.349578e-05	-4.511079e-01
9.371761e-01	-1.371648e-05	-4.364755e-01
8.883347e-01	-1.270436e-05	-4.216331e-01
8.393220e-01	-3.516890e-05	-4.033095e-01
7.886843e-01	-3.407248e-05	-3.831733e-01
7.398732e-01	-1.654143e-05	-3.610652e-01
8.183474e-01	1.435878e-03	-1.441080e-01
8.337127e-01	1.436118e-03	-1.483226e-01
8.444038e-01	1.437496e-03	-1.539851e-01
8.497082e-01	1.421663e-03	-1.591634e-01
8.459495e-01	1.382956e-03	-1.648492e-01
8.408812e-01	1.396222e-03	-1.696700e-01
8.274555e-01	1.257653e-03	-1.749593e-01
8.129257e-01	1.319867e-03	-1.790299e-01
7.893329e-01	1.052161e-03	-1.840963e-01
7.628463e-01	1.106673e-03	-1.876822e-01
7.260028e-01	7.605580e-04	-1.934047e-01
6.815190e-01	7.765005e-04	-1.958644e-01
6.170233e-01	3.481577e-04	-1.983123e-01
5.337195e-01	4.411384e-04	-1.903850e-01
4.231005e-01	-5.143305e-05	-1.755310e-01
2.599316e-01	-3.898742e-04	-1.243660e-01
1.640297e-02	-5.849645e-04	-9.807457e-03
-3.305148e-01	-6.076306e-04	2.534066e-01
-7.671492e-01	-6.846690e-04	1.024334e+00
-4.889000e-01	-7.461389e-04	3.101123e+00
2.994775e+00	-8.296926e-04	2.999054e+00
3.102779e+00	-8.821353e-04	9.586640e-01
2.617664e+00	-9.777637e-04	6.751667e-02
2.234860e+00	-1.091946e-03	-2.004186e-01
1.967443e+00	-1.029968e-03	-3.621904e-01
1.775334e+00	-8.178802e-04	-4.251706e-01
1.610321e+00	-4.722342e-04	-4.729660e-01
1.487441e+00	-6.395560e-04	-4.885428e-01
1.379895e+00	-3.325916e-04	-5.013047e-01
1.292493e+00	-3.943361e-04	-4.982916e-01
1.216321e+00	-1.119549e-04	-4.958293e-01
1.150456e+00	-2.098516e-04	-4.852994e-01
1.091364e+00	2.971937e-06	-4.763532e-01
1.037460e+00	-9.761155e-05	-4.632328e-01
9.871517e-01	1.195566e-05	-4.517915e-01
9.370262e-01	-2.156225e-05	-4.364057e-01
8.892118e-01	4.102109e-06	-4.220494e-01
8.395087e-01	1.260669e-05	-4.033992e-01
7.888539e-01	8.066132e-06	-3.832557e-01
7.423204e-01	7.028993e-06	-3.622594e-01
8.155924e-01	1.192590e-03	-1.436228e-01
8.333588e-01	1.207355e-03	-1.482597e-01
8.446842e-01	1.200205e-03	-1.540362e-01
8.500351e-01	1.194651e-03	-1.592246e-01
8.463439e-01	1.083429e-03	-1.649260e-01
8.413764e-01	1.059399e-03	-1.697699e-01
8.276234e-01	9.863031e-04	-1.749948e-01
8.135576e-01	9.684955e-04	-1.791690e-01
7.902127e-01	9.437170e-04	-1.843015e-01
7.633418e-01	8.651604e-04	-1.878040e-01
7.273014e-01	7.767717e-04	-1.937507e-01
6.823339e-01	7.066659e-04	-1.960986e-01
6.173846e-01	6.265288e-04	-1.984284e-01
5.356736e-01	4.777902e-04	-1.910821e-01
4.248012e-01	3.435419e-04	-1.762366e-01
2.611560e-01	2.368133e-04	-1.249518e-01
1.869538e-02	8.865183e-05	-1.117811e-02
-3.271262e-01	-6.151730e-05	2.508086e-01
-7.632202e-01	-2.171845e-04	1.019088e+00
-4.876410e-01	-3.710986e-04	3.093136e+00
2.990650e+00	-5.475991e-04	2.994923e+00
3.098920e+00	-6.972783e-04	9.574719e-01
2.614254e+00	-8.441075e-04	6.742873e-02
2.231456e+00	-9.802983e-04	-2.001133e-01
1.965729e+00	-1.144272e-03	-3.618750e-01
1.774454e+00	-1.261657e-03	-4.249599e-01
1.608273e+00	-1.369795e-03	-4.723646e-01
1.485366e+00	-1.499905e-03	-4.878612e-01
1.379897e+00	-1.583982e-03	-5.013053e-01
1.292920e+00	-1.647932e-03	-4.984565e-01
1.216174e+00	-1.700686e-03	-4.957694e-01
1.150410e+00	-1.777041e-03	-4.852798e-01
1.090743e+00	-1.798600e-03	-4.760818e-01
1.036906e+00	-1.804353e-03	-4.629853e-01
9.870243e-01	-1.826204e-03	-4.517332e-01
9.369288e-01	-1.847581e-03	-4.363603e-01
8.891636e-01	-1.765193e-03	-4.220265e-01
8.395182e-01	-1.775629e-03	-4.034038e-01
7.883710e-01	-1.775389e-03	-3.830211e-01
7.397143e-01	-1.791931e-03	-3.609876e-01
8.158695e-01	1.717905e-03	-1.436716e-01
8.336898e-01	1.707014e-03	-1.483186e-01
8.448157e-01	1.583418e-03	-1.540602e-01
8.529387e-01	1.676321e-03	-1.597685e-01
8.485053e-01	1.704033e-03	-1.653472e-01
8.426102e-01	1.713777e-03	-1.700188e-01
8.288122e-01	1.672996e-03	-1.752462e-01
8.135335e-01	1.610957e-03	-1.791637e-01
7.907393e-01	1.541120e-03	-1.844243e-01
7.650380e-01	1.420927e-03	-1.882214e-01
7.280764e-01	1.274764e-03	-1.939571e-01
6.835205e-01	1.191066e-03	-1.964396e-01
6.201756e-01	9.856508e-04	-1.993254e-01
5.379407e-01	7.884471e-04	-1.918908e-01