# vtk DataFile Version 2.0
OUTPUT by 3D-VPM
ASCII
DATASET UNSTRUCTURED_GRID
POINTS 820 double
9.510565e-01	0.000000e+00	-3.090170e-01
9.442611e-01	0.000000e+00	-3.078203e-01
9.267277e-01	0.000000e+00	-3.047010e-01
8.963175e-01	0.000000e+00	-2.991555e-01
8.562911e-01	0.000000e+00	-2.916579e-01
8.054250e-01	0.000000e+00	-2.817457e-01
7.470317e-01	0.000000e+00	-2.699633e-01
6.809074e-01	0.000000e+00	-2.559818e-01
6.100852e-01	0.000000e+00	-2.403847e-01
5.354138e-01	0.000000e+00	-2.229691e-01
4.593635e-01	0.000000e+00	-2.042585e-01
3.837764e-01	0.000000e+00	-1.841224e-01
3.103069e-01	0.000000e+00	-1.630077e-01
2.415927e-01	0.000000e+00	-1.409228e-01
1.782654e-01	0.000000e+00	-1.183331e-01
1.234349e-01	0.000000e+00	-9.558566e-02
7.662509e-02	0.000000e+00	-7.318920e-02
4.106998e-02	0.000000e+00	-5.193053e-02
1.528206e-02	0.000000e+00	-3.215886e-02
2.347037e-03	0.000000e+00	-1.488740e-02
0.000000e+00	0.000000e+00	0.000000e+00
1.064939e-02	0.000000e+00	1.066461e-02
3.126595e-02	0.000000e+00	1.703450e-02
6.375031e-02	0.000000e+00	1.787236e-02
1.050105e-01	0.000000e+00	1.417221e-02
1.560448e-01	0.000000e+00	4.777214e-03
2.137742e-01	0.000000e+00	-9.048270e-03
2.782849e-01	0.000000e+00	-2.799567e-02
3.468570e-01	0.000000e+00	-5.051783e-02
4.187060e-01	0.000000e+00	-7.662000e-02
4.916930e-01	0.000000e+00	-1.047585e-01
5.642168e-01	0.000000e+00	-1.343226e-01
6.348639e-01	0.000000e+00	-1.641238e-01
7.013280e-01	0.000000e+00	-1.931337e-01
7.630418e-01	0.000000e+00	-2.206893e-01
8.172084e-01	0.000000e+00	-2.454799e-01
8.641863e-01	0.000000e+00	-2.673591e-01
9.009752e-01	0.000000e+00	-2.848204e-01
9.288372e-01	0.000000e+00	-2.982085e-01
9.448555e-01	0.000000e+00	-3.059908e-01
9.510565e-01	0.000000e+00	-3.090170e-01
9.510565e-01	1.052632e+00	-3.090170e-01
9.442611e-01	1.052632e+00	-3.078203e-01
9.267277e-01	1.052632e+00	-3.047010e-01
8.963175e-01	1.052632e+00	-2.991555e-01
8.562911e-01	1.052632e+00	-2.916579e-01
8.054250e-01	1.052632e+00	-2.817457e-01
7.470317e-01	1.052632e+00	-2.699633e-01
6.809074e-01	1.052632e+00	-2.559818e-01
6.100852e-01	1.052632e+00	-2.403847e-01
5.354138e-01	1.052632e+00	-2.229691e-01
4.593635e-01	1.052632e+00	-2.042585e-01
3.837764e-01	1.052632e+00	-1.841224e-01
3.103069e-01	1.052632e+00	-1.630077e-01
2.415927e-01	1.052632e+00	-1.409228e-01
1.782654e-01	1.052632e+00	-1.183331e-01
1.234349e-01	1.052632e+00	-9.558566e-02
7.662509e-02	1.052632e+00	-7.318920e-02
4.106998e-02	1.052632e+00	-5.193053e-02
1.528206e-02	1.052632e+00	-3.215886e-02
2.347037e-03	1.052632e+00	-1.488740e-02
0.000000e+00	1.052632e+00	0.000000e+00
1.064939e-02	1.052632e+00	1.066461e-02
3.126595e-02	1.052632e+00	1.703450e-02
6.375031e-02	1.052632e+00	1.787236e-02
1.050105e-01	1.052632e+00	1.417221e-02
1.560448e-01	1.052632e+00	4.777214e-03
2.137742e-01	1.052632e+00	-9.048270e-03
2.782849e-01	1.052632e+00	-2.799567e-02
3.468570e-01	1.052632e+00	-5.051783e-02
4.187060e-01	1.052632e+00	-7.662000e-02
4.916930e-01	1.052632e+00	-1.047585e-01
5.642168e-01	1.052632e+00	-1.343226e-01
6.348639e-01	1.052632e+00	-1.641238e-01
7.013280e-01	1.052632e+00	-1.931337e-01
7.630418e-01	1.052632e+00	-2.206893e-01
8.172084e-01	1.052632e+00	-2.454799e-01
8.641863e-01	1.052632e+00	-2.673591e-01
9.009752e-01	1.052632e+00	-2.848204e-01
9.288372e-01	1.052632e+00	-2.982085e-01
9.448555e-01	1.052632e+00	-3.059908e-01
9.510565e-01	1.052632e+00	-3.090170e-01
9.510565e-01	2.105263e+00	-3.090170e-01
9.442611e-01	2.105263e+00	-3.078203e-01
9.267277e-01	2.105263e+00	-3.047010e-01
8.963175e-01	2.105263e+00	-2.991555e-01
8.562911e-01	2.105263e+00	-2.916579e-01
8.054250e-01	2.105263e+00	-2.817457e-01
7.470317e-01	2.105263e+00	-2.699633e-01
6.809074e-01	2.105263e+00	-2.559818e-01
6.100852e-01	2.105263e+00	-2.403847e-01
5.354138e-01	2.105263e+00	-2.229691e-01
4.593635e-01	2.105263e+00	-2.042585e-01
3.837764e-01	2.105263e+00	-1.841224e-01
3.103069e-01	2.105263e+00	-1.630077e-01
2.415927e-01	2.105263e+00	-1.409228e-01
1.782654e-01	2.105263e+00	-1.183331e-01
1.234349e-01	2.105263e+00	-9.558566e-02
7.662509e-02	2.105263e+00	-7.318920e-02
4.106998e-02	2.105263e+00	-5.193053e-02
1.528206e-02	2.105263e+00	-3.215886e-02
2.347037e-03	2.105263e+00	-1.488740e-02
0.000000e+00	2.105263e+00	0.000000e+00
1.064939e-02	2.105263e+00	1.066461e-02
3.126595e-02	2.105263e+00	1.703450e-02
6.375031e-02	2.105263e+00	1.787236e-02
1.050105e-01	2.105263e+00	1.417221e-02
1.560448e-01	2.105263e+00	4.777214e-03
2.137742e-01	2.105263e+00	-9.048270e-03
2.782849e-01	2.105263e+00	-2.799567e-02
3.468570e-01	2.105263e+00	-5.051783e-02
4.187060e-01	2.105263e+00	-7.662000e-02
4.916930e-01	2.105263e+00	-1.047585e-01
5.642168e-01	2.105263e+00	-1.343226e-01
6.348639e-01	2.105263e+00	-1.641238e-01
7.013280e-01	2.105263e+00	-1.931337e-01
7.630418e-01	2.105263e+00	-2.206893e-01
8.172084e-01	2.105263e+00	-2.454799e-01
8.641863e-01	2.105263e+00	-2.673591e-01
9.009752e-01	2.105263e+00	-2.848204e-01
9.288372e-01	2.105263e+00	-2.982085e-01
9.448555e-01	2.105263e+00	-3.059908e-01
9.510565e-01	2.105263e+00	-3.090170e-01
9.510565e-01	3.157895e+00	-3.090170e-01
9.442611e-01	3.157895e+00	-3.078203e-01
9.267277e-01	3.157895e+00	-3.047010e-01
8.963175e-01	3.157895e+00	-2.991555e-01
8.562911e-01	3.157895e+00	-2.916579e-01
8.054250e-01	3.157895e+00	-2.817457e-01
7.470317e-01	3.157895e+00	-2.699633e-01
6.809074e-01	3.157895e+00	-2.559818e-01
6.100852e-01	3.157895e+00	-2.403847e-01
5.354138e-01	3.157895e+00	-2.229691e-01
4.593635e-01	3.157895e+00	-2.042585e-01
3.837764e-01	3.157895e+00	-1.841224e-01
3.103069e-01	3.157895e+00	-1.630077e-01
2.415927e-01	3.157895e+00	-1.409228e-01
1.782654e-01	3.157895e+00	-1.183331e-01
1.234349e-01	3.157895e+00	-9.558566e-02
7.662509e-02	3.157895e+00	-7.318920e-02
4.106998e-02	3.157895e+00	-5.193053e-02
1.528206e-02	3.157895e+00	-3.215886e-02
2.347037e-03	3.157895e+00	-1.488740e-02
0.000000e+00	3.157895e+00	0.000000e+00
1.064939e-02	3.157895e+00	1.066461e-02
3.126595e-02	3.157895e+00	1.703450e-02
6.375031e-02	3.157895e+00	1.787236e-02
1.050105e-01	3.157895e+00	1.417221e-02
1.560448e-01	3.157895e+00	4.777214e-03
2.137742e-01	3.157895e+00	-9.048270e-03
2.782849e-01	3.157895e+00	-2.799567e-02
3.468570e-01	3.157895e+00	-5.051783e-02
4.187060e-01	3.157895e+00	-7.662000e-02
4.916930e-01	3.157895e+00	-1.047585e-01
5.642168e-01	3.157895e+00	-1.343226e-01
6.348639e-01	3.157895e+00	-1.641238e-01
7.013280e-01	3.157895e+00	-1.931337e-01
7.630418e-01	3.157895e+00	-2.206893e-01
8.172084e-01	3.157895e+00	-2.454799e-01
8.641863e-01	3.157895e+00	-2.673591e-01
9.009752e-01	3.157895e+00	-2.848204e-01
9.288372e-01	3.157895e+00	-2.982085e-01
9.448555e-01	3.157895e+00	-3.059908e-01
9.510565e-01	3.157895e+00	-3.090170e-01
9.510565e-01	4.210526e+00	-3.090170e-01
9.442611e-01	4.210526e+00	-3.078203e-01
9.267277e-01	4.210526e+00	-3.047010e-01
8.963175e-01	4.210526e+00	-2.991555e-01
8.562911e-01	4.210526e+00	-2.916579e-01
8.054250e-01	4.210526e+00	-2.817457e-01
7.470317e-01	4.210526e+00	-2.699633e-01
6.809074e-01	4.210526e+00	-2.559818e-01
6.100852e-01	4.210526e+00	-2.403847e-01
5.354138e-01	4.210526e+00	-2.229691e-01
4.593635e-01	4.210526e+00	-2.042585e-01
3.837764e-01	4.210526e+00	-1.841224e-01
3.103069e-01	4.210526e+00	-1.630077e-01
2.415927e-01	4.210526e+00	-1.409228e-01
1.782654e-01	4.210526e+00	-1.183331e-01
1.234349e-01	4.210526e+00	-9.558566e-02
7.662509e-02	4.210526e+00	-7.318920e-02
4.106998e-02	4.210526e+00	-5.193053e-02
1.528206e-02	4.210526e+00	-3.215886e-02
2.347037e-03	4.210526e+00	-1.488740e-02
0.000000e+00	4.210526e+00	0.000000e+00
1.064939e-02	4.210526e+00	1.066461e-02
3.126595e-02	4.210526e+00	1.703450e-02
6.375031e-02	4.210526e+00	1.787236e-02
1.050105e-01	4.210526e+00	1.417221e-02
1.560448e-01	4.210526e+00	4.777214e-03
2.137742e-01	4.210526e+00	-9.048270e-03
2.782849e-01	4.210526e+00	-2.799567e-02
3.468570e-01	4.210526e+00	-5.051783e-02
4.187060e-01	4.210526e+00	-7.662000e-02
4.916930e-01	4.210526e+00	-1.047585e-01
5.642168e-01	4.210526e+00	-1.343226e-01
6.348639e-01	4.210526e+00	-1.641238e-01
7.013280e-01	4.210526e+00	-1.931337e-01
7.630418e-01	4.210526e+00	-2.206893e-01
8.172084e-01	4.210526e+00	-2.454799e-01
8.641863e-01	4.210526e+00	-2.673591e-01
9.009752e-01	4.210526e+00	-2.848204e-01
9.288372e-01	4.210526e+00	-2.982085e-01
9.448555e-01	4.210526e+00	-3.059908e-01
9.510565e-01	4.210526e+00	-3.090170e-01
9.510565e-01	5.263158e+00	-3.090170e-01
9.442611e-01	5.263158e+00	-3.078203e-01
9.267277e-01	5.263158e+00	-3.047010e-01
8.963175e-01	5.263158e+00	-2.991555e-01
8.562911e-01	5.263158e+00	-2.916579e-01
8.054250e-01	5.263158e+00	-2.817457e-01
7.470317e-01	5.263158e+00	-2.699633e-01
6.809074e-01	5.263158e+00	-2.559818e-01
6.100852e-01	5.263158e+00	-2.403847e-01
5.354138e-01	5.263158e+00	-2.229691e-01
4.593635e-01	5.263158e+00	-2.042585e-01
3.837764e-01	5.263158e+00	-1.841224e-01
3.103069e-01	5.263158e+00	-1.630077e-01
2.415927e-01	5.263158e+00	-1.409228e-01
1.782654e-01	5.263158e+00	-1.183331e-01
1.234349e-01	5.263158e+00	-9.558566e-02
7.662509e-02	5.263158e+00	-7.318920e-02
4.106998e-02	5.263158e+00	-5.193053e-02
1.528206e-02	5.263158e+00	-3.215886e-02
2.347037e-03	5.263158e+00	-1.488740e-02
0.000000e+00	5.263158e+00	0.000000e+00
1.064939e-02	5.263158e+00	1.066461e-02
3.126595e-02	5.263158e+00	1.703450e-02
6.375031e-02	5.263158e+00	1.787236e-02
1.050105e-01	5.263158e+00	1.417221e-02
1.560448e-01	5.263158e+00	4.777214e-03
2.137742e-01	5.263158e+00	-9.048270e-03
2.782849e-01	5.263158e+00	-2.799567e-02
3.468570e-01	5.263158e+00	-5.051783e-02
4.187060e-01	5.263158e+00	-7.662000e-02
4.916930e-01	5.263158e+00	-1.047585e-01
5.642168e-01	5.263158e+00	-1.343226e-01
6.348639e-01	5.263158e+00	-1.641238e-01
7.013280e-01	5.263158e+00	-1.931337e-01
7.630418e-01	5.263158e+00	-2.206893e-01
8.172084e-01	5.263158e+00	-2.454799e-01
8.641863e-01	5.263158e+00	-2.673591e-01
9.009752e-01	5.263158e+00	-2.848204e-01
9.288372e-01	5.263158e+00	-2.982085e-01
9.448555e-01	5.263158e+00	-3.059908e-01
9.510565e-01	5.263158e+00	-3.090170e-01
9.510565e-01	6.315789e+00	-3.090170e-01
9.442611e-01	6.315789e+00	-3.078203e-01
[...]
CELL_DATA 760
VECTORS V double
8.414279e-01	-6.902815e-02	-1.481724e-01
8.655500e-01	-6.885457e-02	-1.539867e-01
8.835663e-01	-6.840482e-02	-1.611267e-01
8.953338e-01	-6.761044e-02	-1.677098e-01
8.978005e-01	-6.644954e-02	-1.749533e-01
8.991149e-01	-6.490448e-02	-1.814201e-01
8.920789e-01	-6.296496e-02	-1.886235e-01
8.847704e-01	-6.060691e-02	-1.948522e-01
8.704381e-01	-5.780188e-02	-2.030125e-01
8.548001e-01	-5.451731e-02	-2.103054e-01
8.294975e-01	-5.072773e-02	-2.209754e-01
7.985784e-01	-4.641895e-02	-2.295065e-01
7.512324e-01	-4.162394e-02	-2.414473e-01
6.892124e-01	-3.639383e-02	-2.458514e-01
6.025673e-01	-3.076657e-02	-2.499861e-01
4.718980e-01	-2.486494e-02	-2.257828e-01
2.701972e-01	-1.869691e-02	-1.615529e-01
-1.736222e-02	-1.242850e-02	1.331167e-02
-4.217445e-01	-5.861173e-03	5.631334e-01
-3.426697e-01	7.189874e-04	2.173575e+00
2.326945e+00	8.431707e-03	2.330270e+00
2.541636e+00	1.519615e-02	7.852880e-01
2.210513e+00	2.214206e-02	5.701514e-02
1.925499e+00	2.898918e-02	-1.726756e-01
1.720164e+00	3.597846e-02	-3.166685e-01
1.570389e+00	4.294484e-02	-3.760889e-01
1.435542e+00	4.988263e-02	-4.216320e-01
1.336730e+00	5.661332e-02	-4.390422e-01
1.250635e+00	6.301874e-02	-4.543457e-01
1.181696e+00	6.890103e-02	-4.555765e-01
1.121869e+00	7.414474e-02	-4.573261e-01
1.071613e+00	7.861274e-02	-4.520408e-01
1.027475e+00	8.224287e-02	-4.484669e-01
9.872012e-01	8.502742e-02	-4.407919e-01
9.499808e-01	8.701777e-02	-4.347795e-01
9.115294e-01	8.831184e-02	-4.245309e-01
8.743629e-01	8.903796e-02	-4.150016e-01
8.341890e-01	8.934516e-02	-4.008430e-01
7.910610e-01	8.938907e-02	-3.843280e-01
7.483100e-01	8.934338e-02	-3.651824e-01
8.268622e-01	-4.834025e-02	-1.456074e-01
8.473516e-01	-4.821595e-02	-1.507491e-01
8.618160e-01	-4.789744e-02	-1.571603e-01
8.705041e-01	-4.733365e-02	-1.630588e-01
8.702578e-01	-4.650196e-02	-1.695861e-01
8.688761e-01	-4.538353e-02	-1.753187e-01
8.588796e-01	-4.396769e-02	-1.816037e-01
8.480129e-01	-4.223946e-02	-1.867571e-01
8.293458e-01	-4.018401e-02	-1.934285e-01
8.083611e-01	-3.778620e-02	-1.988801e-01
7.765774e-01	-3.501629e-02	-2.068776e-01
7.379220e-01	-3.192469e-02	-2.120742e-01
6.816226e-01	-2.848880e-02	-2.190746e-01
6.085770e-01	-2.476369e-02	-2.170877e-01
5.087844e-01	-2.077528e-02	-2.110786e-01
3.607931e-01	-1.660664e-02	-1.726238e-01
1.373969e-01	-1.225953e-02	-8.215064e-02
-1.814703e-01	-7.847340e-03	1.391338e-01
-6.031633e-01	-3.230228e-03	8.053724e-01
-4.198309e-01	1.388919e-03	2.663013e+00
2.682436e+00	6.788676e-03	2.686269e+00
2.844048e+00	1.150437e-02	8.787240e-01
2.433230e+00	1.631814e-02	6.275963e-02
2.097322e+00	2.102708e-02	-1.880844e-01
1.860477e+00	2.578992e-02	-3.424990e-01
1.689641e+00	3.048698e-02	-4.046483e-01
1.539060e+00	3.511246e-02	-4.520360e-01
1.427806e+00	3.954823e-02	-4.689559e-01
1.330717e+00	4.372243e-02	-4.834387e-01
1.251903e+00	4.752742e-02	-4.826431e-01
1.182668e+00	5.085288e-02	-4.821109e-01
1.123338e+00	5.367004e-02	-4.738601e-01
1.070393e+00	5.592920e-02	-4.671997e-01
1.021742e+00	5.763479e-02	-4.562146e-01
9.765909e-01	5.882805e-02	-4.469582e-01
9.307613e-01	5.957983e-02	-4.334879e-01
8.867504e-01	5.997851e-02	-4.208811e-01
8.402938e-01	6.012488e-02	-4.037765e-01
7.917021e-01	6.012124e-02	-3.846394e-01
7.448117e-01	6.007793e-02	-3.634752e-01
8.205672e-01	-2.041007e-02	-1.444989e-01
8.397271e-01	-2.035823e-02	-1.493926e-01
8.527117e-01	-2.022788e-02	-1.555001e-01
8.598721e-01	-1.999187e-02	-1.610672e-01
8.580832e-01	-1.963329e-02	-1.672137e-01
8.551187e-01	-1.913546e-02	-1.725428e-01
8.434976e-01	-1.848864e-02	-1.783513e-01
8.308964e-01	-1.768749e-02	-1.829875e-01
8.103396e-01	-1.670490e-02	-1.889957e-01
7.869518e-01	-1.558473e-02	-1.936128e-01
7.528871e-01	-1.431273e-02	-2.005666e-01
7.115950e-01	-1.290368e-02	-2.045080e-01
6.517774e-01	-1.134763e-02	-2.094823e-01
5.746255e-01	-9.680752e-03	-2.049767e-01
4.698442e-01	-7.913128e-03	-1.949235e-01
3.151023e-01	-6.077217e-03	-1.507628e-01
8.311401e-02	-4.169751e-03	-4.969448e-02
-2.482680e-01	-2.238648e-03	1.903478e-01
-6.766814e-01	-2.230566e-04	9.035374e-01
-4.508709e-01	1.785110e-03	2.859901e+00
2.823533e+00	4.114089e-03	2.827567e+00
2.961769e+00	6.121956e-03	9.150965e-01
2.517851e+00	8.135323e-03	6.494224e-02
2.160618e+00	1.005905e-02	-1.937607e-01
1.910298e+00	1.194939e-02	-3.516706e-01
1.730245e+00	1.375279e-02	-4.143723e-01
1.572754e+00	1.546465e-02	-4.619322e-01
1.456099e+00	1.704435e-02	-4.782486e-01
1.354632e+00	1.847439e-02	-4.921267e-01
1.271679e+00	1.974032e-02	-4.902674e-01
1.198781e+00	2.080552e-02	-4.886792e-01
1.136469e+00	2.166576e-02	-4.793990e-01
1.080541e+00	2.230275e-02	-4.716292e-01
1.029162e+00	2.277432e-02	-4.595276e-01
9.815287e-01	2.307638e-02	-4.492181e-01
9.334847e-01	2.324102e-02	-4.347563e-01
8.875222e-01	2.330349e-02	-4.212475e-01
8.394013e-01	2.330126e-02	-4.033476e-01
7.894775e-01	2.327080e-02	-3.835587e-01
7.416778e-01	2.324400e-02	-3.619458e-01
8.181638e-01	-1.021928e-02	-1.440757e-01
8.367505e-01	-1.019825e-02	-1.488631e-01
8.489798e-01	-1.014196e-02	-1.548195e-01
8.553678e-01	-1.003616e-02	-1.602235e-01
8.527909e-01	-9.871001e-03	-1.661824e-01
8.489876e-01	-9.623152e-03	-1.713057e-01
8.364981e-01	-9.310508e-03	-1.768713e-01
8.226030e-01	-8.913094e-03	-1.811611e-01
8.009745e-01	-8.439824e-03	-1.868115e-01
7.769551e-01	-7.876005e-03	-1.911533e-01
7.415350e-01	-7.236674e-03	-1.975425e-01
6.984075e-01	-6.499198e-03	-2.007180e-01
6.368526e-01	-5.693778e-03	-2.046855e-01
5.575444e-01	-4.817706e-03	-1.988837e-01
4.501394e-01	-3.883021e-03	-1.867486e-01
2.918572e-01	-2.907152e-03	-1.396410e-01
5.539974e-02	-1.893421e-03	-3.312392e-02
-2.824198e-01	-8.599195e-04	2.165321e-01
-7.142730e-01	2.200865e-04	9.537314e-01
-4.667037e-01	1.280092e-03	2.960330e+00
2.895097e+00	2.538568e-03	2.899235e+00
3.021012e+00	3.602108e-03	9.334007e-01
2.560056e+00	4.661063e-03	6.603082e-02
2.191840e+00	5.663996e-03	-1.965606e-01
1.934609e+00	6.643451e-03	-3.561460e-01
1.749847e+00	7.563419e-03	-4.190667e-01
1.588856e+00	8.427715e-03	-4.666617e-01
1.469508e+00	9.224659e-03	-4.826526e-01
1.365844e+00	9.933300e-03	-4.962002e-01
1.281317e+00	1.055232e-02	-4.939832e-01
1.206780e+00	1.109078e-02	-4.919398e-01
1.142481e+00	1.152211e-02	-4.819353e-01
1.085235e+00	1.186019e-02	-4.736779e-01
1.032963e+00	1.209834e-02	-4.612248e-01
9.841940e-01	1.225843e-02	-4.504379e-01
9.351512e-01	1.233942e-02	-4.355324e-01
8.883116e-01	1.238338e-02	-4.216221e-01
8.394625e-01	1.239359e-02	-4.033770e-01
7.889787e-01	1.238676e-02	-3.833163e-01
7.407085e-01	1.237809e-02	-3.614728e-01
8.170363e-01	-5.651218e-03	-1.438771e-01
8.351960e-01	-5.640100e-03	-1.485865e-01
8.470153e-01	-5.608606e-03	-1.544613e-01
8.529632e-01	-5.549248e-03	-1.597731e-01
8.496308e-01	-5.453090e-03	-1.655665e-01
8.453894e-01	-5.312842e-03	-1.705796e-01
8.325153e-01	-5.141538e-03	-1.760292e-01
8.184988e-01	-4.921905e-03	-1.802572e-01
7.963409e-01	-4.657059e-03	-1.857308e-01
7.711561e-01	-4.321376e-03	-1.897266e-01
7.348939e-01	-3.930551e-03	-1.957733e-01
6.910313e-01	-3.494404e-03	-1.985981e-01
6.284254e-01	-3.023016e-03	-2.019769e-01
5.477238e-01	-2.602805e-03	-1.953805e-01
4.387565e-01	-2.059651e-03	-1.820262e-01
2.784627e-01	-1.452283e-03	-1.332323e-01
3.940007e-02	-8.430605e-04	-2.355760e-02
-3.023226e-01	-2.236710e-04	2.317916e-01
-7.358651e-01	4.239199e-04	9.825623e-01
-4.758755e-01	1.068371e-03	3.018507e+00
2.937194e+00	1.811360e-03	2.941392e+00
3.055108e+00	2.445914e-03	9.439351e-01
2.584224e+00	3.074113e-03	6.665417e-02
2.209727e+00	3.664700e-03	-1.981647e-01
1.948393e+00	4.234121e-03	-3.586835e-01
1.760794e+00	4.757247e-03	-4.216884e-01
1.597885e+00	5.242813e-03	-4.693136e-01
1.476954e+00	5.786490e-03	-4.850982e-01
1.371928e+00	6.190667e-03	-4.984104e-01
1.286286e+00	6.528968e-03	-4.958987e-01
1.210925e+00	6.809790e-03	-4.936298e-01
1.146301e+00	7.039174e-03	-4.835465e-01
1.088262e+00	7.236599e-03	-4.749991e-01
1.034932e+00	7.378977e-03	-4.621039e-01
9.854647e-01	7.477073e-03	-4.510194e-01
9.358671e-01	7.525530e-03	-4.358658e-01
8.888551e-01	7.548858e-03	-4.218801e-01
8.396026e-01	7.555278e-03	-4.034443e-01
7.887836e-01	7.551436e-03	-3.832215e-01
7.403508e-01	7.547177e-03	-3.612982e-01
8.162980e-01	-3.274569e-03	-1.437471e-01
8.342374e-01	-3.267556e-03	-1.484160e-01
8.457862e-01	-3.248704e-03	-1.542371e-01
8.513940e-01	-3.212320e-03	-1.594792e-01
8.479588e-01	-3.150711e-03	-1.652407e-01
8.435852e-01	-3.098178e-03	-1.702156e-01
8.304504e-01	-2.981169e-03	-1.755926e-01
8.157033e-01	-2.837422e-03	-1.796416e-01
7.928637e-01	-2.653402e-03	-1.849198e-01
7.674164e-01	-2.421306e-03	-1.888065e-01
7.307264e-01	-2.182150e-03	-1.946631e-01
6.863106e-01	-1.956640e-03	-1.972414e-01
6.244310e-01	-1.642822e-03	-2.006931e-01
5.432980e-01	-1.424934e-03	-1.938018e-01
4.314601e-01	-1.060764e-03	-1.789991e-01
2.694184e-01	-6.834064e-04	-1.289050e-01
2.916135e-02	-2.880398e-04	-1.743579e-02
-3.148225e-01	1.064955e-04	2.413753e-01
-7.499549e-01	5.178278e-04	1.001376e+00
-4.817060e-01	9.413118e-04	3.055491e+00
2.962591e+00	1.395508e-03	2.966824e+00
3.076510e+00	1.797378e-03	9.505478e-01
2.599266e+00	2.193324e-03	6.704215e-02
2.220555e+00	2.563220e-03	-1.991357e-01
1.956499e+00	2.913008e-03	-3.601758e-01
1.767110e+00	3.239330e-03	-4.232011e-01
1.604500e+00	3.652683e-03	-4.712565e-01
1.482600e+00	3.902179e-03	-4.869526e-01
1.375513e+00	4.152320e-03	-4.997128e-01
1.289129e+00	4.370928e-03	-4.969948e-01
1.213169e+00	4.535820e-03	-4.945443e-01
1.147931e+00	4.641425e-03	-4.842340e-01
1.089786e+00	4.735887e-03	-4.756645e-01
1.036445e+00	4.810762e-03	-4.627796e-01
9.865883e-01	4.856744e-03	-4.515337e-01
9.365264e-01	4.918210e-03	-4.361729e-01
8.890389e-01	4.927309e-03	-4.219673e-01
8.396004e-01	4.929202e-03	-4.034433e-01
7.886076e-01	4.926256e-03	-3.831360e-01
7.400563e-01	4.923151e-03	-3.611545e-01
8.158594e-01	-2.026209e-03	-1.436699e-01
8.336794e-01	-2.022182e-03	-1.483167e-01
8.450699e-01	-2.012008e-03	-1.541065e-01
8.504527e-01	-1.993420e-03	-1.593028e-01
8.473541e-01	-1.963311e-03	-1.651229e-01
8.423953e-01	-2.007272e-03	-1.699755e-01
8.284856e-01	-1.885051e-03	-1.751771e-01
8.138266e-01	-1.780196e-03	-1.792283e-01
7.907211e-01	-1.681074e-03	-1.844201e-01
7.649707e-01	-1.539770e-03	-1.882048e-01
7.288176e-01	-1.383530e-03	-1.941546e-01
6.838603e-01	-1.212988e-03	-1.965373e-01
6.209887e-01	-1.013265e-03	-1.995868e-01
5.391680e-01	-7.340623e-04	-1.923286e-01
4.266877e-01	-4.993587e-04	-1.770192e-01
2.642379e-01	-2.927339e-04	-1.264264e-01
2.251252e-02	-4.921689e-05	-1.346040e-02
-3.229371e-01	1.729128e-04	2.475968e-01
-7.588399e-01	4.323320e-04	1.013239e+00
-4.854267e-01	6.888709e-04	3.079091e+00
2.979269e+00	9.835260e-04	2.983527e+00
3.090154e+00	1.233356e-03	9.547635e-01
2.608850e+00	1.473596e-03	6.728933e-02
2.227522e+00	1.731432e-03	-1.997605e-01
1.961948e+00	1.950838e-03	-3.611790e-01
1.773580e+00	2.163851e-03	-4.247504e-01
1.607813e+00	2.361336e-03	-4.722293e-01
1.483888e+00	2.462113e-03	-4.873756e-01
1.378035e+00	2.606213e-03	-5.006290e-01
1.291123e+00	2.742231e-03	-4.977637e-01
1.214315e+00	2.854775e-03	-4.950114e-01
1.148854e+00	2.944928e-03	-4.846237e-01
1.090527e+00	3.043182e-03	-4.759877e-01
1.036686e+00	3.108399e-03	-4.628874e-01
9.871653e-01	3.228946e-03	-4.517978e-01
9.372664e-01	3.220397e-03	-4.365175e-01
8.891267e-01	3.214421e-03	-4.220090e-01
8.395986e-01	3.211457e-03	-4.034424e-01
7.885041e-01	3.208206e-03	-3.830857e-01
7.398753e-01	3.205921e-03	-3.610662e-01
8.156223e-01	-1.127619e-03	-1.436281e-01
8.334106e-01	-1.124787e-03	-1.482689e-01
8.447777e-01	-1.116104e-03	-1.540532e-01
8.501496e-01	-1.125316e-03	-1.592461e-01
8.483747e-01	-1.105486e-03	-1.653218e-01
8.420478e-01	-1.054469e-03	-1.699054e-01
8.269714e-01	-1.013637e-03	-1.748570e-01
8.128094e-01	-9.854539e-04	-1.790042e-01
7.896130e-01	-9.928512e-04	-1.841616e-01
7.635103e-01	-9.129717e-04	-1.878455e-01
7.264551e-01	-8.101912e-04	-1.935252e-01
6.813791e-01	-6.554281e-04	-1.958242e-01
6.178062e-01	-5.756365e-04	-1.985639e-01
5.356192e-01	-3.412864e-04	-1.910627e-01
4.242395e-01	-2.512741e-04	-1.760035e-01
2.611749e-01	-1.231995e-04	-1.249608e-01
1.915422e-02	1.407517e-05	-1.145245e-02
-3.270285e-01	1.561698e-04	2.507337e-01
-7.642132e-01	3.056949e-04	1.020414e+00
-4.876681e-01	4.547074e-04	3.093308e+00
2.989251e+00	6.262160e-04	2.993522e+00
3.097984e+00	7.719142e-04	9.571827e-01
2.615461e+00	9.151190e-04	6.745986e-02
2.232283e+00	1.048810e-03	-2.001875e-01
1.965184e+00	1.176404e-03	-3.617747e-01
1.774135e+00	1.296070e-03	-4.248835e-01
1.608950e+00	1.322580e-03	-4.725635e-01
1.486017e+00	1.432878e-03	-4.880750e-01
1.379165e+00	1.539394e-03	-5.010396e-01
1.292265e+00	1.599354e-03	-4.982039e-01
1.215707e+00	1.667108e-03	-4.955790e-01
1.150331e+00	1.812278e-03	-4.852464e-01
1.091979e+00	1.832707e-03	-4.766213e-01
1.039073e+00	1.874288e-03	-4.639528e-01
9.885143e-01	1.886019e-03	-4.524152e-01
9.362525e-01	1.871155e-03	-4.360453e-01
8.888263e-01	1.874118e-03	-4.218664e-01
8.394130e-01	1.895780e-03	-4.033532e-01
7.883350e-01	1.892242e-03	-3.830036e-01
7.397063e-01	1.890675e-03	-3.609837e-01
8.153842e-01	-1.360227e-03	-1.435862e-01
8.329945e-01	-1.360278e-03	-1.481949e-01
8.452007e-01	-1.360951e-03	-1.541304e-01
8.500976e-01	-1.343162e-03	-1.592363e-01
8.458726e-01	-1.301756e-03	-1.648342e-01
8.408246e-01	-1.224574e-03	-1.696586e-01
8.274337e-01	-1.128461e-03	-1.749547e-01
8.135473e-01	-1.192310e-03	-1.791668e-01
7.897219e-01	-9.738125e-04	-1.841870e-01
7.625718e-01	-1.024206e-03	-1.876146e-01
7.254544e-01	-6.688936e-04	-1.932586e-01
6.807114e-01	-7.586904e-04	-1.956323e-01
6.166888e-01	-3.258512e-04	-1.982048e-01
5.342377e-01	-3.915795e-04	-1.905699e-01
4.231742e-01	6.792144e-05	-1.755616e-01
2.593581e-01	4.080152e-04	-1.240916e-01
1.655251e-02	6.032228e-04	-9.896869e-03
-3.303914e-01	6.510945e-04	2.533120e-01
-7.670833e-01	6.989817e-04	1.024246e+00
-4.888929e-01	7.606374e-04	3.101078e+00
2.994803e+00	8.422175e-04	2.999083e+00
3.102842e+00	9.208904e-04	9.586837e-01
2.617753e+00	1.017665e-03	6.751896e-02
2.233986e+00	1.099650e-03	-2.003402e-01
1.966907e+00	1.034073e-03	-3.620918e-01
1.775984e+00	8.506639e-04	-4.253263e-01
1.609948e+00	4.979940e-04	-4.728564e-01
1.486895e+00	6.297158e-04	-4.883633e-01
1.380195e+00	3.112391e-04	-5.014136e-01
1.292736e+00	4.395065e-04	-4.983855e-01
1.216975e+00	1.434210e-04	-4.960958e-01
1.150996e+00	2.930380e-04	-4.855271e-01
1.091344e+00	3.313512e-05	-4.763445e-01
1.037472e+00	8.836316e-05	-4.632383e-01
9.871434e-01	-1.296790e-04	-4.517877e-01
9.370150e-01	-7.202099e-05	-4.364004e-01
8.896338e-01	-8.648835e-05	-4.222497e-01
8.402961e-01	-9.245555e-05	-4.037776e-01
7.882362e-01	-8.735864e-05	-3.829556e-01
7.396352e-01	-8.627332e-05	-3.609490e-01
8.156308e-01	3.226358e-05	-1.436296e-01
8.334579e-01	1.461443e-05	-1.482773e-01
8.440925e-01	1.299233e-05	-1.539283e-01
8.486067e-01	3.433452e-05	-1.589571e-01
8.459254e-01	3.187899e-05	-1.648445e-01
8.390410e-01	3.061398e-05	-1.692987e-01
8.265944e-01	2.890769e-05	-1.747773e-01
8.104874e-01	2.944644e-05	-1.784929e-01
7.874167e-01	7.178569e-05	-1.836494e-01
7.594821e-01	5.983111e-05	-1.868544e-01
7.229486e-01	5.143018e-05	-1.925911e-01
6.769425e-01	1.838553e-05	-1.945491e-01
6.124794e-01	-8.261105e-06	-1.968519e-01
5.301377e-01	-3.873859e-06	-1.891073e-01
4.110852e-01	2.880768e-05	-1.705463e-01
2.510645e-01	-2.557131e-06	-1.201235e-01
1.359187e-02	1.857584e-06	-8.126681e-03
-3.294862e-01	5.373561e-06	2.526181e-01
-7.671591e-01	7.525672e-06	1.024348e+00
-4.891981e-01	8.659005e-06	3.103013e+00
2.997187e+00	9.252283e-06	3.001470e+00
3.105866e+00	9.334413e-06	9.596180e-01
2.621164e+00	8.964766e-06	6.760695e-02
2.232265e+00	7.733707e-06	-2.001858e-01
1.959968e+00	4.113220e-05	-3.608144e-01
1.764751e+00	3.846026e-05	-4.226362e-01
1.605956e+00	5.987176e-06	-4.716841e-01
1.483226e+00	5.965138e-05	-4.871582e-01
1.376800e+00	4.813015e-05	-5.001805e-01
1.290114e+00	3.726638e-05	-4.973747e-01
1.213846e+00	2.933072e-05	-4.948205e-01
1.149024e+00	-1.470500e-05	-4.846953e-01
1.089119e+00	-1.171844e-05	-4.753733e-01
1.036926e+00	-1.306442e-05	-4.629943e-01
9.856603e-01	-1.224730e-05	-4.511090e-01
9.371777e-01	-1.245064e-05	-4.364762e-01
8.883357e-01	-1.142878e-05	-4.216336e-01
8.393224e-01	-3.389864e-05	-4.033097e-01
7.886841e-01	-3.280322e-05	-3.831732e-01
7.398725e-01	-1.526807e-05	-3.610648e-01
8.183462e-01	1.434981e-03	-1.441078e-01
8.337101e-01	1.435224e-03	-1.483222e-01
8.444005e-01	1.436612e-03	-1.539845e-01
8.497043e-01	1.420795e-03	-1.591627e-01
8.459452e-01	1.382111e-03	-1.648483e-01
8.408763e-01	1.395406e-03	-1.696690e-01
8.274500e-01	1.256886e-03	-1.749582e-01
8.129198e-01	1.319159e-03	-1.790286e-01
7.893264e-01	1.051486e-03	-1.840948e-01
7.628388e-01	1.106068e-03	-1.876803e-01
7.259944e-01	7.600282e-04	-1.934025e-01
6.815094e-01	7.760472e-04	-1.958616e-01
6.170122e-01	3.477922e-04	-1.983087e-01
5.337065e-01	4.408754e-04	-1.903804e-01
4.230854e-01	-5.160142e-05	-1.755248e-01
2.599135e-01	-3.899229e-04	-1.243573e-01
1.638074e-02	-5.849136e-04	-9.794169e-03
-3.305425e-01	-6.074780e-04	2.534279e-01
-7.671798e-01	-6.844187e-04	1.024375e+00
-4.889129e-01	-7.457812e-04	3.101204e+00
2.994832e+00	-8.292111e-04	2.999112e+00
3.102826e+00	-8.815382e-04	9.586785e-01
2.617697e+00	-9.770614e-04	6.751751e-02
2.234884e+00	-1.091142e-03	-2.004207e-01
1.967461e+00	-1.029096e-03	-3.621938e-01
1.775348e+00	-8.169111e-04	-4.251740e-01
1.610332e+00	-4.711830e-04	-4.729693e-01
1.487451e+00	-6.384179e-04	-4.885459e-01
1.379903e+00	-3.313658e-04	-5.013075e-01
1.292499e+00	-3.930391e-04	-4.982941e-01
1.216327e+00	-1.105968e-04	-4.958316e-01
1.150461e+00	-2.084163e-04	-4.853015e-01
1.091368e+00	4.446335e-06	-4.763548e-01
1.037463e+00	-9.611747e-05	-4.632342e-01
9.871542e-01	1.346483e-05	-4.517927e-01
9.370281e-01	-2.003619e-05	-4.364065e-01
8.892130e-01	5.636906e-06	-4.220500e-01
8.395091e-01	1.414444e-05	-4.033994e-01
7.888538e-01	9.603400e-06	-3.832556e-01
7.423206e-01	8.565125e-06	-3.622595e-01
8.155899e-01	1.191563e-03	-1.436224e-01
8.333557e-01	1.206336e-03	-1.482591e-01
8.446805e-01	1.199191e-03	-1.540355e-01
8.500308e-01	1.193646e-03	-1.592238e-01
8.463390e-01	1.082431e-03	-1.649251e-01
8.413710e-01	1.058419e-03	-1.697688e-01
8.276173e-01	9.853354e-04	-1.749936e-01
8.135513e-01	9.675556e-04	-1.791676e-01
7.902055e-01	9.428346e-04	-1.842998e-01
7.633333e-01	8.643256e-04	-1.878020e-01
7.272919e-01	7.759966e-04	-1.937481e-01
6.823231e-01	7.059736e-04	-1.960955e-01
6.173722e-01	6.259262e-04	-1.984244e-01
5.356594e-01	4.772874e-04	-1.910770e-01
4.247844e-01	3.431488e-04	-1.762296e-01
2.611356e-01	2.365516e-04	-1.249421e-01
1.867095e-02	8.851421e-05	-1.116350e-02
-3.271564e-01	-6.152787e-05	2.508317e-01
-7.632536e-01	-2.170614e-04	1.019133e+00
-4.876551e-01	-3.708417e-04	3.093226e+00
2.990714e+00	-5.471872e-04	2.994987e+00
3.098973e+00	-6.967327e-04	9.574881e-01
2.614291e+00	-8.434275e-04	6.742967e-02
2.231482e+00	-9.794889e-04	-2.001156e-01
1.965749e+00	-1.143350e-03	-3.618787e-01
1.774470e+00	-1.260615e-03	-4.249638e-01
1.608286e+00	-1.368654e-03	-4.723684e-01
1.485377e+00	-1.498660e-03	-4.878646e-01
1.379905e+00	-1.582659e-03	-5.013085e-01
1.292928e+00	-1.646533e-03	-4.984593e-01
1.216181e+00	-1.699225e-03	-4.957720e-01
1.150415e+00	-1.775546e-03	-4.852821e-01
1.090747e+00	-1.797064e-03	-4.760837e-01
1.036909e+00	-1.802764e-03	-4.629869e-01
9.870271e-01	-1.824599e-03	-4.517345e-01
9.369310e-01	-1.845967e-03	-4.363613e-01
8.891649e-01	-1.763566e-03	-4.220271e-01
8.395187e-01	-1.774001e-03	-4.034040e-01
7.883708e-01	-1.773760e-03	-3.830210e-01
7.397135e-01	-1.790309e-03	-3.609872e-01
8.158670e-01	1.716167e-03	-1.436712e-01
8.336866e-01	1.705271e-03	-1.483180e-01
8.448118e-01	1.581654e-03	-1.540595e-01
8.529344e-01	1.674534e-03	-1.597677e-01
8.485004e-01	1.702195e-03	-1.653463e-01
8.426048e-01	1.711861e-03	-1.700178e-01
8.288061e-01	1.670931e-03	-1.752449e-01
8.135264e-01	1.608670e-03	-1.791622e-01
7.907313e-01	1.538500e-03	-1.844225e-01
7.650291e-01	1.417762e-03	-1.882192e-01
7.280662e-01	1.270651e-03	-1.939544e-01
6.835086e-01	1.185345e-03	-1.964362e-01
6.201619e-01	9.788672e-04	-1.993210e-01
5.379246e-01	7.829481e-04	-1.918850e-01