# vtk DataFile Version 2.0
OUTPUT by 3D-VPM
ASCII
DATASET UNSTRUCTURED_GRID
POINTS 820 double
9.510565e-01	0.000000e+00	-3.090170e-01
9.442611e-01	0.000000e+00	-3.078203e-01
9.267277e-01	0.000000e+00	-3.047010e-01
8.963175e-01	0.000000e+00	-2.991555e-01
8.562911e-01	0.000000e+00	-2.916579e-01
8.054250e-01	0.000000e+00	-2.817457e-01
7.470317e-01	0.000000e+00	-2.699633e-01
6.809074e-01	0.000000e+00	-2.559818e-01
6.100852e-01	0.000000e+00	-2.403847e-01
5.354138e-01	0.000000e+00	-2.229691e-01
4.593635e-01	0.000000e+00	-2.042585e-01
3.837764e-01	0.000000e+00	-1.841224e-01
3.103069e-01	0.000000e+00	-1.630077e-01
2.415927e-01	0.000000e+00	-1.409228e-01
1.782654e-01	0.000000e+00	-1.183331e-01
1.234349e-01	0.000000e+00	-9.558566e-02
7.662509e-02	0.000000e+00	-7.318920e-02
4.106998e-02	0.000000e+00	-5.193053e-02
1.528206e-02	0.000000e+00	-3.215886e-02
2.347037e-03	0.000000e+00	-1.488740e-02
0.000000e+00	0.000000e+00	0.000000e+00
1.064939e-02	0.000000e+00	1.066461e-02
3.126595e-02	0.000000e+00	1.703450e-02
6.375031e-02	0.000000e+00	1.787236e-02
1.050105e-01	0.000000e+00	1.417221e-02
1.560448e-01	0.000000e+00	4.777214e-03
2.137742e-01	0.000000e+00	-9.048270e-03
2.782849e-01	0.000000e+00	-2.799567e-02
3.468570e-01	0.000000e+00	-5.051783e-02
4.187060e-01	0.000000e+00	-7.662000e-02
4.916930e-01	0.000000e+00	-1.047585e-01
5.642168e-01	0.000000e+00	-1.343226e-01
6.348639e-01	0.000000e+00	-1.641238e-01
7.013280e-01	0.000000e+00	-1.931337e-01
7.630418e-01	0.000000e+00	-2.206893e-01
8.172084e-01	0.000000e+00	-2.454799e-01
8.641863e-01	0.000000e+00	-2.673591e-01
9.009752e-01	0.000000e+00	-2.848204e-01
9.288372e-01	0.000000e+00	-2.982085e-01
9.448555e-01	0.000000e+00	-3.059908e-01
9.510565e-01	0.000000e+00	-3.090170e-01
9.510565e-01	1.052632e+00	-3.090170e-01
9.442611e-01	1.052632e+00	-3.078203e-01
9.267277e-01	1.052632e+00	-3.047010e-01
8.963175e-01	1.052632e+00	-2.991555e-01
8.562911e-01	1.052632e+00	-2.916579e-01
8.054250e-01	1.052632e+00	-2.817457e-01
7.470317e-01	1.052632e+00	-2.699633e-01
6.809074e-01	1.052632e+00	-2.559818e-01
6.100852e-01	1.052632e+00	-2.403847e-01
5.354138e-01	1.052632e+00	-2.229691e-01
4.593635e-01	1.052632e+00	-2.042585e-01
3.837764e-01	1.052632e+00	-1.841224e-01
3.103069e-01	1.052632e+00	-1.630077e-01
2.415927e-01	1.052632e+00	-1.409228e-01
1.782654e-01	1.052632e+00	-1.183331e-01
1.234349e-01	1.052632e+00	-9.558566e-02
7.662509e-02	1.052632e+00	-7.318920e-02
4.106998e-02	1.052632e+00	-5.193053e-02
1.528206e-02	1.052632e+00	-3.215886e-02
2.347037e-03	1.052632e+00	-1.488740e-02
0.000000e+00	1.052632e+00	0.000000e+00
1.064939e-02	1.052632e+00	1.066461e-02
3.126595e-02	1.052632e+00	1.703450e-02
6.375031e-02	1.052632e+00	1.787236e-02
1.050105e-01	1.052632e+00	1.417221e-02
1.560448e-01	1.052632e+00	4.777214e-03
2.137742e-01	1.052632e+00	-9.048270e-03
2.782849e-01	1.052632e+00	-2.799567e-02
3.468570e-01	1.052632e+00	-5.051783e-02
4.187060e-01	1.052632e+00	-7.662000e-02
4.916930e-01	1.052632e+00	-1.047585e-01
5.642168e-01	1.052632e+00	-1.343226e-01
6.348639e-01	1.052632e+00	-1.641238e-01
7.013280e-01	1.052632e+00	-1.931337e-01
7.630418e-01	1.052632e+00	-2.206893e-01
8.172084e-01	1.052632e+00	-2.454799e-01
8.641863e-01	1.052632e+00	-2.673591e-01
9.009752e-01	1.052632e+00	-2.848204e-01
9.288372e-01	1.052632e+00	-2.982085e-01
9.448555e-01	1.052632e+00	-3.059908e-01
9.510565e-01	1.052632e+00	-3.090170e-01
9.510565e-01	2.105263e+00	-3.090170e-01
9.442611e-01	2.105263e+00	-3.078203e-01
9.267277e-01	2.105263e+00	-3.047010e-01
8.963175e-01	2.105263e+00	-2.991555e-01
8.562911e-01	2.105263e+00	-2.916579e-01
8.054250e-01	2.105263e+00	-2.817457e-01
7.470317e-01	2.105263e+00	-2.699633e-01
6.809074e-01	2.105263e+00	-2.559818e-01
6.100852e-01	2.105263e+00	-2.403847e-01
5.354138e-01	2.105263e+00	-2.229691e-01
4.593635e-01	2.105263e+00	-2.042585e-01
3.837764e-01	2.105263e+00	-1.841224e-01
3.103069e-01	2.105263e+00	-1.630077e-01
2.415927e-01	2.105263e+00	-1.409228e-01
1.782654e-01	2.105263e+00	-1.183331e-01
1.234349e-01	2.105263e+00	-9.558566e-02
7.662509e-02	2.105263e+00	-7.318920e-02
4.106998e-02	2.105263e+00	-5.193053e-02
1.528206e-02	2.105263e+00	-3.215886e-02
2.347037e-03	2.105263e+00	-1.488740e-02
0.000000e+00	2.105263e+00	0.000000e+00
1.064939e-02	2.105263e+00	1.066461e-02
3.126595e-02	2.105263e+00	1.703450e-02
6.375031e-02	2.105263e+00	1.787236e-02
1.050105e-01	2.105263e+00	1.417221e-02
1.560448e-01	2.105263e+00	4.777214e-03
2.137742e-01	2.105263e+00	-9.048270e-03
2.782849e-01	2.105263e+00	-2.799567e-02
3.468570e-01	2.105263e+00	-5.051783e-02
4.187060e-01	2.105263e+00	-7.662000e-02
4.916930e-01	2.105263e+00	-1.047585e-01
5.642168e-01	2.105263e+00	-1.343226e-01
6.348639e-01	2.105263e+00	-1.641238e-01
7.013280e-01	2.105263e+00	-1.931337e-01
7.630418e-01	2.105263e+00	-2.206893e-01
8.172084e-01	2.105263e+00	-2.454799e-01
8.641863e-01	2.105263e+00	-2.673591e-01
9.009752e-01	2.105263e+00	-2.848204e-01
9.288372e-01	2.105263e+00	-2.982085e-01
9.448555e-01	2.105263e+00	-3.059908e-01
9.510565e-01	2.105263e+00	-3.090170e-01
9.510565e-01	3.157895e+00	-3.090170e-01
9.442611e-01	3.157895e+00	-3.078203e-01
9.267277e-01	3.157895e+00	-3.047010e-01
8.963175e-01	3.157895e+00	-2.991555e-01
8.562911e-01	3.157895e+00	-2.916579e-01
8.054250e-01	3.157895e+00	-2.817457e-01
7.470317e-01	3.157895e+00	-2.699633e-01
6.809074e-01	3.157895e+00	-2.559818e-01
6.100852e-01	3.157895e+00	-2.403847e-01
5.354138e-01	3.157895e+00	-2.229691e-01
4.593635e-01	3.157895e+00	-2.042585e-01
3.837764e-01	3.157895e+00	-1.841224e-01
3.103069e-01	3.157895e+00	-1.630077e-01
2.415927e-01	3.157895e+00	-1.409228e-01
1.782654e-01	3.157895e+00	-1.183331e-01
1.234349e-01	3.157895e+00	-9.558566e-02
7.662509e-02	3.157895e+00	-7.318920e-02
4.106998e-02	3.157895e+00	-5.193053e-02
1.528206e-02	3.157895e+00	-3.215886e-02
2.347037e-03	3.157895e+00	-1.488740e-02
0.000000e+00	3.157895e+00	0.000000e+00
1.064939e-02	3.157895e+00	1.066461e-02
3.126595e-02	3.157895e+00	1.703450e-02
6.375031e-02	3.157895e+00	1.787236e-02
1.050105e-01	3.157895e+00	1.417221e-02
1.560448e-01	3.157895e+00	4.777214e-03
2.137742e-01	3.157895e+00	-9.048270e-03
2.782849e-01	3.157895e+00	-2.799567e-02
3.468570e-01	3.157895e+00	-5.051783e-02
4.187060e-01	3.157895e+00	-7.662000e-02
4.916930e-01	3.157895e+00	-1.047585e-01
5.642168e-01	3.157895e+00	-1.343226e-01
6.348639e-01	3.157895e+00	-1.641238e-01
7.013280e-01	3.157895e+00	-1.931337e-01
7.630418e-01	3.157895e+00	-2.206893e-01
8.172084e-01	3.157895e+00	-2.454799e-01
8.641863e-01	3.157895e+00	-2.673591e-01
9.009752e-01	3.157895e+00	-2.848204e-01
9.288372e-01	3.157895e+00	-2.982085e-01
9.448555e-01	3.157895e+00	-3.059908e-01
9.510565e-01	3.157895e+00	-3.090170e-01
9.510565e-01	4.210526e+00	-3.090170e-01
9.442611e-01	4.210526e+00	-3.078203e-01
9.267277e-01	4.210526e+00	-3.047010e-01
8.963175e-01	4.210526e+00	-2.991555e-01
8.562911e-01	4.210526e+00	-2.916579e-01
8.054250e-01	4.210526e+00	-2.817457e-01
7.470317e-01	4.210526e+00	-2.699633e-01
6.809074e-01	4.210526e+00	-2.559818e-01
6.100852e-01	4.210526e+00	-2.403847e-01
5.354138e-01	4.210526e+00	-2.229691e-01
4.593635e-01	4.210526e+00	-2.042585e-01
3.837764e-01	4.210526e+00	-1.841224e-01
3.103069e-01	4.210526e+00	-1.630077e-01
2.415927e-01	4.210526e+00	-1.409228e-01
1.782654e-01	4.210526e+00	-1.183331e-01
1.234349e-01	4.210526e+00	-9.558566e-02
7.662509e-02	4.210526e+00	-7.318920e-02
4.106998e-02	4.210526e+00	-5.193053e-02
1.528206e-02	4.210526e+00	-3.215886e-02
2.347037e-03	4.210526e+00	-1.488740e-02
0.000000e+00	4.210526e+00	0.000000e+00
1.064939e-02	4.210526e+00	1.066461e-02
3.126595e-02	4.210526e+00	1.703450e-02
6.375031e-02	4.210526e+00	1.787236e-02
1.050105e-01	4.210526e+00	1.417221e-02
1.560448e-01	4.210526e+00	4.777214e-03
2.137742e-01	4.210526e+00	-9.048270e-03
2.782849e-01	4.210526e+00	-2.799567e-02
3.468570e-01	4.210526e+00	-5.051783e-02
4.187060e-01	4.210526e+00	-7.662000e-02
4.916930e-01	4.210526e+00	-1.047585e-01
5.642168e-01	4.210526e+00	-1.343226e-01
6.348639e-01	4.210526e+00	-1.641238e-01
7.013280e-01	4.210526e+00	-1.931337e-01
7.630418e-01	4.210526e+00	-2.206893e-01
8.172084e-01	4.210526e+00	-2.454799e-01
8.641863e-01	4.210526e+00	-2.673591e-01
9.009752e-01	4.210526e+00	-2.848204e-01
9.288372e-01	4.210526e+00	-2.982085e-01
9.448555e-01	4.210526e+00	-3.059908e-01
9.510565e-01	4.210526e+00	-3.090170e-01
9.510565e-01	5.263158e+00	-3.090170e-01
9.442611e-01	5.263158e+00	-3.078203e-01
9.267277e-01	5.263158e+00	-3.047010e-01
8.963175e-01	5.263158e+00	-2.991555e-01
8.562911e-01	5.263158e+00	-2.916579e-01
8.054250e-01	5.263158e+00	-2.817457e-01
7.470317e-01	5.263158e+00	-2.699633e-01
6.809074e-01	5.263158e+00	-2.559818e-01
6.100852e-01	5.263158e+00	-2.403847e-01
5.354138e-01	5.263158e+00	-2.229691e-01
4.593635e-01	5.263158e+00	-2.042585e-01
3.837764e-01	5.263158e+00	-1.841224e-01
3.103069e-01	5.263158e+00	-1.630077e-01
2.415927e-01	5.263158e+00	-1.409228e-01
1.782654e-01	5.263158e+00	-1.183331e-01
1.234349e-01	5.263158e+00	-9.558566e-02
7.662509e-02	5.263158e+00	-7.318920e-02
4.106998e-02	5.263158e+00	-5.193053e-02
1.528206e-02	5.263158e+00	-3.215886e-02
2.347037e-03	5.263158e+00	-1.488740e-02
0.000000e+00	5.263158e+00	0.000000e+00
1.064939e-02	5.263158e+00	1.066461e-02
3.126595e-02	5.263158e+00	1.703450e-02
6.375031e-02	5.263158e+00	1.787236e-02
1.050105e-01	5.263158e+00	1.417221e-02
1.560448e-01	5.263158e+00	4.777214e-03
2.137742e-01	5.263158e+00	-9.048270e-03
2.782849e-01	5.263158e+00	-2.799567e-02
3.468570e-01	5.263158e+00	-5.051783e-02
4.187060e-01	5.263158e+00	-7.662000e-02
4.916930e-01	5.263158e+00	-1.047585e-01
5.642168e-01	5.263158e+00	-1.343226e-01
6.348639e-01	5.263158e+00	-1.641238e-01
7.013280e-01	5.263158e+00	-1.931337e-01
7.630418e-01	5.263158e+00	-2.206893e-01
8.172084e-01	5.263158e+00	-2.454799e-01
8.641863e-01	5.263158e+00	-2.673591e-01
9.009752e-01	5.263158e+00	-2.848204e-01
9.288372e-01	5.263158e+00	-2.982085e-01
9.448555e-01	5.263158e+00	-3.059908e-01
9.510565e-01	5.263158e+00	-3.090170e-01
9.510565e-01	6.315789e+00	-3.090170e-01
9.442611e-01	6.315789e+00	-3.078203e-01
[...]
CELL_DATA 760
VECTORS V double
8.414351e-01	-6.901908e-02	-1.481736e-01
8.655591e-01	-6.884552e-02	-1.539883e-01
8.835779e-01	-6.839584e-02	-1.611288e-01
8.953483e-01	-6.760159e-02	-1.677125e-01
8.978182e-01	-6.644089e-02	-1.749568e-01
8.991360e-01	-6.489612e-02	-1.814244e-01
8.921036e-01	-6.295697e-02	-1.886287e-01
8.847988e-01	-6.059942e-02	-1.948584e-01
8.704710e-01	-5.779505e-02	-2.030202e-01
8.547803e-01	-5.451122e-02	-2.103006e-01
8.295451e-01	-5.073130e-02	-2.209880e-01
7.986968e-01	-4.641418e-02	-2.295405e-01
7.512984e-01	-4.161981e-02	-2.414685e-01
6.892888e-01	-3.639047e-02	-2.458787e-01
6.026564e-01	-3.076414e-02	-2.500231e-01
4.720045e-01	-2.486353e-02	-2.258337e-01
2.703257e-01	-1.869661e-02	-1.616297e-01
-1.720195e-02	-1.242934e-02	1.318878e-02
-4.215669e-01	-5.863159e-03	5.628963e-01
-3.425952e-01	7.158591e-04	2.173102e+00
2.326613e+00	8.427282e-03	2.329938e+00
2.541368e+00	1.519063e-02	7.852054e-01
2.210328e+00	2.213544e-02	5.701037e-02
1.925367e+00	2.898154e-02	-1.726637e-01
1.720065e+00	3.596985e-02	-3.166503e-01
1.570313e+00	4.293533e-02	-3.760705e-01
1.435481e+00	4.987231e-02	-4.216140e-01
1.336678e+00	5.660239e-02	-4.390252e-01
1.250593e+00	6.300752e-02	-4.543304e-01
1.181671e+00	6.888947e-02	-4.555668e-01
1.121859e+00	7.413157e-02	-4.573220e-01
1.071607e+00	7.859788e-02	-4.520382e-01
1.027469e+00	8.222681e-02	-4.484644e-01
9.871970e-01	8.501046e-02	-4.407900e-01
9.499783e-01	8.700016e-02	-4.347783e-01
9.115287e-01	8.829378e-02	-4.245306e-01
8.743637e-01	8.901961e-02	-4.150020e-01
8.341911e-01	8.932666e-02	-4.008441e-01
7.910641e-01	8.937051e-02	-3.843295e-01
7.483139e-01	8.932481e-02	-3.651843e-01
8.268715e-01	-4.833534e-02	-1.456090e-01
8.473635e-01	-4.821106e-02	-1.507512e-01
8.618311e-01	-4.789261e-02	-1.571631e-01
8.705229e-01	-4.732892e-02	-1.630623e-01
8.702804e-01	-4.649737e-02	-1.695905e-01
8.689029e-01	-4.537914e-02	-1.753241e-01
8.589111e-01	-4.396356e-02	-1.816104e-01
8.480496e-01	-4.223565e-02	-1.867652e-01
8.293881e-01	-4.018062e-02	-1.934384e-01
8.084099e-01	-3.778328e-02	-1.988921e-01
7.766343e-01	-3.501837e-02	-2.068928e-01
7.379879e-01	-3.192267e-02	-2.120932e-01
6.816984e-01	-2.848722e-02	-2.190990e-01
6.086660e-01	-2.476263e-02	-2.171194e-01
5.088894e-01	-2.077483e-02	-2.111221e-01
3.609192e-01	-1.660685e-02	-1.726842e-01
1.375494e-01	-1.226045e-02	-8.224181e-02
-1.812807e-01	-7.848993e-03	1.389884e-01
-6.029540e-01	-3.232628e-03	8.050930e-01
-4.197433e-01	1.385776e-03	2.662457e+00
2.682045e+00	6.784684e-03	2.685878e+00
2.843732e+00	1.149965e-02	8.786265e-01
2.433011e+00	1.631270e-02	6.275398e-02
2.097165e+00	2.102098e-02	-1.880703e-01
1.860359e+00	2.578317e-02	-3.424773e-01
1.689550e+00	3.047964e-02	-4.046264e-01
1.538988e+00	3.510459e-02	-4.520148e-01
1.427748e+00	3.953994e-02	-4.689369e-01
1.330671e+00	4.371391e-02	-4.834219e-01
1.251865e+00	4.751865e-02	-4.826286e-01
1.182638e+00	5.084328e-02	-4.820983e-01
1.123313e+00	5.365955e-02	-4.738496e-01
1.070373e+00	5.591808e-02	-4.671912e-01
1.021727e+00	5.762323e-02	-4.562078e-01
9.765796e-01	5.881618e-02	-4.469530e-01
9.307536e-01	5.956775e-02	-4.334843e-01
8.867460e-01	5.996631e-02	-4.208791e-01
8.402924e-01	6.011263e-02	-4.037758e-01
7.917033e-01	6.010897e-02	-3.846400e-01
7.448147e-01	6.006567e-02	-3.634767e-01
8.205781e-01	-2.041095e-02	-1.445008e-01
8.397408e-01	-2.035976e-02	-1.493951e-01
8.527287e-01	-2.022881e-02	-1.555032e-01
8.598927e-01	-1.999291e-02	-1.610711e-01
8.581078e-01	-1.963444e-02	-1.672184e-01
8.551477e-01	-1.913676e-02	-1.725486e-01
8.435312e-01	-1.849015e-02	-1.783584e-01
8.309353e-01	-1.768928e-02	-1.829961e-01
8.103844e-01	-1.670703e-02	-1.890061e-01
7.870042e-01	-1.559301e-02	-1.936257e-01
7.529472e-01	-1.431502e-02	-2.005826e-01
7.116635e-01	-1.290584e-02	-2.045277e-01
6.518568e-01	-1.134975e-02	-2.095078e-01
5.747186e-01	-9.682884e-03	-2.050100e-01
4.699539e-01	-7.915336e-03	-1.949690e-01
3.152340e-01	-6.079532e-03	-1.508258e-01
8.327323e-02	-4.172205e-03	-4.978968e-02
-2.480698e-01	-2.241258e-03	1.901958e-01
-6.764627e-01	-2.258410e-04	9.032453e-01
-4.507792e-01	1.782145e-03	2.859320e+00
2.823124e+00	4.110914e-03	2.827158e+00
2.961439e+00	6.118603e-03	9.149942e-01
2.517621e+00	8.131800e-03	6.493631e-02
2.160454e+00	1.005538e-02	-1.937459e-01
1.910175e+00	1.194561e-02	-3.516479e-01
1.730149e+00	1.374894e-02	-4.143494e-01
1.572678e+00	1.546078e-02	-4.619099e-01
1.456039e+00	1.704055e-02	-4.782287e-01
1.354583e+00	1.847080e-02	-4.921091e-01
1.271640e+00	1.973720e-02	-4.902524e-01
1.198749e+00	2.080292e-02	-4.886662e-01
1.136443e+00	2.166263e-02	-4.793882e-01
1.080521e+00	2.229908e-02	-4.716204e-01
1.029147e+00	2.277037e-02	-4.595208e-01
9.815179e-01	2.307230e-02	-4.492131e-01
9.334778e-01	2.323689e-02	-4.347530e-01
8.875189e-01	2.329934e-02	-4.212459e-01
8.394012e-01	2.329714e-02	-4.033476e-01
7.894801e-01	2.326602e-02	-3.835599e-01
7.416822e-01	2.323988e-02	-3.619480e-01
8.182818e-01	-1.022165e-02	-1.440964e-01
8.367438e-01	-1.020060e-02	-1.488619e-01
8.489830e-01	-1.014431e-02	-1.548201e-01
8.553921e-01	-1.003848e-02	-1.602281e-01
8.528190e-01	-9.873281e-03	-1.661878e-01
8.490209e-01	-9.625396e-03	-1.713124e-01
8.365371e-01	-9.312673e-03	-1.768796e-01
8.226483e-01	-8.915153e-03	-1.811711e-01
8.011056e-01	-8.441742e-03	-1.868421e-01
7.770052e-01	-7.877680e-03	-1.911656e-01
7.415116e-01	-7.237947e-03	-1.975362e-01
6.984711e-01	-6.499928e-03	-2.007363e-01
6.369281e-01	-5.694111e-03	-2.047097e-01
5.576347e-01	-4.818362e-03	-1.989159e-01
4.502473e-01	-3.884110e-03	-1.867934e-01
2.919878e-01	-2.908472e-03	-1.397035e-01
5.555850e-02	-1.894793e-03	-3.321884e-02
-2.822218e-01	-8.611420e-04	2.163803e-01
-7.140540e-01	2.192392e-04	9.534390e-01
-4.666118e-01	1.280163e-03	2.959747e+00
2.894688e+00	2.522019e-03	2.898825e+00
3.020681e+00	3.599898e-03	9.332984e-01
2.559827e+00	4.658265e-03	6.602491e-02
2.191677e+00	5.660950e-03	-1.965460e-01
1.934487e+00	6.640190e-03	-3.561236e-01
1.749754e+00	7.559985e-03	-4.190445e-01
1.588785e+00	8.424142e-03	-4.666408e-01
1.469454e+00	9.213739e-03	-4.826349e-01
1.365807e+00	9.929691e-03	-4.961867e-01
1.281292e+00	1.054882e-02	-4.939735e-01
1.206749e+00	1.108744e-02	-4.919273e-01
1.142443e+00	1.151890e-02	-4.819191e-01
1.085204e+00	1.185711e-02	-4.736645e-01
1.032942e+00	1.209536e-02	-4.612153e-01
9.841796e-01	1.225551e-02	-4.504313e-01
9.351421e-01	1.233656e-02	-4.355282e-01
8.883074e-01	1.238054e-02	-4.216201e-01
8.394459e-01	1.239075e-02	-4.033691e-01
7.889594e-01	1.238392e-02	-3.833069e-01
7.408115e-01	1.237525e-02	-3.615231e-01
8.170464e-01	-5.656869e-03	-1.438789e-01
8.352086e-01	-5.645114e-03	-1.485888e-01
8.470311e-01	-5.614246e-03	-1.544642e-01
8.529823e-01	-5.554803e-03	-1.597767e-01
8.496539e-01	-5.458546e-03	-1.655710e-01
8.454163e-01	-5.318137e-03	-1.705850e-01
8.325462e-01	-5.146572e-03	-1.760357e-01
8.185342e-01	-4.926533e-03	-1.802650e-01
7.963804e-01	-4.661252e-03	-1.857400e-01
7.712000e-01	-4.319305e-03	-1.897374e-01
7.349417e-01	-3.934332e-03	-1.957860e-01
6.910872e-01	-3.498135e-03	-1.986142e-01
6.285035e-01	-3.026603e-03	-2.020020e-01
5.478280e-01	-2.606193e-03	-1.954177e-01
4.388773e-01	-2.062828e-03	-1.820763e-01
2.785999e-01	-1.455352e-03	-1.332980e-01
3.955773e-02	-8.459101e-04	-2.365186e-02
-3.021369e-01	-2.263028e-04	2.316493e-01
-7.356790e-01	4.215169e-04	9.823138e-01
-4.756457e-01	1.066198e-03	3.017049e+00
2.936943e+00	1.809459e-03	2.941140e+00
3.055247e+00	2.444253e-03	9.439783e-01
2.583969e+00	3.072699e-03	6.664759e-02
2.209551e+00	3.663521e-03	-1.981489e-01
1.948261e+00	4.233183e-03	-3.586593e-01
1.760692e+00	4.756588e-03	-4.216641e-01
1.597691e+00	5.242357e-03	-4.692565e-01
1.476899e+00	5.786137e-03	-4.850803e-01
1.371975e+00	6.190286e-03	-4.984274e-01
1.286250e+00	6.528363e-03	-4.958850e-01
1.210897e+00	6.808924e-03	-4.936184e-01
1.146279e+00	7.039085e-03	-4.835371e-01
1.088245e+00	7.237271e-03	-4.749917e-01
1.034919e+00	7.380033e-03	-4.620981e-01
9.854556e-01	7.478374e-03	-4.510153e-01
9.358616e-01	7.526973e-03	-4.358633e-01
8.888525e-01	7.550367e-03	-4.218788e-01
8.396027e-01	7.556786e-03	-4.034444e-01
7.887861e-01	7.553625e-03	-3.832228e-01
7.403550e-01	7.548724e-03	-3.613003e-01
8.163092e-01	-3.306296e-03	-1.437491e-01
8.342512e-01	-3.299502e-03	-1.484184e-01
8.458028e-01	-3.281533e-03	-1.542402e-01
8.514136e-01	-3.247219e-03	-1.594828e-01
8.479816e-01	-3.214591e-03	-1.652452e-01
8.436111e-01	-3.127926e-03	-1.702208e-01
8.304790e-01	-3.005472e-03	-1.755986e-01
8.157367e-01	-2.857632e-03	-1.796489e-01
7.929031e-01	-2.670495e-03	-1.849290e-01
7.674619e-01	-2.436125e-03	-1.888177e-01
7.307793e-01	-2.195178e-03	-1.946772e-01
6.863717e-01	-1.968317e-03	-1.972590e-01
6.245017e-01	-1.653444e-03	-2.007159e-01
5.433823e-01	-1.433945e-03	-1.938319e-01
4.315627e-01	-1.068271e-03	-1.790417e-01
2.695431e-01	-6.897266e-04	-1.289647e-01
2.931076e-02	-2.934467e-04	-1.752512e-02
-3.146359e-01	1.017253e-04	2.412323e-01
-7.497486e-01	5.134516e-04	1.001100e+00
-4.816196e-01	9.367597e-04	3.054942e+00
2.962206e+00	1.408438e-03	2.966440e+00
3.076200e+00	1.796739e-03	9.504522e-01
2.599053e+00	2.194099e-03	6.703664e-02
2.220404e+00	2.565107e-03	-1.991221e-01
1.956388e+00	2.916071e-03	-3.601554e-01
1.767026e+00	3.243664e-03	-4.231808e-01
1.604433e+00	3.658380e-03	-4.712368e-01
1.482547e+00	3.916706e-03	-4.869352e-01
1.375472e+00	4.161239e-03	-4.996980e-01
1.289098e+00	4.381708e-03	-4.969828e-01
1.213144e+00	4.548935e-03	-4.945343e-01
1.147912e+00	4.657565e-03	-4.842260e-01
1.089771e+00	4.755697e-03	-4.756578e-01
1.036433e+00	4.835466e-03	-4.627742e-01
9.865802e-01	4.889259e-03	-4.515300e-01
9.365213e-01	4.962487e-03	-4.361705e-01
8.890364e-01	4.965224e-03	-4.219661e-01
8.396006e-01	4.963692e-03	-4.034434e-01
7.886103e-01	4.959957e-03	-3.831373e-01
7.400609e-01	4.956711e-03	-3.611568e-01
8.159062e-01	-2.030359e-03	-1.436781e-01
8.337593e-01	-2.026311e-03	-1.483309e-01
8.451912e-01	-2.016081e-03	-1.541287e-01
8.513271e-01	-1.997406e-03	-1.594666e-01
8.471566e-01	-1.967186e-03	-1.650844e-01
8.417731e-01	-2.010997e-03	-1.698499e-01
8.283707e-01	-1.888686e-03	-1.751529e-01
8.137600e-01	-1.783694e-03	-1.792136e-01
7.906882e-01	-1.684397e-03	-1.844124e-01
7.649613e-01	-1.542983e-03	-1.882025e-01
7.288243e-01	-1.386621e-03	-1.941563e-01
6.838841e-01	-1.215944e-03	-1.965441e-01
6.210299e-01	-1.016145e-03	-1.996000e-01
5.392259e-01	-7.367635e-04	-1.923492e-01
4.267643e-01	-5.019377e-04	-1.770510e-01
2.643360e-01	-2.950822e-04	-1.264733e-01
2.263635e-02	-5.141410e-05	-1.353444e-02
-3.227789e-01	1.708528e-04	2.474755e-01
-7.586631e-01	4.304380e-04	1.013003e+00
-4.853523e-01	6.871414e-04	3.078619e+00
2.978941e+00	9.819851e-04	2.983198e+00
3.089894e+00	1.231977e-03	9.546832e-01
2.608675e+00	1.472483e-03	6.728481e-02
2.227403e+00	1.730410e-03	-1.997498e-01
1.961866e+00	1.950001e-03	-3.611639e-01
1.773524e+00	2.163114e-03	-4.247370e-01
1.607778e+00	2.360779e-03	-4.722192e-01
1.483872e+00	2.461666e-03	-4.873703e-01
1.378035e+00	2.605975e-03	-5.006289e-01
1.291141e+00	2.742117e-03	-4.977705e-01
1.214354e+00	2.854789e-03	-4.950273e-01
1.148917e+00	2.945068e-03	-4.846502e-01
1.090623e+00	3.043379e-03	-4.760298e-01
1.036854e+00	3.108685e-03	-4.629621e-01
9.874649e-01	3.229331e-03	-4.519349e-01
9.373922e-01	3.220888e-03	-4.365762e-01
8.888923e-01	3.214991e-03	-4.218978e-01
8.394552e-01	3.212071e-03	-4.033735e-01
7.884534e-01	3.208833e-03	-3.830611e-01
7.398578e-01	3.206544e-03	-3.610577e-01
8.156297e-01	-1.104410e-03	-1.436294e-01
8.334199e-01	-1.101369e-03	-1.482705e-01
8.447894e-01	-1.091836e-03	-1.540554e-01
8.501643e-01	-1.098972e-03	-1.592488e-01
8.483922e-01	-1.050263e-03	-1.653252e-01
8.420697e-01	-1.033513e-03	-1.699098e-01
8.269965e-01	-9.983772e-04	-1.748623e-01
8.128383e-01	-9.745519e-04	-1.790106e-01
7.896485e-01	-9.856851e-04	-1.841699e-01
7.635527e-01	-9.088468e-04	-1.878559e-01
7.265046e-01	-8.086118e-04	-1.935384e-01
6.814374e-01	-6.878922e-04	-1.958409e-01
6.178734e-01	-5.764416e-04	-1.985855e-01
5.356989e-01	-3.423771e-04	-1.910911e-01
4.243364e-01	-2.522920e-04	-1.760438e-01
2.612924e-01	-1.242878e-04	-1.250171e-01
1.929743e-02	1.289632e-05	-1.153808e-02
-3.268496e-01	1.548738e-04	2.505965e-01
-7.640160e-01	3.042499e-04	1.020151e+00
-4.875854e-01	4.530977e-04	3.092784e+00
2.988884e+00	6.244076e-04	2.993155e+00
3.097695e+00	7.699382e-04	9.570932e-01
2.615258e+00	9.129917e-04	6.745462e-02
2.232139e+00	1.046591e-03	-2.001745e-01
1.965079e+00	1.174199e-03	-3.617553e-01
1.774056e+00	1.294027e-03	-4.248644e-01
1.608888e+00	1.321049e-03	-4.725452e-01
1.485969e+00	1.432647e-03	-4.880592e-01
1.379129e+00	1.539668e-03	-5.010264e-01
1.292237e+00	1.596166e-03	-4.981932e-01
1.215686e+00	1.659218e-03	-4.955704e-01
1.150314e+00	1.800124e-03	-4.852395e-01
1.091965e+00	1.816291e-03	-4.766155e-01
1.039063e+00	1.852487e-03	-4.639486e-01
9.885095e-01	1.856182e-03	-4.524130e-01
9.362508e-01	1.829397e-03	-4.360446e-01
8.888267e-01	1.838643e-03	-4.218666e-01
8.394150e-01	1.863625e-03	-4.033542e-01
7.883383e-01	1.860866e-03	-3.830052e-01
7.397104e-01	1.859439e-03	-3.609857e-01
8.153958e-01	-1.371966e-03	-1.435882e-01
8.330097e-01	-1.372149e-03	-1.481976e-01
8.452170e-01	-1.373301e-03	-1.541334e-01
8.501194e-01	-1.356695e-03	-1.592404e-01
8.459006e-01	-1.317307e-03	-1.648396e-01
8.408583e-01	-1.272504e-03	-1.696654e-01
8.274725e-01	-1.140535e-03	-1.749629e-01
8.135954e-01	-1.200126e-03	-1.791774e-01
7.897802e-01	-9.782618e-04	-1.842006e-01
7.626357e-01	-1.025760e-03	-1.876303e-01
7.259370e-01	-6.677178e-04	-1.933872e-01
6.807845e-01	-7.544927e-04	-1.956533e-01
6.162796e-01	-3.176668e-04	-1.980732e-01
5.342990e-01	-3.797280e-04	-1.905917e-01
4.232506e-01	8.001816e-05	-1.755933e-01
2.594591e-01	4.170644e-04	-1.241399e-01
1.668071e-02	6.089625e-04	-9.973523e-03
-3.302265e-01	6.544455e-04	2.531856e-01
-7.668979e-01	7.004623e-04	1.023999e+00
-4.888147e-01	7.605741e-04	3.100581e+00
2.994457e+00	8.405314e-04	2.998736e+00
3.102568e+00	9.178430e-04	9.585990e-01
2.617570e+00	1.013131e-03	6.751425e-02
2.233866e+00	1.093861e-03	-2.003294e-01
1.966829e+00	1.027129e-03	-3.620774e-01
1.775940e+00	8.081757e-04	-4.253158e-01
1.609941e+00	4.595658e-04	-4.728546e-01
1.486904e+00	6.231313e-04	-4.883661e-01
1.380155e+00	3.065279e-04	-5.013991e-01
1.292651e+00	4.370586e-04	-4.983525e-01
1.216902e+00	1.435625e-04	-4.960659e-01
1.150950e+00	2.962814e-04	-4.855077e-01
1.091313e+00	4.049266e-05	-4.763307e-01
1.037449e+00	1.024048e-04	-4.632278e-01
9.871281e-01	-1.064085e-04	-4.517807e-01
9.370050e-01	-5.446070e-05	-4.363958e-01
8.896270e-01	-7.271768e-05	-4.222465e-01
8.402922e-01	-7.982242e-05	-4.037757e-01
7.882380e-01	-7.507827e-05	-3.829565e-01
7.396392e-01	-7.405170e-05	-3.609510e-01
8.156605e-01	3.865762e-05	-1.436348e-01
8.335042e-01	2.107552e-05	-1.482855e-01
8.441639e-01	1.948839e-05	-1.539413e-01
8.487033e-01	4.082771e-05	-1.589752e-01
8.466904e-01	3.846945e-05	-1.649936e-01
8.389252e-01	3.734216e-05	-1.692753e-01
8.260262e-01	3.584483e-05	-1.746571e-01
8.104085e-01	3.651526e-05	-1.784755e-01
7.873680e-01	7.943918e-05	-1.836380e-01
7.594507e-01	6.795272e-05	-1.868467e-01
7.229229e-01	5.988126e-05	-1.925842e-01
6.769075e-01	5.894205e-05	-1.945391e-01
6.124400e-01	-1.029679e-06	-1.968392e-01
5.301567e-01	2.116486e-06	-1.891141e-01
4.112244e-01	3.336765e-05	-1.706040e-01
2.512989e-01	9.047011e-07	-1.202356e-01
1.385918e-02	4.183108e-06	-8.286505e-03
-3.291959e-01	6.656844e-06	2.523954e-01
-7.668659e-01	7.797882e-06	1.023956e+00
-4.890809e-01	7.963268e-06	3.102270e+00
2.996674e+00	7.444423e-06	3.000956e+00
3.105450e+00	6.543752e-06	9.594894e-01
2.620874e+00	5.127402e-06	6.759946e-02
2.232061e+00	2.795788e-06	-2.001675e-01
1.959063e+00	3.479938e-05	-3.606479e-01
1.764175e+00	3.060651e-05	-4.224982e-01
1.606458e+00	-3.826022e-06	-4.718316e-01
1.483632e+00	4.690458e-05	-4.872917e-01
1.376818e+00	3.296119e-05	-5.001870e-01
1.290148e+00	2.351105e-05	-4.973875e-01
1.213896e+00	1.775819e-05	-4.948409e-01
1.149099e+00	-2.523348e-05	-4.847270e-01
1.089249e+00	-2.170871e-05	-4.754298e-01
1.037143e+00	-2.252001e-05	-4.630913e-01
9.857275e-01	-2.146646e-05	-4.511397e-01
9.369965e-01	-2.150345e-05	-4.363918e-01
8.882161e-01	-2.037654e-05	-4.215768e-01
8.392746e-01	-4.272174e-05	-4.032867e-01
7.886638e-01	-4.160409e-05	-3.831633e-01
7.398676e-01	-2.412059e-05	-3.610624e-01
8.183466e-01	1.462514e-03	-1.441078e-01
8.337206e-01	1.462901e-03	-1.483240e-01
8.444160e-01	1.464815e-03	-1.539873e-01
8.497235e-01	1.450323e-03	-1.591662e-01
8.459684e-01	1.413974e-03	-1.648529e-01
8.409040e-01	1.460277e-03	-1.696746e-01
8.274836e-01	1.287321e-03	-1.749653e-01
8.129575e-01	1.348708e-03	-1.790369e-01
7.893705e-01	1.080942e-03	-1.841051e-01
7.628922e-01	1.127501e-03	-1.876934e-01
7.260554e-01	7.737282e-04	-1.934187e-01
6.815813e-01	7.835515e-04	-1.958823e-01
6.170979e-01	3.489345e-04	-1.983362e-01
5.338074e-01	4.362806e-04	-1.904164e-01
4.232034e-01	-5.807660e-05	-1.755737e-01
2.600556e-01	-3.949332e-04	-1.244254e-01
1.655575e-02	-5.881044e-04	-9.898808e-03
-3.303247e-01	-6.096661e-04	2.532609e-01
-7.669395e-01	-6.860541e-04	1.024054e+00
-4.888121e-01	-7.472378e-04	3.100565e+00
2.994383e+00	-8.306083e-04	2.998662e+00
3.102462e+00	-8.830223e-04	9.585661e-01
2.617444e+00	-9.785655e-04	6.751101e-02
2.234701e+00	-1.092738e-03	-2.004043e-01
1.967324e+00	-1.031053e-03	-3.621686e-01
1.775244e+00	-7.850340e-04	-4.251491e-01
1.610251e+00	-4.451286e-04	-4.729454e-01
1.487385e+00	-6.460570e-04	-4.885244e-01
1.379851e+00	-3.431090e-04	-5.012886e-01
1.292459e+00	-4.096120e-04	-4.982786e-01
1.216294e+00	-1.325054e-04	-4.958182e-01
1.150436e+00	-2.726884e-04	-4.852907e-01
1.091351e+00	-2.720283e-05	-4.763473e-01
1.037451e+00	-1.334954e-04	-4.632288e-01
9.871455e-01	-3.230876e-05	-4.517887e-01
9.370232e-01	-5.963514e-05	-4.364043e-01
8.892114e-01	-2.993559e-05	-4.220492e-01
8.395103e-01	-2.018108e-05	-4.034000e-01
7.888554e-01	-2.432862e-05	-3.832564e-01
7.423167e-01	-2.529819e-05	-3.622576e-01
8.155957e-01	1.196065e-03	-1.436234e-01
8.333613e-01	1.210764e-03	-1.482601e-01
8.446853e-01	1.203575e-03	-1.540364e-01
8.500336e-01	1.197942e-03	-1.592243e-01
8.463369e-01	1.086675e-03	-1.649247e-01
8.413566e-01	1.062497e-03	-1.697659e-01
8.275673e-01	9.893118e-04	-1.749830e-01
8.134859e-01	9.713071e-04	-1.791532e-01
7.902682e-01	9.461822e-04	-1.843144e-01
7.635087e-01	8.673801e-04	-1.878451e-01
7.274485e-01	7.787335e-04	-1.937898e-01
6.824555e-01	7.082828e-04	-1.961335e-01
6.175013e-01	6.279288e-04	-1.984659e-01
5.357945e-01	4.790077e-04	-1.911252e-01
4.249339e-01	3.445432e-04	-1.762916e-01
2.613100e-01	2.375241e-04	-1.250255e-01
1.887589e-02	8.918677e-05	-1.128604e-02
-3.269078e-01	-6.114401e-05	2.506411e-01
-7.629826e-01	-2.169762e-04	1.018771e+00
-4.875408e-01	-3.710517e-04	3.092501e+00
2.990198e+00	-5.477423e-04	2.994471e+00
3.098552e+00	-6.975927e-04	9.573582e-01
2.613996e+00	-8.446035e-04	6.742208e-02
2.231266e+00	-9.809844e-04	-2.000963e-01
1.965579e+00	-1.145073e-03	-3.618473e-01
1.774331e+00	-1.262696e-03	-4.249304e-01
1.608169e+00	-1.371092e-03	-4.723339e-01
1.485271e+00	-1.501547e-03	-4.878301e-01
1.379806e+00	-1.585844e-03	-5.012725e-01
1.292833e+00	-1.650107e-03	-4.984227e-01
1.215636e+00	-1.703164e-03	-4.955500e-01
1.150348e+00	-1.779711e-03	-4.852538e-01
1.091251e+00	-1.801536e-03	-4.763036e-01
1.036926e+00	-1.807648e-03	-4.629942e-01
9.870434e-01	-1.829633e-03	-4.517420e-01
9.369427e-01	-1.851108e-03	-4.363668e-01
8.891736e-01	-1.768849e-03	-4.220312e-01
8.395257e-01	-1.779317e-03	-4.034074e-01
7.883769e-01	-1.779087e-03	-3.830240e-01
7.397191e-01	-1.795577e-03	-3.609900e-01
8.158797e-01	1.711365e-03	-1.436734e-01
8.337027e-01	1.700437e-03	-1.483209e-01
8.448321e-01	1.576763e-03	-1.540632e-01
8.529569e-01	1.669328e-03	-1.597719e-01
8.485282e-01	1.696479e-03	-1.653517e-01
8.426370e-01	1.705188e-03	-1.700243e-01
8.288447e-01	1.662659e-03	-1.752531e-01
8.135731e-01	1.596729e-03	-1.791724e-01
7.907848e-01	1.523169e-03	-1.844349e-01
7.650905e-01	1.407506e-03	-1.882343e-01
7.281369e-01	1.265686e-03	-1.939732e-01
6.835903e-01	1.184444e-03	-1.964597e-01
6.202558e-01	9.807102e-04	-1.993512e-01
5.380345e-01	7.846865e-04	-1.919242e-01