# vtk DataFile Version 2.0
OUTPUT by 3D-VPM
ASCII
DATASET UNSTRUCTURED_GRID
POINTS 820 double
9.510565e-01	0.000000e+00	-3.090170e-01
9.442611e-01	0.000000e+00	-3.078203e-01
9.267277e-01	0.000000e+00	-3.047010e-01
8.963175e-01	0.000000e+00	-2.991555e-01
8.562911e-01	0.000000e+00	-2.916579e-01
8.054250e-01	0.000000e+00	-2.817457e-01
7.470317e-01	0.000000e+00	-2.699633e-01
6.809074e-01	0.000000e+00	-2.559818e-01
6.100852e-01	0.000000e+00	-2.403847e-01
5.354138e-01	0.000000e+00	-2.229691e-01
4.593635e-01	0.000000e+00	-2.042585e-01
3.837764e-01	0.000000e+00	-1.841224e-01
3.103069e-01	0.000000e+00	-1.630077e-01
2.415927e-01	0.000000e+00	-1.409228e-01
1.782654e-01	0.000000e+00	-1.183331e-01
1.234349e-01	0.000000e+00	-9.558566e-02
7.662509e-02	0.000000e+00	-7.318920e-02
4.106998e-02	0.000000e+00	-5.193053e-02
1.528206e-02	0.000000e+00	-3.215886e-02
2.347037e-03	0.000000e+00	-1.488740e-02
0.000000e+00	0.000000e+00	0.000000e+00
1.064939e-02	0.000000e+00	1.066461e-02
3.126595e-02	0.000000e+00	1.703450e-02
6.375031e-02	0.000000e+00	1.787236e-02
1.050105e-01	0.000000e+00	1.417221e-02
1.560448e-01	0.000000e+00	4.777214e-03
2.137742e-01	0.000000e+00	-9.048270e-03
2.782849e-01	0.000000e+00	-2.799567e-02
3.468570e-01	0.000000e+00	-5.051783e-02
4.187060e-01	0.000000e+00	-7.662000e-02
4.916930e-01	0.000000e+00	-1.047585e-01
5.642168e-01	0.000000e+00	-1.343226e-01
6.348639e-01	0.000000e+00	-1.641238e-01
7.013280e-01	0.000000e+00	-1.931337e-01
7.630418e-01	0.000000e+00	-2.206893e-01
8.172084e-01	0.000000e+00	-2.454799e-01
8.641863e-01	0.000000e+00	-2.673591e-01
9.009752e-01	0.000000e+00	-2.848204e-01
9.288372e-01	0.000000e+00	-2.982085e-01
9.448555e-01	0.000000e+00	-3.059908e-01
9.510565e-01	0.000000e+00	-3.090170e-01
9.510565e-01	1.052632e+00	-3.090170e-01
9.442611e-01	1.052632e+00	-3.078203e-01
9.267277e-01	1.052632e+00	-3.047010e-01
8.963175e-01	1.052632e+00	-2.991555e-01
8.562911e-01	1.052632e+00	-2.916579e-01
8.054250e-01	1.052632e+00	-2.817457e-01
7.470317e-01	1.052632e+00	-2.699633e-01
6.809074e-01	1.052632e+00	-2.559818e-01
6.100852e-01	1.052632e+00	-2.403847e-01
5.354138e-01	1.052632e+00	-2.229691e-01
4.593635e-01	1.052632e+00	-2.042585e-01
3.837764e-01	1.052632e+00	-1.841224e-01
3.103069e-01	1.052632e+00	-1.630077e-01
2.415927e-01	1.052632e+00	-1.409228e-01
1.782654e-01	1.052632e+00	-1.183331e-01
1.234349e-01	1.052632e+00	-9.558566e-02
7.662509e-02	1.052632e+00	-7.318920e-02
4.106998e-02	1.052632e+00	-5.193053e-02
1.528206e-02	1.052632e+00	-3.215886e-02
2.347037e-03	1.052632e+00	-1.488740e-02
0.000000e+00	1.052632e+00	0.000000e+00
1.064939e-02	1.052632e+00	1.066461e-02
3.126595e-02	1.052632e+00	1.703450e-02
6.375031e-02	1.052632e+00	1.787236e-02
1.050105e-01	1.052632e+00	1.417221e-02
1.560448e-01	1.052632e+00	4.777214e-03
2.137742e-01	1.052632e+00	-9.048270e-03
2.782849e-01	1.052632e+00	-2.799567e-02
3.468570e-01	1.052632e+00	-5.051783e-02
4.187060e-01	1.052632e+00	-7.662000e-02
4.916930e-01	1.052632e+00	-1.047585e-01
5.642168e-01	1.052632e+00	-1.343226e-01
6.348639e-01	1.052632e+00	-1.641238e-01
7.013280e-01	1.052632e+00	-1.931337e-01
7.630418e-01	1.052632e+00	-2.206893e-01
8.172084e-01	1.052632e+00	-2.454799e-01
8.641863e-01	1.052632e+00	-2.673591e-01
9.009752e-01	1.052632e+00	-2.848204e-01
9.288372e-01	1.052632e+00	-2.982085e-01
9.448555e-01	1.052632e+00	-3.059908e-01
9.510565e-01	1.052632e+00	-3.090170e-01
9.510565e-01	2.105263e+00	-3.090170e-01
9.442611e-01	2.105263e+00	-3.078203e-01
9.267277e-01	2.105263e+00	-3.047010e-01
8.963175e-01	2.105263e+00	-2.991555e-01
8.562911e-01	2.105263e+00	-2.916579e-01
8.054250e-01	2.105263e+00	-2.817457e-01
7.470317e-01	2.105263e+00	-2.699633e-01
6.809074e-01	2.105263e+00	-2.559818e-01
6.100852e-01	2.105263e+00	-2.403847e-01
5.354138e-01	2.105263e+00	-2.229691e-01
4.593635e-01	2.105263e+00	-2.042585e-01
3.837764e-01	2.105263e+00	-1.841224e-01
3.103069e-01	2.105263e+00	-1.630077e-01
2.415927e-01	2.105263e+00	-1.409228e-01
1.782654e-01	2.105263e+00	-1.183331e-01
1.234349e-01	2.105263e+00	-9.558566e-02
7.662509e-02	2.105263e+00	-7.318920e-02
4.106998e-02	2.105263e+00	-5.193053e-02
1.528206e-02	2.105263e+00	-3.215886e-02
2.347037e-03	2.105263e+00	-1.488740e-02
0.000000e+00	2.105263e+00	0.000000e+00
1.064939e-02	2.105263e+00	1.066461e-02
3.126595e-02	2.105263e+00	1.703450e-02
6.375031e-02	2.105263e+00	1.787236e-02
1.050105e-01	2.105263e+00	1.417221e-02
1.560448e-01	2.105263e+00	4.777214e-03
2.137742e-01	2.105263e+00	-9.048270e-03
2.782849e-01	2.105263e+00	-2.799567e-02
3.468570e-01	2.105263e+00	-5.051783e-02
4.187060e-01	2.105263e+00	-7.662000e-02
4.916930e-01	2.105263e+00	-1.047585e-01
5.642168e-01	2.105263e+00	-1.343226e-01
6.348639e-01	2.105263e+00	-1.641238e-01
7.013280e-01	2.105263e+00	-1.931337e-01
7.630418e-01	2.105263e+00	-2.206893e-01
8.172084e-01	2.105263e+00	-2.454799e-01
8.641863e-01	2.105263e+00	-2.673591e-01
9.009752e-01	2.105263e+00	-2.848204e-01
9.288372e-01	2.105263e+00	-2.982085e-01
9.448555e-01	2.105263e+00	-3.059908e-01
9.510565e-01	2.105263e+00	-3.090170e-01
9.510565e-01	3.157895e+00	-3.090170e-01
9.442611e-01	3.157895e+00	-3.078203e-01
9.267277e-01	3.157895e+00	-3.047010e-01
8.963175e-01	3.157895e+00	-2.991555e-01
8.562911e-01	3.157895e+00	-2.916579e-01
8.054250e-01	3.157895e+00	-2.817457e-01
7.470317e-01	3.157895e+00	-2.699633e-01
6.809074e-01	3.157895e+00	-2.559818e-01
6.100852e-01	3.157895e+00	-2.403847e-01
5.354138e-01	3.157895e+00	-2.229691e-01
4.593635e-01	3.157895e+00	-2.042585e-01
3.837764e-01	3.157895e+00	-1.841224e-01
3.103069e-01	3.157895e+00	-1.630077e-01
2.415927e-01	3.157895e+00	-1.409228e-01
1.782654e-01	3.157895e+00	-1.183331e-01
1.234349e-01	3.157895e+00	-9.558566e-02
7.662509e-02	3.157895e+00	-7.318920e-02
4.106998e-02	3.157895e+00	-5.193053e-02
1.528206e-02	3.157895e+00	-3.215886e-02
2.347037e-03	3.157895e+00	-1.488740e-02
0.000000e+00	3.157895e+00	0.000000e+00
1.064939e-02	3.157895e+00	1.066461e-02
3.126595e-02	3.157895e+00	1.703450e-02
6.375031e-02	3.157895e+00	1.787236e-02
1.050105e-01	3.157895e+00	1.417221e-02
1.560448e-01	3.157895e+00	4.777214e-03
2.137742e-01	3.157895e+00	-9.048270e-03
2.782849e-01	3.157895e+00	-2.799567e-02
3.468570e-01	3.157895e+00	-5.051783e-02
4.187060e-01	3.157895e+00	-7.662000e-02
4.916930e-01	3.157895e+00	-1.047585e-01
5.642168e-01	3.157895e+00	-1.343226e-01
6.348639e-01	3.157895e+00	-1.641238e-01
7.013280e-01	3.157895e+00	-1.931337e-01
7.630418e-01	3.157895e+00	-2.206893e-01
8.172084e-01	3.157895e+00	-2.454799e-01
8.641863e-01	3.157895e+00	-2.673591e-01
9.009752e-01	3.157895e+00	-2.848204e-01
9.288372e-01	3.157895e+00	-2.982085e-01
9.448555e-01	3.157895e+00	-3.059908e-01
9.510565e-01	3.157895e+00	-3.090170e-01
9.510565e-01	4.210526e+00	-3.090170e-01
9.442611e-01	4.210526e+00	-3.078203e-01
9.267277e-01	4.210526e+00	-3.047010e-01
8.963175e-01	4.210526e+00	-2.991555e-01
8.562911e-01	4.210526e+00	-2.916579e-01
8.054250e-01	4.210526e+00	-2.817457e-01
7.470317e-01	4.210526e+00	-2.699633e-01
6.809074e-01	4.210526e+00	-2.559818e-01
6.100852e-01	4.210526e+00	-2.403847e-01
5.354138e-01	4.210526e+00	-2.229691e-01
4.593635e-01	4.210526e+00	-2.042585e-01
3.837764e-01	4.210526e+00	-1.841224e-01
3.103069e-01	4.210526e+00	-1.630077e-01
2.415927e-01	4.210526e+00	-1.409228e-01
1.782654e-01	4.210526e+00	-1.183331e-01
1.234349e-01	4.210526e+00	-9.558566e-02
7.662509e-02	4.210526e+00	-7.318920e-02
4.106998e-02	4.210526e+00	-5.193053e-02
1.528206e-02	4.210526e+00	-3.215886e-02
2.347037e-03	4.210526e+00	-1.488740e-02
0.000000e+00	4.210526e+00	0.000000e+00
1.064939e-02	4.210526e+00	1.066461e-02
3.126595e-02	4.210526e+00	1.703450e-02
6.375031e-02	4.210526e+00	1.787236e-02
1.050105e-01	4.210526e+00	1.417221e-02
1.560448e-01	4.210526e+00	4.777214e-03
2.137742e-01	4.210526e+00	-9.048270e-03
2.782849e-01	4.210526e+00	-2.799567e-02
3.468570e-01	4.210526e+00	-5.051783e-02
4.187060e-01	4.210526e+00	-7.662000e-02
4.916930e-01	4.210526e+00	-1.047585e-01
5.642168e-01	4.210526e+00	-1.343226e-01
6.348639e-01	4.210526e+00	-1.641238e-01
7.013280e-01	4.210526e+00	-1.931337e-01
7.630418e-01	4.210526e+00	-2.206893e-01
8.172084e-01	4.210526e+00	-2.454799e-01
8.641863e-01	4.210526e+00	-2.673591e-01
9.009752e-01	4.210526e+00	-2.848204e-01
9.288372e-01	4.210526e+00	-2.982085e-01
9.448555e-01	4.210526e+00	-3.059908e-01
9.510565e-01	4.210526e+00	-3.090170e-01
9.510565e-01	5.263158e+00	-3.090170e-01
9.442611e-01	5.263158e+00	-3.078203e-01
9.267277e-01	5.263158e+00	-3.047010e-01
8.963175e-01	5.263158e+00	-2.991555e-01
8.562911e-01	5.263158e+00	-2.916579e-01
8.054250e-01	5.263158e+00	-2.817457e-01
7.470317e-01	5.263158e+00	-2.699633e-01
6.809074e-01	5.263158e+00	-2.559818e-01
6.100852e-01	5.263158e+00	-2.403847e-01
5.354138e-01	5.263158e+00	-2.229691e-01
4.593635e-01	5.263158e+00	-2.042585e-01
3.837764e-01	5.263158e+00	-1.841224e-01
3.103069e-01	5.263158e+00	-1.630077e-01
2.415927e-01	5.263158e+00	-1.409228e-01
1.782654e-01	5.263158e+00	-1.183331e-01
1.234349e-01	5.263158e+00	-9.558566e-02
7.662509e-02	5.263158e+00	-7.318920e-02
4.106998e-02	5.263158e+00	-5.193053e-02
1.528206e-02	5.263158e+00	-3.215886e-02
2.347037e-03	5.263158e+00	-1.488740e-02
0.000000e+00	5.263158e+00	0.000000e+00
1.064939e-02	5.263158e+00	1.066461e-02
3.126595e-02	5.263158e+00	1.703450e-02
6.375031e-02	5.263158e+00	1.787236e-02
1.050105e-01	5.263158e+00	1.417221e-02
1.560448e-01	5.263158e+00	4.777214e-03
2.137742e-01	5.263158e+00	-9.048270e-03
2.782849e-01	5.263158e+00	-2.799567e-02
3.468570e-01	5.263158e+00	-5.051783e-02
4.187060e-01	5.263158e+00	-7.662000e-02
4.916930e-01	5.263158e+00	-1.047585e-01
5.642168e-01	5.263158e+00	-1.343226e-01
6.348639e-01	5.263158e+00	-1.641238e-01
7.013280e-01	5.263158e+00	-1.931337e-01
7.630418e-01	5.263158e+00	-2.206893e-01
8.172084e-01	5.263158e+00	-2.454799e-01
8.641863e-01	5.263158e+00	-2.673591e-01
9.009752e-01	5.263158e+00	-2.848204e-01
9.288372e-01	5.263158e+00	-2.982085e-01
9.448555e-01	5.263158e+00	-3.059908e-01
9.510565e-01	5.263158e+00	-3.090170e-01
9.510565e-01	6.315789e+00	-3.090170e-01
9.442611e-01	6.315789e+00	-3.078203e-01
[...]
CELL_DATA 760
VECTORS V double
8.414405e-01	-6.901066e-02	-1.481746e-01
8.655661e-01	-6.883712e-02	-1.539895e-01
8.835870e-01	-6.838748e-02	-1.611305e-01
8.953600e-01	-6.759330e-02	-1.677147e-01
8.978327e-01	-6.643271e-02	-1.749596e-01
8.991535e-01	-6.488807e-02	-1.814279e-01
8.921243e-01	-6.294909e-02	-1.886331e-01
8.848227e-01	-6.059178e-02	-1.948637e-01
8.704983e-01	-5.778770e-02	-2.030265e-01
8.548117e-01	-5.450428e-02	-2.103083e-01
8.295808e-01	-5.072483e-02	-2.209976e-01
7.987372e-01	-4.640844e-02	-2.295521e-01
7.513447e-01	-4.161485e-02	-2.414834e-01
6.893430e-01	-3.638640e-02	-2.458981e-01
6.027205e-01	-3.076104e-02	-2.500497e-01
4.720820e-01	-2.486147e-02	-2.258708e-01
2.704201e-01	-1.869561e-02	-1.616862e-01
-1.708340e-02	-1.242941e-02	1.309789e-02
-4.214347e-01	-5.864328e-03	5.627198e-01
-3.425392e-01	7.136492e-04	2.172747e+00
2.326362e+00	8.423895e-03	2.329686e+00
2.541164e+00	1.518625e-02	7.851422e-01
2.210186e+00	2.213010e-02	5.700671e-02
1.925265e+00	2.897527e-02	-1.726546e-01
1.719990e+00	3.596268e-02	-3.166363e-01
1.570255e+00	4.292727e-02	-3.760567e-01
1.435436e+00	4.986339e-02	-4.216008e-01
1.336643e+00	5.659259e-02	-4.390137e-01
1.250566e+00	6.299687e-02	-4.543207e-01
1.181651e+00	6.887796e-02	-4.555590e-01
1.121843e+00	7.411922e-02	-4.573156e-01
1.071595e+00	7.858472e-02	-4.520333e-01
1.027460e+00	8.221293e-02	-4.484608e-01
9.871911e-01	8.499598e-02	-4.407874e-01
9.499746e-01	8.698520e-02	-4.347766e-01
9.115267e-01	8.827849e-02	-4.245297e-01
8.743633e-01	8.900408e-02	-4.150018e-01
8.341920e-01	8.931100e-02	-4.008444e-01
7.910659e-01	8.935479e-02	-3.843304e-01
7.483164e-01	8.930908e-02	-3.651855e-01
8.268779e-01	-4.833016e-02	-1.456102e-01
8.473721e-01	-4.820590e-02	-1.507527e-01
8.618423e-01	-4.788749e-02	-1.571651e-01
8.705368e-01	-4.732387e-02	-1.630649e-01
8.702973e-01	-4.649241e-02	-1.695938e-01
8.689231e-01	-4.537430e-02	-1.753282e-01
8.589348e-01	-4.395887e-02	-1.816154e-01
8.480773e-01	-4.223116e-02	-1.867713e-01
8.294202e-01	-4.017638e-02	-1.934459e-01
8.084470e-01	-3.777935e-02	-1.989012e-01
7.766778e-01	-3.501488e-02	-2.069044e-01
7.380384e-01	-3.191962e-02	-2.121077e-01
6.817563e-01	-2.848471e-02	-2.191176e-01
6.087340e-01	-2.476072e-02	-2.171437e-01
5.089698e-01	-2.077359e-02	-2.111555e-01
3.610160e-01	-1.660631e-02	-1.727305e-01
1.376667e-01	-1.226063e-02	-8.231196e-02
-1.811345e-01	-7.849895e-03	1.388763e-01
-6.027922e-01	-3.234277e-03	8.048769e-01
-4.196752e-01	1.383408e-03	2.662025e+00
2.681741e+00	6.781496e-03	2.685573e+00
2.843485e+00	1.149577e-02	8.785500e-01
2.432839e+00	1.630814e-02	6.274953e-02
2.097041e+00	2.101577e-02	-1.880592e-01
1.860266e+00	2.577732e-02	-3.424601e-01
1.689477e+00	3.047317e-02	-4.046089e-01
1.538930e+00	3.509753e-02	-4.519978e-01
1.427701e+00	3.953229e-02	-4.689214e-01
1.330633e+00	4.370569e-02	-4.834081e-01
1.251834e+00	4.750990e-02	-4.826167e-01
1.182612e+00	5.083404e-02	-4.820878e-01
1.123292e+00	5.364984e-02	-4.738407e-01
1.070356e+00	5.590796e-02	-4.671836e-01
1.021713e+00	5.761278e-02	-4.562017e-01
9.765692e-01	5.880548e-02	-4.469482e-01
9.307462e-01	5.955689e-02	-4.334809e-01
8.867412e-01	5.995534e-02	-4.208768e-01
8.402902e-01	6.010161e-02	-4.037748e-01
7.917032e-01	6.009794e-02	-3.846400e-01
7.448163e-01	6.005463e-02	-3.634774e-01
8.205860e-01	-2.040969e-02	-1.445022e-01
8.397510e-01	-2.035852e-02	-1.493969e-01
8.527415e-01	-2.022760e-02	-1.555055e-01
8.599085e-01	-1.999174e-02	-1.610741e-01
8.581268e-01	-1.963335e-02	-1.672221e-01
8.551701e-01	-1.913577e-02	-1.725531e-01
8.435574e-01	-1.848928e-02	-1.783640e-01
8.309656e-01	-1.768854e-02	-1.830028e-01
8.104193e-01	-1.670650e-02	-1.890143e-01
7.870454e-01	-1.559269e-02	-1.936358e-01
7.529943e-01	-1.431491e-02	-2.005952e-01
7.117169e-01	-1.290591e-02	-2.045431e-01
6.519191e-01	-1.135006e-02	-2.095279e-01
5.747916e-01	-9.683464e-03	-2.050360e-01
4.700401e-01	-7.916186e-03	-1.950048e-01
3.153377e-01	-6.080671e-03	-1.508754e-01
8.339872e-02	-4.173644e-03	-4.986472e-02
-2.479135e-01	-2.243001e-03	1.900760e-01
-6.762899e-01	-2.278979e-04	9.030145e-01
-4.507065e-01	1.779776e-03	2.858859e+00
2.822799e+00	4.108181e-03	2.826833e+00
2.961174e+00	6.115558e-03	9.149124e-01
2.517437e+00	8.128441e-03	6.493154e-02
2.160320e+00	1.005173e-02	-1.937340e-01
1.910074e+00	1.194166e-02	-3.516293e-01
1.730070e+00	1.374470e-02	-4.143305e-01
1.572615e+00	1.545628e-02	-4.618915e-01
1.455988e+00	1.703581e-02	-4.782119e-01
1.354542e+00	1.846586e-02	-4.920943e-01
1.271607e+00	1.973202e-02	-4.902397e-01
1.198722e+00	2.079762e-02	-4.886550e-01
1.136420e+00	2.165721e-02	-4.793786e-01
1.080503e+00	2.229361e-02	-4.716125e-01
1.029133e+00	2.276484e-02	-4.595145e-01
9.815074e-01	2.306674e-02	-4.492083e-01
9.334706e-01	2.323132e-02	-4.347497e-01
8.875148e-01	2.329377e-02	-4.212439e-01
8.393997e-01	2.329158e-02	-4.033469e-01
7.894810e-01	2.326048e-02	-3.835603e-01
7.416848e-01	2.323434e-02	-3.619493e-01
8.182902e-01	-1.022108e-02	-1.440979e-01
8.367549e-01	-1.020005e-02	-1.488639e-01
8.489970e-01	-1.014379e-02	-1.548227e-01
8.554092e-01	-1.003801e-02	-1.602313e-01
8.528394e-01	-9.872883e-03	-1.661918e-01
8.490448e-01	-9.625119e-03	-1.713172e-01
8.365648e-01	-9.312514e-03	-1.768854e-01
8.226810e-01	-8.915131e-03	-1.811783e-01
8.011433e-01	-8.441876e-03	-1.868509e-01
7.770477e-01	-7.877956e-03	-1.911761e-01
7.415601e-01	-7.238345e-03	-1.975491e-01
6.985272e-01	-6.500551e-03	-2.007524e-01
6.369931e-01	-5.694940e-03	-2.047306e-01
5.577107e-01	-4.819428e-03	-1.989430e-01
4.503368e-01	-3.885424e-03	-1.868305e-01
2.920955e-01	-2.910029e-03	-1.397550e-01
5.568873e-02	-1.896518e-03	-3.329671e-02
-2.820598e-01	-8.628606e-04	2.162561e-01
-7.138748e-01	2.034529e-04	9.531998e-01
-4.665365e-01	1.279058e-03	2.959269e+00
2.894351e+00	2.521052e-03	2.898487e+00
3.020406e+00	3.599114e-03	9.332135e-01
2.559636e+00	4.657067e-03	6.601996e-02
2.191538e+00	5.659089e-03	-1.965335e-01
1.934382e+00	6.637795e-03	-3.561042e-01
1.749672e+00	7.557207e-03	-4.190248e-01
1.588719e+00	8.421063e-03	-4.666215e-01
1.469401e+00	9.210411e-03	-4.826174e-01
1.365764e+00	9.926142e-03	-4.961709e-01
1.281257e+00	1.054506e-02	-4.939599e-01
1.206720e+00	1.108351e-02	-4.919155e-01
1.142419e+00	1.151482e-02	-4.819092e-01
1.085186e+00	1.185295e-02	-4.736564e-01
1.032927e+00	1.209112e-02	-4.612087e-01
9.841685e-01	1.225121e-02	-4.504262e-01
9.351345e-01	1.233225e-02	-4.355246e-01
8.883030e-01	1.237622e-02	-4.216181e-01
8.394445e-01	1.238642e-02	-4.033684e-01
7.889603e-01	1.237960e-02	-3.833074e-01
7.408141e-01	1.237094e-02	-3.615243e-01
8.170561e-01	-5.656731e-03	-1.438806e-01
8.352211e-01	-5.644982e-03	-1.485910e-01
8.470467e-01	-5.614126e-03	-1.544670e-01
8.530012e-01	-5.554709e-03	-1.597802e-01
8.496768e-01	-5.458494e-03	-1.655755e-01
8.454428e-01	-5.318152e-03	-1.705904e-01
8.325762e-01	-5.146655e-03	-1.760421e-01
8.185687e-01	-4.926674e-03	-1.802726e-01
7.964194e-01	-4.661472e-03	-1.857491e-01
7.712446e-01	-4.319638e-03	-1.897484e-01
7.349933e-01	-3.934813e-03	-1.957998e-01
6.911463e-01	-3.498780e-03	-1.986312e-01
6.285719e-01	-3.027374e-03	-2.020240e-01
5.479083e-01	-2.607093e-03	-1.954463e-01
4.389714e-01	-2.063877e-03	-1.821154e-01
2.787113e-01	-1.456647e-03	-1.333513e-01
3.968710e-02	-8.473411e-04	-2.372921e-02
-3.016778e-01	-2.277842e-04	2.312972e-01
-7.353607e-01	4.203079e-04	9.818888e-01
-4.757632e-01	1.049709e-03	3.017795e+00
2.936634e+00	1.809905e-03	2.940830e+00
3.054967e+00	2.443400e-03	9.438917e-01
2.583748e+00	3.071095e-03	6.664190e-02
2.209389e+00	3.661379e-03	-1.981343e-01
1.948142e+00	4.230664e-03	-3.586374e-01
1.760602e+00	4.753841e-03	-4.216424e-01
1.597620e+00	5.239381e-03	-4.692356e-01
1.476842e+00	5.782904e-03	-4.850614e-01
1.371928e+00	6.186826e-03	-4.984104e-01
1.286213e+00	6.524742e-03	-4.958704e-01
1.210866e+00	6.805128e-03	-4.936055e-01
1.146253e+00	7.035175e-03	-4.835263e-01
1.088225e+00	7.233222e-03	-4.749828e-01
1.034903e+00	7.375856e-03	-4.620910e-01
9.854440e-01	7.474124e-03	-4.510100e-01
9.358539e-01	7.522688e-03	-4.358597e-01
8.888478e-01	7.546064e-03	-4.218766e-01
8.396013e-01	7.552478e-03	-4.034437e-01
7.887874e-01	7.549318e-03	-3.832234e-01
7.403583e-01	7.544421e-03	-3.613019e-01
8.163185e-01	-3.307209e-03	-1.437507e-01
8.342633e-01	-3.300430e-03	-1.484206e-01
8.458181e-01	-3.282497e-03	-1.542430e-01
8.514324e-01	-3.248236e-03	-1.594864e-01
8.480042e-01	-3.215604e-03	-1.652496e-01
8.436373e-01	-3.129031e-03	-1.702261e-01
8.305086e-01	-3.006673e-03	-1.756049e-01
8.157713e-01	-2.858914e-03	-1.796565e-01
7.929434e-01	-2.671808e-03	-1.849384e-01
7.675078e-01	-2.437578e-03	-1.888290e-01
7.308319e-01	-2.196642e-03	-1.946912e-01
6.864317e-01	-1.969652e-03	-1.972762e-01
6.245703e-01	-1.654800e-03	-2.007379e-01
5.434624e-01	-1.435226e-03	-1.938604e-01
4.316585e-01	-1.069538e-03	-1.790815e-01
2.696580e-01	-6.910025e-04	-1.290197e-01
2.944519e-02	-2.948107e-04	-1.760550e-02
-3.144783e-01	1.001003e-04	2.411114e-01
-7.492431e-01	5.256255e-04	1.000425e+00
-4.815004e-01	9.339812e-04	3.054186e+00
2.962487e+00	1.405206e-03	2.966720e+00
3.075840e+00	1.793054e-03	9.503409e-01
2.598820e+00	2.190559e-03	6.703065e-02
2.220243e+00	2.561985e-03	-1.991077e-01
1.956271e+00	2.913254e-03	-3.601338e-01
1.766935e+00	3.241002e-03	-4.231592e-01
1.604360e+00	3.655740e-03	-4.712154e-01
1.482487e+00	3.914123e-03	-4.869156e-01
1.375424e+00	4.158649e-03	-4.996804e-01
1.289058e+00	4.379046e-03	-4.969676e-01
1.213112e+00	4.546241e-03	-4.945210e-01
1.147885e+00	4.654911e-03	-4.842148e-01
1.089749e+00	4.752935e-03	-4.756481e-01
1.036415e+00	4.832583e-03	-4.627662e-01
9.865673e-01	4.886252e-03	-4.515241e-01
9.365127e-01	4.959265e-03	-4.361665e-01
8.890315e-01	4.961958e-03	-4.219638e-01
8.395990e-01	4.960398e-03	-4.034426e-01
7.886114e-01	4.956655e-03	-3.831379e-01
7.400640e-01	4.953411e-03	-3.611583e-01
8.159185e-01	-2.043142e-03	-1.436803e-01
8.337747e-01	-2.039170e-03	-1.483337e-01
8.452099e-01	-2.029212e-03	-1.541321e-01
8.513470e-01	-2.011158e-03	-1.594704e-01
8.471814e-01	-1.982127e-03	-1.650892e-01
8.418028e-01	-2.027587e-03	-1.698559e-01
8.284035e-01	-1.936303e-03	-1.751598e-01
8.137961e-01	-1.798315e-03	-1.792215e-01
7.907295e-01	-1.696066e-03	-1.844220e-01
7.650078e-01	-1.552351e-03	-1.882139e-01
7.288743e-01	-1.394245e-03	-1.941697e-01
6.839418e-01	-1.222214e-03	-1.965607e-01
6.210976e-01	-1.021392e-03	-1.996218e-01
5.393047e-01	-7.411168e-04	-1.923773e-01
4.268584e-01	-5.056261e-04	-1.770900e-01
2.644490e-01	-2.981074e-04	-1.265274e-01
2.277276e-02	-5.396057e-05	-1.361600e-02
-3.226094e-01	1.686387e-04	2.473455e-01
-7.584753e-01	4.282016e-04	1.012753e+00
-4.852733e-01	7.004137e-04	3.078118e+00
2.978587e+00	9.785816e-04	2.982843e+00
3.089606e+00	1.230107e-03	9.545940e-01
2.608473e+00	1.471716e-03	6.727963e-02
2.227258e+00	1.730407e-03	-1.997368e-01
1.961756e+00	1.950756e-03	-3.611436e-01
1.773436e+00	2.164602e-03	-4.247161e-01
1.607708e+00	2.363114e-03	-4.721987e-01
1.483815e+00	2.464981e-03	-4.873516e-01
1.377987e+00	2.610572e-03	-5.006115e-01
1.291102e+00	2.748268e-03	-4.977553e-01
1.214322e+00	2.863004e-03	-4.950145e-01
1.148891e+00	2.956250e-03	-4.846390e-01
1.090600e+00	3.059660e-03	-4.760196e-01
1.036834e+00	3.131504e-03	-4.629534e-01
9.874480e-01	3.247653e-03	-4.519272e-01
9.373794e-01	3.235604e-03	-4.365702e-01
8.888860e-01	3.228438e-03	-4.218947e-01
8.394526e-01	3.224994e-03	-4.033723e-01
7.884542e-01	3.221583e-03	-3.830615e-01
7.398615e-01	3.219265e-03	-3.610595e-01
8.156521e-01	-1.106524e-03	-1.436333e-01
8.334530e-01	-1.103467e-03	-1.482764e-01
8.448366e-01	-1.093900e-03	-1.540640e-01
8.502298e-01	-1.100906e-03	-1.592611e-01
8.484727e-01	-1.052196e-03	-1.653409e-01
8.426922e-01	-1.035314e-03	-1.700354e-01
8.269481e-01	-1.000065e-03	-1.748521e-01
8.123759e-01	-9.760414e-04	-1.789088e-01
7.896183e-01	-9.871537e-04	-1.841629e-01
7.635456e-01	-9.101435e-04	-1.878542e-01
7.265167e-01	-8.098258e-04	-1.935416e-01
6.814656e-01	-6.890544e-04	-1.958490e-01
6.179153e-01	-5.775305e-04	-1.985990e-01
5.357556e-01	-3.434622e-04	-1.911113e-01
4.244106e-01	-2.532254e-04	-1.760745e-01
2.613860e-01	-1.251299e-04	-1.250619e-01
1.941416e-02	1.213238e-05	-1.160787e-02
-3.267013e-01	1.541787e-04	2.504829e-01
-7.638502e-01	3.036293e-04	1.019929e+00
-4.875153e-01	4.525548e-04	3.092339e+00
2.988571e+00	6.239587e-04	2.992841e+00
3.097447e+00	7.695738e-04	9.570166e-01
2.615084e+00	9.127170e-04	6.745014e-02
2.232016e+00	1.046393e-03	-2.001635e-01
1.964992e+00	1.174065e-03	-3.617392e-01
1.773993e+00	1.294002e-03	-4.248493e-01
1.608843e+00	1.321107e-03	-4.725319e-01
1.485941e+00	1.432821e-03	-4.880498e-01
1.379118e+00	1.539929e-03	-5.010223e-01
1.292244e+00	1.596639e-03	-4.981955e-01
1.215716e+00	1.659848e-03	-4.955827e-01
1.150390e+00	1.800832e-03	-4.852714e-01
1.092098e+00	1.817256e-03	-4.766732e-01
1.039082e+00	1.853555e-03	-4.639572e-01
9.883662e-01	1.857430e-03	-4.523474e-01
9.361478e-01	1.830874e-03	-4.359966e-01
8.887788e-01	1.840194e-03	-4.218439e-01
8.393902e-01	1.865149e-03	-4.033423e-01
7.883278e-01	1.862410e-03	-3.830001e-01
7.397091e-01	1.860982e-03	-3.609851e-01
8.154055e-01	-1.358998e-03	-1.435899e-01
8.330222e-01	-1.359102e-03	-1.481998e-01
8.452296e-01	-1.359978e-03	-1.541357e-01
8.501365e-01	-1.342740e-03	-1.592436e-01
8.459226e-01	-1.302154e-03	-1.648439e-01
8.408839e-01	-1.255609e-03	-1.696705e-01
8.275004e-01	-1.092683e-03	-1.749688e-01
8.136284e-01	-1.185265e-03	-1.791846e-01
7.898188e-01	-9.664368e-04	-1.842096e-01
7.626790e-01	-1.016308e-03	-1.876410e-01
7.259854e-01	-6.601135e-04	-1.934001e-01
6.808405e-01	-7.484114e-04	-1.956694e-01
6.163461e-01	-3.128032e-04	-1.980946e-01
5.343756e-01	-3.758881e-04	-1.906191e-01
4.233406e-01	8.306507e-05	-1.756306e-01
2.595690e-01	4.193219e-04	-1.241925e-01
1.681395e-02	6.104927e-04	-1.005319e-02
-3.300605e-01	6.553064e-04	2.530584e-01
-7.667144e-01	7.006714e-04	1.023754e+00
-4.887375e-01	7.601563e-04	3.100092e+00
2.994112e+00	8.393933e-04	2.998391e+00
3.102287e+00	9.160713e-04	9.585122e-01
2.617374e+00	1.010607e-03	6.750920e-02
2.233724e+00	1.090724e-03	-2.003167e-01
1.966722e+00	1.023223e-03	-3.620578e-01
1.775856e+00	8.034231e-04	-4.252956e-01
1.609874e+00	4.537402e-04	-4.728349e-01
1.486849e+00	6.161790e-04	-4.883484e-01
1.380111e+00	2.982738e-04	-5.013832e-01
1.292616e+00	4.271385e-04	-4.983392e-01
1.216873e+00	1.314888e-04	-4.960544e-01
1.150928e+00	2.812018e-04	-4.854983e-01
1.091294e+00	2.026863e-05	-4.763226e-01
1.037433e+00	7.556365e-05	-4.632209e-01
9.871177e-01	-1.288377e-04	-4.517760e-01
9.369980e-01	-7.326047e-05	-4.363926e-01
8.896220e-01	-9.023586e-05	-4.222441e-01
8.402891e-01	-9.681516e-05	-4.037742e-01
7.882401e-01	-9.189872e-05	-3.829575e-01
7.396428e-01	-9.084433e-05	-3.609527e-01
8.156695e-01	4.867007e-05	-1.436364e-01
8.335158e-01	3.117492e-05	-1.482876e-01
8.441786e-01	2.970705e-05	-1.539440e-01
8.487217e-01	5.123579e-05	-1.589786e-01
8.467108e-01	4.937055e-05	-1.649975e-01
8.389512e-01	4.912357e-05	-1.692805e-01
8.260568e-01	4.931287e-05	-1.746636e-01
8.104443e-01	5.362851e-05	-1.784834e-01
7.874105e-01	1.002365e-04	-1.836479e-01
7.594989e-01	8.401270e-05	-1.868586e-01
7.229791e-01	7.136878e-05	-1.925992e-01
6.769724e-01	6.769759e-05	-1.945577e-01
6.125132e-01	5.829061e-06	-1.968627e-01
5.302407e-01	7.526914e-06	-1.891441e-01
4.113244e-01	3.749105e-05	-1.706455e-01
2.514206e-01	4.092184e-06	-1.202938e-01
1.400591e-02	6.438976e-06	-8.374236e-03
-3.290136e-01	8.064574e-06	2.522557e-01
-7.666646e-01	8.382498e-06	1.023687e+00
-4.889963e-01	7.763869e-06	3.101733e+00
2.996295e+00	6.346462e-06	3.000576e+00
3.105140e+00	4.655197e-06	9.593936e-01
2.620656e+00	2.407931e-06	6.759385e-02
2.231903e+00	-7.847479e-07	-2.001534e-01
1.958943e+00	3.018312e-05	-3.606258e-01
1.764079e+00	2.493807e-05	-4.224752e-01
1.606380e+00	-1.060674e-05	-4.718085e-01
1.483570e+00	3.870930e-05	-4.872712e-01
1.376768e+00	2.304545e-05	-5.001687e-01
1.290106e+00	1.148902e-05	-4.973713e-01
1.213862e+00	3.405554e-06	-4.948269e-01
1.149072e+00	-7.849738e-05	-4.847153e-01
1.089225e+00	-3.795711e-05	-4.754194e-01
1.037123e+00	-3.752089e-05	-4.630823e-01
9.857135e-01	-3.547523e-05	-4.511333e-01
9.369885e-01	-3.490646e-05	-4.363881e-01
8.882115e-01	-3.346517e-05	-4.215746e-01
8.392730e-01	-5.559810e-05	-4.032860e-01
7.886649e-01	-5.444070e-05	-3.831638e-01
7.398706e-01	-3.700595e-05	-3.610639e-01
8.183416e-01	1.463766e-03	-1.441070e-01
8.337221e-01	1.464146e-03	-1.483243e-01
8.444179e-01	1.466047e-03	-1.539876e-01
8.497226e-01	1.451527e-03	-1.591661e-01
8.459620e-01	1.415143e-03	-1.648516e-01
8.408844e-01	1.461322e-03	-1.696706e-01
8.274280e-01	1.288368e-03	-1.749535e-01
8.128864e-01	1.349626e-03	-1.790212e-01
7.894255e-01	1.082024e-03	-1.841179e-01
7.630576e-01	1.128511e-03	-1.877341e-01
7.261994e-01	7.746710e-04	-1.934571e-01
6.816993e-01	7.844909e-04	-1.959162e-01
6.172111e-01	3.497951e-04	-1.983727e-01
5.339248e-01	4.370045e-04	-1.904583e-01
4.233300e-01	-5.741379e-05	-1.756262e-01
2.602000e-01	-3.943603e-04	-1.244944e-01
1.672724e-02	-5.876321e-04	-1.000134e-02
-3.301158e-01	-6.092802e-04	2.531007e-01
-7.667114e-01	-6.856861e-04	1.023750e+00
-4.887167e-01	-7.469666e-04	3.099960e+00
2.993955e+00	-8.304449e-04	2.998234e+00
3.102109e+00	-8.830270e-04	9.584572e-01
2.617193e+00	-9.786602e-04	6.750454e-02
2.234512e+00	-1.092923e-03	-2.003873e-01
1.967175e+00	-1.031285e-03	-3.621412e-01
1.775123e+00	-7.854713e-04	-4.251200e-01
1.610145e+00	-4.455430e-04	-4.729145e-01
1.487288e+00	-6.464783e-04	-4.884923e-01
1.379757e+00	-3.436684e-04	-5.012545e-01
1.292368e+00	-4.102587e-04	-4.982437e-01
1.215751e+00	-1.332170e-04	-4.955971e-01
1.150371e+00	-2.735504e-04	-4.852633e-01
1.091857e+00	-2.820535e-05	-4.765683e-01
1.037468e+00	-1.344249e-04	-4.632363e-01
9.871610e-01	-3.318599e-05	-4.517958e-01
9.370338e-01	-6.057326e-05	-4.364092e-01
8.892187e-01	-3.091128e-05	-4.220527e-01
8.395159e-01	-2.117339e-05	-4.034027e-01
7.888584e-01	-2.532676e-05	-3.832579e-01
7.423128e-01	-2.629630e-05	-3.622557e-01
8.156056e-01	1.190561e-03	-1.436252e-01
8.333742e-01	1.205171e-03	-1.482624e-01
8.447016e-01	1.197859e-03	-1.540394e-01
8.500535e-01	1.191944e-03	-1.592281e-01
8.463607e-01	1.080220e-03	-1.649293e-01
8.413846e-01	1.055100e-03	-1.697715e-01
8.275999e-01	9.802448e-04	-1.749899e-01
8.135211e-01	9.583432e-04	-1.791610e-01
7.903095e-01	9.293895e-04	-1.843241e-01
7.635588e-01	8.550784e-04	-1.878574e-01
7.275056e-01	7.707175e-04	-1.938051e-01
6.825215e-01	7.025755e-04	-1.961525e-01
6.175774e-01	6.237741e-04	-1.984904e-01
5.358815e-01	4.759736e-04	-1.911562e-01
4.250363e-01	3.423113e-04	-1.763341e-01
2.614351e-01	2.358008e-04	-1.250854e-01
1.902666e-02	8.796859e-05	-1.137618e-02
-3.267226e-01	-6.194409e-05	2.504992e-01
-7.627786e-01	-2.174009e-04	1.018498e+00
-4.874539e-01	-3.711385e-04	3.091950e+00
2.989804e+00	-5.474494e-04	2.994077e+00
3.098232e+00	-6.969595e-04	9.572591e-01
2.613773e+00	-8.435968e-04	6.741632e-02
2.231105e+00	-9.795618e-04	-2.000818e-01
1.965454e+00	-1.143043e-03	-3.618243e-01
1.774232e+00	-1.260058e-03	-4.249067e-01
1.608090e+00	-1.367675e-03	-4.723109e-01
1.485207e+00	-1.497187e-03	-4.878090e-01
1.379753e+00	-1.580071e-03	-5.012532e-01
1.292789e+00	-1.642599e-03	-4.984057e-01
1.215599e+00	-1.693653e-03	-4.955349e-01
1.150317e+00	-1.731550e-03	-4.852405e-01
1.091226e+00	-1.790680e-03	-4.762928e-01
1.036907e+00	-1.798230e-03	-4.629860e-01
9.870295e-01	-1.821295e-03	-4.517356e-01
9.369329e-01	-1.843427e-03	-4.363622e-01
8.891677e-01	-1.761586e-03	-4.220284e-01
8.395234e-01	-1.772211e-03	-4.034063e-01
7.883777e-01	-1.772035e-03	-3.830243e-01
7.397221e-01	-1.788478e-03	-3.609914e-01
8.158896e-01	1.715442e-03	-1.436752e-01
8.337154e-01	1.704533e-03	-1.483231e-01
8.448484e-01	1.580963e-03	-1.540661e-01
8.529750e-01	1.673607e-03	-1.597753e-01
8.485509e-01	1.700977e-03	-1.653561e-01
8.426632e-01	1.710027e-03	-1.700295e-01
8.288765e-01	1.668384e-03	-1.752598e-01
8.136117e-01	1.604420e-03	-1.791809e-01
7.908287e-01	1.532626e-03	-1.844452e-01
7.651408e-01	1.414587e-03	-1.882467e-01
7.281945e-01	1.270470e-03	-1.939886e-01
6.836566e-01	1.187859e-03	-1.964787e-01
6.203317e-01	9.832784e-04	-1.993756e-01
5.381232e-01	7.865218e-04	-1.919559e-01