# vtk DataFile Version 2.0
OUTPUT by 3D-VPM
ASCII
DATASET UNSTRUCTURED_GRID
POINTS 820 double
9.510565e-01	0.000000e+00	-3.090170e-01
9.442611e-01	0.000000e+00	-3.078203e-01
9.267277e-01	0.000000e+00	-3.047010e-01
8.963175e-01	0.000000e+00	-2.991555e-01
8.562911e-01	0.000000e+00	-2.916579e-01
8.054250e-01	0.000000e+00	-2.817457e-01
7.470317e-01	0.000000e+00	-2.699633e-01
6.809074e-01	0.000000e+00	-2.559818e-01
6.100852e-01	0.000000e+00	-2.403847e-01
5.354138e-01	0.000000e+00	-2.229691e-01
4.593635e-01	0.000000e+00	-2.042585e-01
3.837764e-01	0.000000e+00	-1.841224e-01
3.103069e-01	0.000000e+00	-1.630077e-01
2.415927e-01	0.000000e+00	-1.409228e-01
1.782654e-01	0.000000e+00	-1.183331e-01
1.234349e-01	0.000000e+00	-9.558566e-02
7.662509e-02	0.000000e+00	-7.318920e-02
4.106998e-02	0.000000e+00	-5.193053e-02
1.528206e-02	0.000000e+00	-3.215886e-02
2.347037e-03	0.000000e+00	-1.488740e-02
0.000000e+00	0.000000e+00	0.000000e+00
1.064939e-02	0.000000e+00	1.066461e-02
3.126595e-02	0.000000e+00	1.703450e-02
6.375031e-02	0.000000e+00	1.787236e-02
1.050105e-01	0.000000e+00	1.417221e-02
1.560448e-01	0.000000e+00	4.777214e-03
2.137742e-01	0.000000e+00	-9.048270e-03
2.782849e-01	0.000000e+00	-2.799567e-02
3.468570e-01	0.000000e+00	-5.051783e-02
4.187060e-01	0.000000e+00	-7.662000e-02
4.916930e-01	0.000000e+00	-1.047585e-01
5.642168e-01	0.000000e+00	-1.343226e-01
6.348639e-01	0.000000e+00	-1.641238e-01
7.013280e-01	0.000000e+00	-1.931337e-01
7.630418e-01	0.000000e+00	-2.206893e-01
8.172084e-01	0.000000e+00	-2.454799e-01
8.641863e-01	0.000000e+00	-2.673591e-01
9.009752e-01	0.000000e+00	-2.848204e-01
9.288372e-01	0.000000e+00	-2.982085e-01
9.448555e-01	0.000000e+00	-3.059908e-01
9.510565e-01	0.000000e+00	-3.090170e-01
9.510565e-01	1.052632e+00	-3.090170e-01
9.442611e-01	1.052632e+00	-3.078203e-01
9.267277e-01	1.052632e+00	-3.047010e-01
8.963175e-01	1.052632e+00	-2.991555e-01
8.562911e-01	1.052632e+00	-2.916579e-01
8.054250e-01	1.052632e+00	-2.817457e-01
7.470317e-01	1.052632e+00	-2.699633e-01
6.809074e-01	1.052632e+00	-2.559818e-01
6.100852e-01	1.052632e+00	-2.403847e-01
5.354138e-01	1.052632e+00	-2.229691e-01
4.593635e-01	1.052632e+00	-2.042585e-01
3.837764e-01	1.052632e+00	-1.841224e-01
3.103069e-01	1.052632e+00	-1.630077e-01
2.415927e-01	1.052632e+00	-1.409228e-01
1.782654e-01	1.052632e+00	-1.183331e-01
1.234349e-01	1.052632e+00	-9.558566e-02
7.662509e-02	1.052632e+00	-7.318920e-02
4.106998e-02	1.052632e+00	-5.193053e-02
1.528206e-02	1.052632e+00	-3.215886e-02
2.347037e-03	1.052632e+00	-1.488740e-02
0.000000e+00	1.052632e+00	0.000000e+00
1.064939e-02	1.052632e+00	1.066461e-02
3.126595e-02	1.052632e+00	1.703450e-02
6.375031e-02	1.052632e+00	1.787236e-02
1.050105e-01	1.052632e+00	1.417221e-02
1.560448e-01	1.052632e+00	4.777214e-03
2.137742e-01	1.052632e+00	-9.048270e-03
2.782849e-01	1.052632e+00	-2.799567e-02
3.468570e-01	1.052632e+00	-5.051783e-02
4.187060e-01	1.052632e+00	-7.662000e-02
4.916930e-01	1.052632e+00	-1.047585e-01
5.642168e-01	1.052632e+00	-1.343226e-01
6.348639e-01	1.052632e+00	-1.641238e-01
7.013280e-01	1.052632e+00	-1.931337e-01
7.630418e-01	1.052632e+00	-2.206893e-01
8.172084e-01	1.052632e+00	-2.454799e-01
8.641863e-01	1.052632e+00	-2.673591e-01
9.009752e-01	1.052632e+00	-2.848204e-01
9.288372e-01	1.052632e+00	-2.982085e-01
9.448555e-01	1.052632e+00	-3.059908e-01
9.510565e-01	1.052632e+00	-3.090170e-01
9.510565e-01	2.105263e+00	-3.090170e-01
9.442611e-01	2.105263e+00	-3.078203e-01
9.267277e-01	2.105263e+00	-3.047010e-01
8.963175e-01	2.105263e+00	-2.991555e-01
8.562911e-01	2.105263e+00	-2.916579e-01
8.054250e-01	2.105263e+00	-2.817457e-01
7.470317e-01	2.105263e+00	-2.699633e-01
6.809074e-01	2.105263e+00	-2.559818e-01
6.100852e-01	2.105263e+00	-2.403847e-01
5.354138e-01	2.105263e+00	-2.229691e-01
4.593635e-01	2.105263e+00	-2.042585e-01
3.837764e-01	2.105263e+00	-1.841224e-01
3.103069e-01	2.105263e+00	-1.630077e-01
2.415927e-01	2.105263e+00	-1.409228e-01
1.782654e-01	2.105263e+00	-1.183331e-01
1.234349e-01	2.105263e+00	-9.558566e-02
7.662509e-02	2.105263e+00	-7.318920e-02
4.106998e-02	2.105263e+00	-5.193053e-02
1.528206e-02	2.105263e+00	-3.215886e-02
2.347037e-03	2.105263e+00	-1.488740e-02
0.000000e+00	2.105263e+00	0.000000e+00
1.064939e-02	2.105263e+00	1.066461e-02
3.126595e-02	2.105263e+00	1.703450e-02
6.375031e-02	2.105263e+00	1.787236e-02
1.050105e-01	2.105263e+00	1.417221e-02
1.560448e-01	2.105263e+00	4.777214e-03
2.137742e-01	2.105263e+00	-9.048270e-03
2.782849e-01	2.105263e+00	-2.799567e-02
3.468570e-01	2.105263e+00	-5.051783e-02
4.187060e-01	2.105263e+00	-7.662000e-02
4.916930e-01	2.105263e+00	-1.047585e-01
5.642168e-01	2.105263e+00	-1.343226e-01
6.348639e-01	2.105263e+00	-1.641238e-01
7.013280e-01	2.105263e+00	-1.931337e-01
7.630418e-01	2.105263e+00	-2.206893e-01
8.172084e-01	2.105263e+00	-2.454799e-01
8.641863e-01	2.105263e+00	-2.673591e-01
9.009752e-01	2.105263e+00	-2.848204e-01
9.288372e-01	2.105263e+00	-2.982085e-01
9.448555e-01	2.105263e+00	-3.059908e-01
9.510565e-01	2.105263e+00	-3.090170e-01
9.510565e-01	3.157895e+00	-3.090170e-01
9.442611e-01	3.157895e+00	-3.078203e-01
9.267277e-01	3.157895e+00	-3.047010e-01
8.963175e-01	3.157895e+00	-2.991555e-01
8.562911e-01	3.157895e+00	-2.916579e-01
8.054250e-01	3.157895e+00	-2.817457e-01
7.470317e-01	3.157895e+00	-2.699633e-01
6.809074e-01	3.157895e+00	-2.559818e-01
6.100852e-01	3.157895e+00	-2.403847e-01
5.354138e-01	3.157895e+00	-2.229691e-01
4.593635e-01	3.157895e+00	-2.042585e-01
3.837764e-01	3.157895e+00	-1.841224e-01
3.103069e-01	3.157895e+00	-1.630077e-01
2.415927e-01	3.157895e+00	-1.409228e-01
1.782654e-01	3.157895e+00	-1.183331e-01
1.234349e-01	3.157895e+00	-9.558566e-02
7.662509e-02	3.157895e+00	-7.318920e-02
4.106998e-02	3.157895e+00	-5.193053e-02
1.528206e-02	3.157895e+00	-3.215886e-02
2.347037e-03	3.157895e+00	-1.488740e-02
0.000000e+00	3.157895e+00	0.000000e+00
1.064939e-02	3.157895e+00	1.066461e-02
3.126595e-02	3.157895e+00	1.703450e-02
6.375031e-02	3.157895e+00	1.787236e-02
1.050105e-01	3.157895e+00	1.417221e-02
1.560448e-01	3.157895e+00	4.777214e-03
2.137742e-01	3.157895e+00	-9.048270e-03
2.782849e-01	3.157895e+00	-2.799567e-02
3.468570e-01	3.157895e+00	-5.051783e-02
4.187060e-01	3.157895e+00	-7.662000e-02
4.916930e-01	3.157895e+00	-1.047585e-01
5.642168e-01	3.157895e+00	-1.343226e-01
6.348639e-01	3.157895e+00	-1.641238e-01
7.013280e-01	3.157895e+00	-1.931337e-01
7.630418e-01	3.157895e+00	-2.206893e-01
8.172084e-01	3.157895e+00	-2.454799e-01
8.641863e-01	3.157895e+00	-2.673591e-01
9.009752e-01	3.157895e+00	-2.848204e-01
9.288372e-01	3.157895e+00	-2.982085e-01
9.448555e-01	3.157895e+00	-3.059908e-01
9.510565e-01	3.157895e+00	-3.090170e-01
9.510565e-01	4.210526e+00	-3.090170e-01
9.442611e-01	4.210526e+00	-3.078203e-01
9.267277e-01	4.210526e+00	-3.047010e-01
8.963175e-01	4.210526e+00	-2.991555e-01
8.562911e-01	4.210526e+00	-2.916579e-01
8.054250e-01	4.210526e+00	-2.817457e-01
7.470317e-01	4.210526e+00	-2.699633e-01
6.809074e-01	4.210526e+00	-2.559818e-01
6.100852e-01	4.210526e+00	-2.403847e-01
5.354138e-01	4.210526e+00	-2.229691e-01
4.593635e-01	4.210526e+00	-2.042585e-01
3.837764e-01	4.210526e+00	-1.841224e-01
3.103069e-01	4.210526e+00	-1.630077e-01
2.415927e-01	4.210526e+00	-1.409228e-01
1.782654e-01	4.210526e+00	-1.183331e-01
1.234349e-01	4.210526e+00	-9.558566e-02
7.662509e-02	4.210526e+00	-7.318920e-02
4.106998e-02	4.210526e+00	-5.193053e-02
1.528206e-02	4.210526e+00	-3.215886e-02
2.347037e-03	4.210526e+00	-1.488740e-02
0.000000e+00	4.210526e+00	0.000000e+00
1.064939e-02	4.210526e+00	1.066461e-02
3.126595e-02	4.210526e+00	1.703450e-02
6.375031e-02	4.210526e+00	1.787236e-02
1.050105e-01	4.210526e+00	1.417221e-02
1.560448e-01	4.210526e+00	4.777214e-03
2.137742e-01	4.210526e+00	-9.048270e-03
2.782849e-01	4.210526e+00	-2.799567e-02
3.468570e-01	4.210526e+00	-5.051783e-02
4.187060e-01	4.210526e+00	-7.662000e-02
4.916930e-01	4.210526e+00	-1.047585e-01
5.642168e-01	4.210526e+00	-1.343226e-01
6.348639e-01	4.210526e+00	-1.641238e-01
7.013280e-01	4.210526e+00	-1.931337e-01
7.630418e-01	4.210526e+00	-2.206893e-01
8.172084e-01	4.210526e+00	-2.454799e-01
8.641863e-01	4.210526e+00	-2.673591e-01
9.009752e-01	4.210526e+00	-2.848204e-01
9.288372e-01	4.210526e+00	-2.982085e-01
9.448555e-01	4.210526e+00	-3.059908e-01
9.510565e-01	4.210526e+00	-3.090170e-01
9.510565e-01	5.263158e+00	-3.090170e-01
9.442611e-01	5.263158e+00	-3.078203e-01
9.267277e-01	5.263158e+00	-3.047010e-01
8.963175e-01	5.263158e+00	-2.991555e-01
8.562911e-01	5.263158e+00	-2.916579e-01
8.054250e-01	5.263158e+00	-2.817457e-01
7.470317e-01	5.263158e+00	-2.699633e-01
6.809074e-01	5.263158e+00	-2.559818e-01
6.100852e-01	5.263158e+00	-2.403847e-01
5.354138e-01	5.263158e+00	-2.229691e-01
4.593635e-01	5.263158e+00	-2.042585e-01
3.837764e-01	5.263158e+00	-1.841224e-01
3.103069e-01	5.263158e+00	-1.630077e-01
2.415927e-01	5.263158e+00	-1.409228e-01
1.782654e-01	5.263158e+00	-1.183331e-01
1.234349e-01	5.263158e+00	-9.558566e-02
7.662509e-02	5.263158e+00	-7.318920e-02
4.106998e-02	5.263158e+00	-5.193053e-02
1.528206e-02	5.263158e+00	-3.215886e-02
2.347037e-03	5.263158e+00	-1.488740e-02
0.000000e+00	5.263158e+00	0.000000e+00
1.064939e-02	5.263158e+00	1.066461e-02
3.126595e-02	5.263158e+00	1.703450e-02
6.375031e-02	5.263158e+00	1.787236e-02
1.050105e-01	5.263158e+00	1.417221e-02
1.560448e-01	5.263158e+00	4.777214e-03
2.137742e-01	5.263158e+00	-9.048270e-03
2.782849e-01	5.263158e+00	-2.799567e-02
3.468570e-01	5.263158e+00	-5.051783e-02
4.187060e-01	5.263158e+00	-7.662000e-02
4.916930e-01	5.263158e+00	-1.047585e-01
5.642168e-01	5.263158e+00	-1.343226e-01
6.348639e-01	5.263158e+00	-1.641238e-01
7.013280e-01	5.263158e+00	-1.931337e-01
7.630418e-01	5.263158e+00	-2.206893e-01
8.172084e-01	5.263158e+00	-2.454799e-01
8.641863e-01	5.263158e+00	-2.673591e-01
9.009752e-01	5.263158e+00	-2.848204e-01
9.288372e-01	5.263158e+00	-2.982085e-01
9.448555e-01	5.263158e+00	-3.059908e-01
9.510565e-01	5.263158e+00	-3.090170e-01
9.510565e-01	6.315789e+00	-3.090170e-01
9.442611e-01	6.315789e+00	-3.078203e-01
[...]
CELL_DATA 760
VECTORS V double
8.415764e-01	-6.884824e-02	-1.481985e-01
8.654703e-01	-6.867474e-02	-1.539725e-01
8.836682e-01	-6.823334e-02	-1.611453e-01
8.955749e-01	-6.744135e-02	-1.677549e-01
8.980930e-01	-6.628445e-02	-1.750103e-01
8.994654e-01	-6.474474e-02	-1.814909e-01
8.924910e-01	-6.281194e-02	-1.887106e-01
8.852487e-01	-6.046237e-02	-1.949575e-01
8.709872e-01	-5.766769e-02	-2.031405e-01
8.554058e-01	-5.439591e-02	-2.104545e-01
8.302780e-01	-5.061085e-02	-2.211833e-01
7.994893e-01	-4.633059e-02	-2.297683e-01
7.521838e-01	-4.155314e-02	-2.417531e-01
6.903279e-01	-3.634257e-02	-2.462494e-01
6.038587e-01	-3.073682e-02	-2.505219e-01
4.738655e-01	-2.488429e-02	-2.267241e-01
2.726771e-01	-1.868891e-02	-1.630357e-01
-1.500143e-02	-1.244608e-02	1.150164e-02
-4.190771e-01	-5.902873e-03	5.595718e-01
-3.415407e-01	6.525282e-04	2.166414e+00
2.321829e+00	8.338411e-03	2.325147e+00
2.537446e+00	1.508047e-02	7.839936e-01
2.207555e+00	2.200475e-02	5.693885e-02
1.924096e+00	2.883248e-02	-1.725497e-01
1.719048e+00	3.577598e-02	-3.164630e-01
1.569169e+00	4.272149e-02	-3.757965e-01
1.434606e+00	4.963717e-02	-4.213570e-01
1.335993e+00	5.634576e-02	-4.388002e-01
1.250166e+00	6.272949e-02	-4.541752e-01
1.181320e+00	6.860203e-02	-4.554315e-01
1.121496e+00	7.381651e-02	-4.571742e-01
1.071352e+00	7.826629e-02	-4.519306e-01
1.027272e+00	8.188048e-02	-4.483784e-01
9.870471e-01	8.465194e-02	-4.407231e-01
9.498697e-01	8.663208e-02	-4.347286e-01
9.114578e-01	8.791895e-02	-4.244976e-01
8.743303e-01	8.864051e-02	-4.149861e-01
8.341062e-01	8.894500e-02	-4.008032e-01
7.908782e-01	8.899495e-02	-3.842392e-01
7.483867e-01	8.894873e-02	-3.652198e-01
8.270174e-01	-4.835981e-02	-1.456347e-01
8.475559e-01	-4.823581e-02	-1.507854e-01
8.620775e-01	-4.792207e-02	-1.572080e-01
8.708271e-01	-4.736043e-02	-1.631193e-01
8.706453e-01	-4.653215e-02	-1.696616e-01
8.693314e-01	-4.541831e-02	-1.754106e-01
8.594093e-01	-4.400843e-02	-1.817157e-01
8.486253e-01	-4.228780e-02	-1.868920e-01
8.300511e-01	-4.024251e-02	-1.935930e-01
8.090802e-01	-3.784257e-02	-1.990570e-01
7.775729e-01	-3.510992e-02	-2.071428e-01
7.391418e-01	-3.204035e-02	-2.124248e-01
6.828315e-01	-2.844971e-02	-2.194632e-01
6.099971e-01	-2.475614e-02	-2.175943e-01
5.106365e-01	-2.079048e-02	-2.118470e-01
3.630235e-01	-1.664123e-02	-1.736910e-01
1.397922e-01	-1.228821e-02	-8.358281e-02
-1.784688e-01	-7.895723e-03	1.368325e-01
-5.998231e-01	-3.297003e-03	8.009124e-01
-4.184215e-01	1.303965e-03	2.654073e+00
2.676117e+00	6.683938e-03	2.679941e+00
2.838894e+00	1.138321e-02	8.771316e-01
2.429615e+00	1.618128e-02	6.266639e-02
2.095072e+00	2.087661e-02	-1.878826e-01
1.858713e+00	2.560011e-02	-3.421742e-01
1.688051e+00	3.028625e-02	-4.042674e-01
1.537788e+00	3.490439e-02	-4.516626e-01
1.426766e+00	3.934308e-02	-4.686142e-01
1.330044e+00	4.333392e-02	-4.831942e-01
1.251280e+00	4.713651e-02	-4.824029e-01
1.181999e+00	5.047629e-02	-4.818379e-01
1.122859e+00	5.326913e-02	-4.736579e-01
1.069996e+00	5.552076e-02	-4.670265e-01
1.021420e+00	5.721962e-02	-4.560707e-01
9.763391e-01	5.840772e-02	-4.468429e-01
9.305783e-01	5.915594e-02	-4.334027e-01
8.866323e-01	5.955256e-02	-4.208251e-01
8.402363e-01	5.969783e-02	-4.037489e-01
7.916978e-01	5.969750e-02	-3.846373e-01
7.448476e-01	5.965411e-02	-3.634927e-01
8.207653e-01	-2.054884e-02	-1.445338e-01
8.399805e-01	-2.049755e-02	-1.494377e-01
8.530264e-01	-2.036729e-02	-1.555575e-01
8.602552e-01	-2.013275e-02	-1.611390e-01
8.585389e-01	-1.977591e-02	-1.673025e-01
8.556524e-01	-1.928083e-02	-1.726505e-01
8.441194e-01	-1.863867e-02	-1.784828e-01
8.316280e-01	-1.782294e-02	-1.831487e-01
8.109936e-01	-1.686596e-02	-1.891482e-01
7.880211e-01	-1.574897e-02	-1.938759e-01
7.544440e-01	-1.448338e-02	-2.009814e-01
7.107828e-01	-1.306901e-02	-2.042746e-01
6.509326e-01	-1.152070e-02	-2.092108e-01
5.765550e-01	-9.846440e-03	-2.056650e-01
4.718256e-01	-8.088873e-03	-1.957455e-01
3.173596e-01	-6.251193e-03	-1.518428e-01
8.582519e-02	-4.354579e-03	-5.131552e-02
-2.449240e-01	-2.433950e-03	1.877839e-01
-6.730033e-01	-4.287722e-04	8.986262e-01
-4.493294e-01	1.569239e-03	2.850123e+00
2.816648e+00	3.886476e-03	2.820673e+00
2.956173e+00	5.884186e-03	9.133675e-01
2.513957e+00	7.887396e-03	6.484178e-02
2.157827e+00	9.801725e-03	-1.935104e-01
1.908222e+00	1.166962e-02	-3.512884e-01
1.728715e+00	1.346573e-02	-4.140058e-01
1.571758e+00	1.515691e-02	-4.616397e-01
1.452776e+00	1.673174e-02	-4.771570e-01
1.351786e+00	1.815857e-02	-4.910930e-01
1.271455e+00	1.940640e-02	-4.901809e-01
1.198286e+00	2.046932e-02	-4.884773e-01
1.135797e+00	2.132430e-02	-4.791158e-01
1.080148e+00	2.198094e-02	-4.714575e-01
1.028836e+00	2.243060e-02	-4.593821e-01
9.812766e-01	2.273254e-02	-4.491027e-01
9.333063e-01	2.289646e-02	-4.346732e-01
8.874146e-01	2.295834e-02	-4.211964e-01
8.393602e-01	2.295625e-02	-4.033279e-01
7.894973e-01	2.292527e-02	-3.835683e-01
7.417412e-01	2.289887e-02	-3.619768e-01
8.184096e-01	-1.027692e-02	-1.441189e-01
8.369797e-01	-1.025613e-02	-1.489039e-01
8.493021e-01	-1.020157e-02	-1.548783e-01
8.557714e-01	-1.008103e-02	-1.602991e-01
8.532707e-01	-9.916918e-03	-1.662758e-01
8.495728e-01	-9.681856e-03	-1.714237e-01
8.368609e-01	-9.369409e-03	-1.769480e-01
8.233899e-01	-8.980977e-03	-1.813344e-01
8.020618e-01	-8.498342e-03	-1.870651e-01
7.778002e-01	-7.944167e-03	-1.913612e-01
7.425458e-01	-7.291031e-03	-1.978117e-01
6.996561e-01	-6.543903e-03	-2.010769e-01
6.380733e-01	-5.879423e-03	-2.050778e-01
5.589918e-01	-4.995350e-03	-1.994000e-01
4.521390e-01	-4.065388e-03	-1.875782e-01
2.942346e-01	-3.095972e-03	-1.407785e-01
5.825190e-02	-2.084462e-03	-3.482925e-02
-2.788820e-01	-1.058493e-03	2.138196e-01
-7.103636e-01	1.307400e-05	9.485114e-01
-4.650576e-01	1.079435e-03	2.949888e+00
2.887705e+00	2.311739e-03	2.891832e+00
3.014964e+00	3.367850e-03	9.315321e-01
2.555813e+00	4.418687e-03	6.592138e-02
2.188763e+00	5.413453e-03	-1.962846e-01
1.932273e+00	6.379413e-03	-3.557161e-01
1.747762e+00	7.289847e-03	-4.185675e-01
1.587209e+00	8.145440e-03	-4.661779e-01
1.468356e+00	8.914859e-03	-4.822743e-01
1.364890e+00	9.764313e-03	-4.958534e-01
1.280438e+00	1.036894e-02	-4.936443e-01
1.206016e+00	1.088214e-02	-4.916284e-01
1.142179e+00	1.131524e-02	-4.818079e-01
1.084826e+00	1.163824e-02	-4.734992e-01
1.032309e+00	1.188112e-02	-4.609331e-01
9.839293e-01	1.203784e-02	-4.503167e-01
9.349436e-01	1.212950e-02	-4.354357e-01
8.881812e-01	1.217248e-02	-4.215603e-01
8.393973e-01	1.216616e-02	-4.033457e-01
7.889541e-01	1.216043e-02	-3.833044e-01
7.408046e-01	1.215187e-02	-3.615197e-01
8.172769e-01	-5.731362e-03	-1.439195e-01
8.355740e-01	-5.721106e-03	-1.486538e-01
8.467934e-01	-5.705386e-03	-1.544208e-01
8.530568e-01	-5.632274e-03	-1.597906e-01
8.503864e-01	-5.530295e-03	-1.657138e-01
8.461324e-01	-5.388596e-03	-1.707295e-01
8.332849e-01	-5.201230e-03	-1.761919e-01
8.192169e-01	-4.986077e-03	-1.804154e-01
7.970036e-01	-4.702894e-03	-1.858853e-01
7.721693e-01	-4.385628e-03	-1.899759e-01
7.361438e-01	-3.966770e-03	-1.961062e-01
6.919302e-01	-3.538808e-03	-1.988565e-01
6.294955e-01	-3.059110e-03	-2.023209e-01
5.495954e-01	-2.661346e-03	-1.960482e-01
4.409182e-01	-2.096751e-03	-1.829230e-01
2.808869e-01	-1.517994e-03	-1.343922e-01
4.230656e-02	-9.146777e-04	-2.529541e-02
-2.985724e-01	-3.019286e-04	2.289163e-01
-7.320460e-01	3.385414e-04	9.774628e-01
-4.741796e-01	9.755042e-04	3.007750e+00
2.928804e+00	1.710144e-03	2.932989e+00
3.048822e+00	2.337335e-03	9.419929e-01
2.579803e+00	2.958377e-03	6.654013e-02
2.206384e+00	3.542141e-03	-1.978648e-01
1.945860e+00	4.104713e-03	-3.582173e-01
1.758951e+00	4.638979e-03	-4.212472e-01
1.596326e+00	5.114237e-03	-4.688558e-01
1.475277e+00	5.654059e-03	-4.845476e-01
1.370691e+00	6.038805e-03	-4.979611e-01
1.285560e+00	6.379314e-03	-4.956189e-01
1.210135e+00	6.628280e-03	-4.933074e-01
1.145464e+00	6.874253e-03	-4.831935e-01
1.087723e+00	7.052012e-03	-4.747636e-01
1.034631e+00	7.202310e-03	-4.619696e-01
9.853143e-01	7.290113e-03	-4.509506e-01
9.358884e-01	7.345662e-03	-4.358757e-01
8.883936e-01	7.377211e-03	-4.216611e-01
8.389901e-01	7.408273e-03	-4.031500e-01
7.888746e-01	7.399544e-03	-3.832657e-01
7.404299e-01	7.393923e-03	-3.613369e-01
8.166884e-01	-3.301049e-03	-1.438158e-01
8.355638e-01	-3.293990e-03	-1.486520e-01
8.459888e-01	-3.275542e-03	-1.542741e-01
8.513371e-01	-3.255594e-03	-1.594685e-01
8.483006e-01	-3.197424e-03	-1.653073e-01
8.438520e-01	-3.114346e-03	-1.702694e-01
8.306504e-01	-3.003437e-03	-1.756349e-01
8.162832e-01	-2.873168e-03	-1.797693e-01
7.939616e-01	-2.637071e-03	-1.851759e-01
7.681323e-01	-2.435459e-03	-1.889826e-01
7.314748e-01	-2.194369e-03	-1.948624e-01
6.875620e-01	-1.923801e-03	-1.976011e-01
6.258346e-01	-1.646416e-03	-2.011443e-01
5.447920e-01	-1.441643e-03	-1.943347e-01
4.335239e-01	-1.083123e-03	-1.798554e-01
2.724694e-01	-7.231937e-04	-1.303648e-01
3.227990e-02	-3.427827e-04	-1.930039e-02
-3.109334e-01	4.250085e-05	2.383936e-01
-7.456443e-01	4.448668e-04	9.956200e-01
-4.798881e-01	8.446743e-04	3.043960e+00
2.954426e+00	1.304822e-03	2.958648e+00
3.069825e+00	1.696456e-03	9.484824e-01
2.594573e+00	2.082430e-03	6.692109e-02
2.217139e+00	2.442598e-03	-1.988293e-01
1.954282e+00	2.787238e-03	-3.597677e-01
1.765016e+00	3.110060e-03	-4.226995e-01
1.602643e+00	3.406637e-03	-4.707110e-01
1.481118e+00	3.771770e-03	-4.864659e-01
1.374339e+00	4.020256e-03	-4.992864e-01
1.287873e+00	4.208685e-03	-4.965106e-01
1.212211e+00	4.373855e-03	-4.941537e-01
1.147598e+00	4.495892e-03	-4.840937e-01
1.089209e+00	4.573930e-03	-4.754124e-01
1.035770e+00	4.644242e-03	-4.624783e-01
9.862541e-01	4.693010e-03	-4.513807e-01
9.366011e-01	4.720842e-03	-4.362077e-01
8.896101e-01	4.732247e-03	-4.222384e-01
8.403074e-01	4.750587e-03	-4.037830e-01
7.882381e-01	4.747915e-03	-3.829565e-01
7.399439e-01	4.744722e-03	-3.610996e-01
8.160923e-01	-2.013823e-03	-1.437109e-01
8.340832e-01	-2.009233e-03	-1.483886e-01
8.455086e-01	-1.985346e-03	-1.541865e-01
8.509983e-01	-1.983127e-03	-1.594050e-01
8.475020e-01	-1.967213e-03	-1.651517e-01
8.427590e-01	-1.968043e-03	-1.700489e-01
8.295617e-01	-1.873982e-03	-1.754047e-01
8.139673e-01	-1.768127e-03	-1.792593e-01
7.911140e-01	-1.650784e-03	-1.845117e-01
7.663564e-01	-1.516569e-03	-1.885457e-01
7.294565e-01	-1.402229e-03	-1.943248e-01
6.846225e-01	-1.238479e-03	-1.967563e-01
6.227582e-01	-1.059205e-03	-2.001555e-01
5.413242e-01	-7.594582e-04	-1.930977e-01
4.292132e-01	-5.585673e-04	-1.780670e-01
2.672635e-01	-3.355062e-04	-1.278740e-01
2.595066e-02	-1.001859e-04	-1.551609e-02
-3.187182e-01	1.261115e-04	2.443621e-01
-7.542028e-01	3.791373e-04	1.007048e+00
-4.834796e-01	6.302435e-04	3.066741e+00
2.970525e+00	9.186550e-04	2.974770e+00
3.082982e+00	1.163602e-03	9.525473e-01
2.603793e+00	1.404037e-03	6.715889e-02
2.223823e+00	1.644715e-03	-1.994288e-01
1.959245e+00	1.859710e-03	-3.606813e-01
1.769549e+00	2.051454e-03	-4.237850e-01
1.606407e+00	2.264333e-03	-4.718165e-01
1.483741e+00	2.332143e-03	-4.873275e-01
1.376376e+00	2.486055e-03	-5.000261e-01
1.290022e+00	2.617657e-03	-4.973392e-01
1.213732e+00	2.759171e-03	-4.947739e-01
1.148025e+00	2.844440e-03	-4.842740e-01
1.089703e+00	2.911967e-03	-4.756279e-01
1.036355e+00	2.963224e-03	-4.627394e-01
9.865605e-01	3.096778e-03	-4.515210e-01
9.366447e-01	3.032918e-03	-4.362280e-01
8.890517e-01	3.023468e-03	-4.219734e-01
8.395886e-01	2.996227e-03	-4.034376e-01
7.886092e-01	2.998935e-03	-3.831368e-01
7.399411e-01	2.998040e-03	-3.610983e-01
8.159181e-01	-1.132484e-03	-1.436802e-01
8.337896e-01	-1.130047e-03	-1.483363e-01
8.452588e-01	-1.122246e-03	-1.541410e-01
8.508440e-01	-1.110174e-03	-1.593761e-01
8.480286e-01	-1.090832e-03	-1.652543e-01
8.421379e-01	-1.062089e-03	-1.699235e-01
8.275673e-01	-1.028503e-03	-1.749830e-01
8.131087e-01	-9.657904e-04	-1.790702e-01
7.905674e-01	-1.037829e-03	-1.843842e-01
7.648714e-01	-9.529084e-04	-1.881804e-01
7.278428e-01	-8.508455e-04	-1.938949e-01
6.829903e-01	-7.481471e-04	-1.962872e-01
6.192267e-01	-6.449359e-04	-1.990205e-01
5.372714e-01	-4.076188e-04	-1.916520e-01
4.266392e-01	-2.901975e-04	-1.769991e-01
2.640338e-01	-1.550382e-04	-1.263287e-01
2.238962e-02	-1.628741e-05	-1.338692e-02
-3.231258e-01	1.158417e-04	2.477415e-01
-7.595707e-01	2.657710e-04	1.014215e+00
-4.857239e-01	4.144785e-04	3.080976e+00
2.980545e+00	5.851958e-04	2.984805e+00
3.091139e+00	7.300260e-04	9.550678e-01
2.610129e+00	8.722484e-04	6.732233e-02
2.228368e+00	1.016710e-03	-1.998364e-01
1.962421e+00	1.145155e-03	-3.612660e-01
1.771981e+00	1.261735e-03	-4.243676e-01
1.606791e+00	1.365965e-03	-4.719294e-01
1.484233e+00	1.362799e-03	-4.874890e-01
1.378058e+00	1.460583e-03	-5.006374e-01
1.291322e+00	1.539021e-03	-4.978402e-01
1.215053e+00	1.613494e-03	-4.953122e-01
1.149550e+00	1.743934e-03	-4.849173e-01
1.090799e+00	1.785281e-03	-4.761062e-01
1.038365e+00	1.799416e-03	-4.636370e-01
9.875762e-01	1.815165e-03	-4.519858e-01
9.351473e-01	1.820324e-03	-4.355306e-01
8.888253e-01	1.821937e-03	-4.218659e-01
8.393874e-01	1.821090e-03	-4.033409e-01
7.883775e-01	1.817886e-03	-3.830242e-01
7.398068e-01	1.816575e-03	-3.610327e-01
8.156833e-01	-1.360994e-03	-1.436388e-01
8.334716e-01	-1.360828e-03	-1.482797e-01
8.448216e-01	-1.360963e-03	-1.540612e-01
8.501961e-01	-1.342077e-03	-1.592548e-01
8.465184e-01	-1.295442e-03	-1.649600e-01
8.416797e-01	-1.269381e-03	-1.698311e-01
8.280591e-01	-1.142723e-03	-1.750870e-01
8.141598e-01	-1.200217e-03	-1.793017e-01
7.909001e-01	-1.016264e-03	-1.844618e-01
7.639013e-01	-1.048952e-03	-1.879417e-01
7.267794e-01	-7.359448e-04	-1.936116e-01
6.818758e-01	-7.822497e-04	-1.959669e-01
6.180823e-01	-3.479071e-04	-1.986527e-01
5.359595e-01	-4.123183e-04	-1.911841e-01
4.251162e-01	7.658319e-05	-1.763673e-01
2.622167e-01	4.106327e-04	-1.254593e-01
2.014369e-02	6.031457e-04	-1.204406e-02
-3.258842e-01	6.246809e-04	2.498564e-01
-7.624530e-01	6.708549e-04	1.018064e+00
-4.869349e-01	7.301342e-04	3.088657e+00
2.985976e+00	8.084414e-04	2.990243e+00
3.095587e+00	8.838214e-04	9.564420e-01
2.613073e+00	9.717183e-04	6.739826e-02
2.230547e+00	1.076873e-03	-2.000317e-01
1.964152e+00	1.009377e-03	-3.615846e-01
1.773323e+00	7.916386e-04	-4.246890e-01
1.607860e+00	4.114904e-04	-4.722433e-01
1.485099e+00	5.759626e-04	-4.877734e-01
1.378669e+00	2.328616e-04	-5.008595e-01
1.291953e+00	4.019185e-04	-4.980833e-01
1.216293e+00	1.044189e-04	-4.958179e-01
1.150237e+00	2.353643e-04	-4.852070e-01
1.090453e+00	1.021873e-05	-4.759556e-01
1.036783e+00	6.001964e-05	-4.629304e-01
9.869058e-01	-1.865595e-04	-4.516790e-01
9.367764e-01	-7.911131e-05	-4.362894e-01
8.890762e-01	-9.833586e-05	-4.219850e-01
8.394790e-01	-1.049311e-04	-4.033849e-01
7.883700e-01	-1.001113e-04	-3.830206e-01
7.397403e-01	-9.916754e-05	-3.610003e-01
8.158903e-01	1.517185e-05	-1.436753e-01
8.337930e-01	1.492829e-05	-1.483369e-01
8.445157e-01	1.390516e-05	-1.540055e-01
8.491311e-01	1.540639e-06	-1.590553e-01
8.466061e-01	9.142348e-06	-1.649771e-01
8.393926e-01	7.009717e-06	-1.693696e-01
8.266410e-01	-1.195062e-05	-1.747871e-01
8.112053e-01	5.333705e-06	-1.786510e-01
7.885846e-01	8.431366e-05	-1.839218e-01
7.611699e-01	8.398499e-05	-1.872697e-01
7.243276e-01	7.418412e-05	-1.929584e-01
6.779422e-01	7.347954e-05	-1.948364e-01
6.138606e-01	1.839689e-05	-1.972958e-01
5.313531e-01	8.589234e-06	-1.895409e-01
4.130672e-01	2.785386e-07	-1.713685e-01
2.540902e-01	-2.605478e-07	-1.215711e-01
1.738911e-02	-2.437474e-06	-1.039708e-02
-3.247621e-01	5.505154e-06	2.489961e-01
-7.624075e-01	2.248072e-06	1.018003e+00
-4.871938e-01	-7.870140e-07	3.090300e+00
2.988155e+00	-4.218976e-06	2.992425e+00
3.098435e+00	-7.120828e-06	9.573220e-01
2.616460e+00	-9.875491e-06	6.748563e-02
2.228805e+00	-2.402560e-05	-1.998755e-01
1.956418e+00	-2.765627e-05	-3.601608e-01
1.761544e+00	-3.325505e-05	-4.218681e-01
1.603921e+00	-3.073281e-05	-4.710864e-01
1.481529e+00	-2.706815e-05	-4.866009e-01
1.375921e+00	1.823411e-05	-4.998612e-01
1.289665e+00	8.867563e-06	-4.972014e-01
1.212941e+00	-8.537396e-06	-4.944516e-01
1.148436e+00	-8.016002e-05	-4.844472e-01
1.088347e+00	-6.000531e-05	-4.750361e-01
1.035747e+00	-2.429820e-05	-4.624681e-01
9.849791e-01	-3.083434e-05	-4.507972e-01
9.370018e-01	-2.413140e-05	-4.363943e-01
8.881999e-01	-9.460515e-06	-4.215691e-01
8.392672e-01	-1.463504e-05	-4.032832e-01
7.887051e-01	-1.645427e-05	-3.831834e-01
7.399513e-01	-1.676897e-05	-3.611033e-01
8.157241e-01	1.472304e-03	-1.436460e-01
8.335492e-01	1.472511e-03	-1.482936e-01
8.453379e-01	1.473800e-03	-1.541554e-01
8.502512e-01	1.457829e-03	-1.592651e-01
8.464265e-01	1.419445e-03	-1.649421e-01
8.420622e-01	1.422499e-03	-1.699083e-01
8.280579e-01	1.269508e-03	-1.750867e-01
8.127654e-01	1.309019e-03	-1.789946e-01
7.898606e-01	1.115174e-03	-1.842194e-01
7.640348e-01	1.161224e-03	-1.879746e-01
7.269175e-01	7.638137e-04	-1.936484e-01
6.826055e-01	8.192019e-04	-1.961766e-01
6.190048e-01	3.846414e-04	-1.989492e-01
5.362302e-01	4.316941e-04	-1.912806e-01
4.252686e-01	-5.913431e-05	-1.764305e-01
2.622641e-01	-3.964975e-04	-1.254820e-01
2.004558e-02	-5.925293e-04	-1.198540e-02
-3.260507e-01	-6.039077e-04	2.499840e-01
-7.622781e-01	-6.551490e-04	1.017830e+00
-4.868648e-01	-7.410119e-04	3.088213e+00
2.985666e+00	-8.259516e-04	2.989932e+00
3.095340e+00	-8.871172e-04	9.563656e-01
2.612467e+00	-9.819375e-04	6.738264e-02
2.230136e+00	-1.109115e-03	-1.999949e-01
1.963962e+00	-1.047177e-03	-3.615498e-01
1.773279e+00	-8.367140e-04	-4.246785e-01
1.607955e+00	-4.652464e-04	-4.722711e-01
1.485797e+00	-6.225817e-04	-4.880027e-01
1.379124e+00	-2.909035e-04	-5.010246e-01
1.291614e+00	-4.821539e-04	-4.979528e-01
1.215182e+00	-1.158931e-04	-4.953651e-01
1.149559e+00	-2.783681e-04	-4.849208e-01
1.091191e+00	-6.575923e-05	-4.762777e-01
1.037231e+00	-1.294971e-04	-4.631304e-01
9.868945e-01	2.180924e-05	-4.516738e-01
9.371594e-01	-1.786777e-05	-4.364677e-01
8.893504e-01	5.757353e-06	-4.221152e-01
8.392467e-01	1.375938e-05	-4.032733e-01
7.882477e-01	9.077714e-06	-3.829612e-01
7.396921e-01	8.018502e-06	-3.609768e-01
8.158556e-01	1.267004e-03	-1.436692e-01
8.336987e-01	1.264794e-03	-1.483201e-01
8.451125e-01	1.263381e-03	-1.541143e-01
8.505501e-01	1.192401e-03	-1.593211e-01
8.472390e-01	1.151162e-03	-1.651005e-01
8.421531e-01	1.129649e-03	-1.699266e-01
8.282426e-01	1.116415e-03	-1.751258e-01
8.135009e-01	1.054018e-03	-1.791565e-01
7.905146e-01	9.828382e-04	-1.843719e-01
7.658101e-01	9.020510e-04	-1.884113e-01
7.288350e-01	8.101033e-04	-1.941592e-01
6.828695e-01	6.873302e-04	-1.962525e-01
6.194635e-01	6.274388e-04	-1.990966e-01
5.375695e-01	5.130313e-04	-1.917584e-01
4.267232e-01	3.827751e-04	-1.770340e-01
2.641595e-01	2.434600e-04	-1.263889e-01
2.228171e-02	9.869268e-05	-1.332240e-02
-3.233192e-01	-4.878364e-05	2.478898e-01
-7.588186e-01	-2.030409e-04	1.013211e+00
-4.853218e-01	-3.563935e-04	3.078426e+00
2.981104e+00	-5.328214e-04	2.985364e+00
3.091270e+00	-6.827983e-04	9.551081e-01
2.609115e+00	-8.303639e-04	6.729617e-02
2.227732e+00	-9.681482e-04	-1.997793e-01
1.962160e+00	-1.099416e-03	-3.612179e-01
1.771706e+00	-1.214119e-03	-4.243016e-01
1.606779e+00	-1.334008e-03	-4.719259e-01
1.484165e+00	-1.444073e-03	-4.874668e-01
1.377617e+00	-1.587130e-03	-5.004771e-01
1.291917e+00	-1.642601e-03	-4.980695e-01
1.215525e+00	-1.706152e-03	-4.955047e-01
1.148984e+00	-1.757769e-03	-4.846784e-01
1.090446e+00	-1.797757e-03	-4.759525e-01
1.036855e+00	-1.853569e-03	-4.629625e-01
9.869646e-01	-1.863919e-03	-4.517059e-01
9.365953e-01	-1.860164e-03	-4.362050e-01
8.889664e-01	-1.890153e-03	-4.219329e-01
8.394417e-01	-1.820769e-03	-4.033671e-01
7.883824e-01	-1.824340e-03	-3.830266e-01
7.397891e-01	-1.823515e-03	-3.610241e-01
8.160951e-01	2.108277e-03	-1.437114e-01
8.337207e-01	2.038588e-03	-1.483241e-01
8.481822e-01	2.040029e-03	-1.546741e-01
8.529408e-01	2.015350e-03	-1.597689e-01
8.476508e-01	1.976068e-03	-1.651807e-01
8.426514e-01	1.945957e-03	-1.700272e-01
8.292575e-01	1.866342e-03	-1.753404e-01
8.146661e-01	1.756367e-03	-1.794131e-01
7.919109e-01	1.643360e-03	-1.846976e-01
7.663026e-01	1.505411e-03	-1.885325e-01
7.297224e-01	1.431666e-03	-1.943956e-01
6.850590e-01	1.253622e-03	-1.968817e-01
6.214045e-01	1.048706e-03	-1.997204e-01
5.398594e-01	8.600154e-04	-1.925752e-01