# vtk DataFile Version 2.0
OUTPUT by 3D-VPM
ASCII
DATASET UNSTRUCTURED_GRID
POINTS 820 double
9.510565e-01	0.000000e+00	-3.090170e-01
9.442611e-01	0.000000e+00	-3.078203e-01
9.267277e-01	0.000000e+00	-3.047010e-01
8.963175e-01	0.000000e+00	-2.991555e-01
8.562911e-01	0.000000e+00	-2.916579e-01
8.054250e-01	0.000000e+00	-2.817457e-01
7.470317e-01	0.000000e+00	-2.699633e-01
6.809074e-01	0.000000e+00	-2.559818e-01
6.100852e-01	0.000000e+00	-2.403847e-01
5.354138e-01	0.000000e+00	-2.229691e-01
4.593635e-01	0.000000e+00	-2.042585e-01
3.837764e-01	0.000000e+00	-1.841224e-01
3.103069e-01	0.000000e+00	-1.630077e-01
2.415927e-01	0.000000e+00	-1.409228e-01
1.782654e-01	0.000000e+00	-1.183331e-01
1.234349e-01	0.000000e+00	-9.558566e-02
7.662509e-02	0.000000e+00	-7.318920e-02
4.106998e-02	0.000000e+00	-5.193053e-02
1.528206e-02	0.000000e+00	-3.215886e-02
2.347037e-03	0.000000e+00	-1.488740e-02
0.000000e+00	0.000000e+00	0.000000e+00
1.064939e-02	0.000000e+00	1.066461e-02
3.126595e-02	0.000000e+00	1.703450e-02
6.375031e-02	0.000000e+00	1.787236e-02
1.050105e-01	0.000000e+00	1.417221e-02
1.560448e-01	0.000000e+00	4.777214e-03
2.137742e-01	0.000000e+00	-9.048270e-03
2.782849e-01	0.000000e+00	-2.799567e-02
3.468570e-01	0.000000e+00	-5.051783e-02
4.187060e-01	0.000000e+00	-7.662000e-02
4.916930e-01	0.000000e+00	-1.047585e-01
5.642168e-01	0.000000e+00	-1.343226e-01
6.348639e-01	0.000000e+00	-1.641238e-01
7.013280e-01	0.000000e+00	-1.931337e-01
7.630418e-01	0.000000e+00	-2.206893e-01
8.172084e-01	0.000000e+00	-2.454799e-01
8.641863e-01	0.000000e+00	-2.673591e-01
9.009752e-01	0.000000e+00	-2.848204e-01
9.288372e-01	0.000000e+00	-2.982085e-01
9.448555e-01	0.000000e+00	-3.059908e-01
9.510565e-01	0.000000e+00	-3.090170e-01
9.510565e-01	1.052632e+00	-3.090170e-01
9.442611e-01	1.052632e+00	-3.078203e-01
9.267277e-01	1.052632e+00	-3.047010e-01
8.963175e-01	1.052632e+00	-2.991555e-01
8.562911e-01	1.052632e+00	-2.916579e-01
8.054250e-01	1.052632e+00	-2.817457e-01
7.470317e-01	1.052632e+00	-2.699633e-01
6.809074e-01	1.052632e+00	-2.559818e-01
6.100852e-01	1.052632e+00	-2.403847e-01
5.354138e-01	1.052632e+00	-2.229691e-01
4.593635e-01	1.052632e+00	-2.042585e-01
3.837764e-01	1.052632e+00	-1.841224e-01
3.103069e-01	1.052632e+00	-1.630077e-01
2.415927e-01	1.052632e+00	-1.409228e-01
1.782654e-01	1.052632e+00	-1.183331e-01
1.234349e-01	1.052632e+00	-9.558566e-02
7.662509e-02	1.052632e+00	-7.318920e-02
4.106998e-02	1.052632e+00	-5.193053e-02
1.528206e-02	1.052632e+00	-3.215886e-02
2.347037e-03	1.052632e+00	-1.488740e-02
0.000000e+00	1.052632e+00	0.000000e+00
1.064939e-02	1.052632e+00	1.066461e-02
3.126595e-02	1.052632e+00	1.703450e-02
6.375031e-02	1.052632e+00	1.787236e-02
1.050105e-01	1.052632e+00	1.417221e-02
1.560448e-01	1.052632e+00	4.777214e-03
2.137742e-01	1.052632e+00	-9.048270e-03
2.782849e-01	1.052632e+00	-2.799567e-02
3.468570e-01	1.052632e+00	-5.051783e-02
4.187060e-01	1.052632e+00	-7.662000e-02
4.916930e-01	1.052632e+00	-1.047585e-01
5.642168e-01	1.052632e+00	-1.343226e-01
6.348639e-01	1.052632e+00	-1.641238e-01
7.013280e-01	1.052632e+00	-1.931337e-01
7.630418e-01	1.052632e+00	-2.206893e-01
8.172084e-01	1.052632e+00	-2.454799e-01
8.641863e-01	1.052632e+00	-2.673591e-01
9.009752e-01	1.052632e+00	-2.848204e-01
9.288372e-01	1.052632e+00	-2.982085e-01
9.448555e-01	1.052632e+00	-3.059908e-01
9.510565e-01	1.052632e+00	-3.090170e-01
9.510565e-01	2.105263e+00	-3.090170e-01
9.442611e-01	2.105263e+00	-3.078203e-01
9.267277e-01	2.105263e+00	-3.047010e-01
8.963175e-01	2.105263e+00	-2.991555e-01
8.562911e-01	2.105263e+00	-2.916579e-01
8.054250e-01	2.105263e+00	-2.817457e-01
7.470317e-01	2.105263e+00	-2.699633e-01
6.809074e-01	2.105263e+00	-2.559818e-01
6.100852e-01	2.105263e+00	-2.403847e-01
5.354138e-01	2.105263e+00	-2.229691e-01
4.593635e-01	2.105263e+00	-2.042585e-01
3.837764e-01	2.105263e+00	-1.841224e-01
3.103069e-01	2.105263e+00	-1.630077e-01
2.415927e-01	2.105263e+00	-1.409228e-01
1.782654e-01	2.105263e+00	-1.183331e-01
1.234349e-01	2.105263e+00	-9.558566e-02
7.662509e-02	2.105263e+00	-7.318920e-02
4.106998e-02	2.105263e+00	-5.193053e-02
1.528206e-02	2.105263e+00	-3.215886e-02
2.347037e-03	2.105263e+00	-1.488740e-02
0.000000e+00	2.105263e+00	0.000000e+00
1.064939e-02	2.105263e+00	1.066461e-02
3.126595e-02	2.105263e+00	1.703450e-02
6.375031e-02	2.105263e+00	1.787236e-02
1.050105e-01	2.105263e+00	1.417221e-02
1.560448e-01	2.105263e+00	4.777214e-03
2.137742e-01	2.105263e+00	-9.048270e-03
2.782849e-01	2.105263e+00	-2.799567e-02
3.468570e-01	2.105263e+00	-5.051783e-02
4.187060e-01	2.105263e+00	-7.662000e-02
4.916930e-01	2.105263e+00	-1.047585e-01
5.642168e-01	2.105263e+00	-1.343226e-01
6.348639e-01	2.105263e+00	-1.641238e-01
7.013280e-01	2.105263e+00	-1.931337e-01
7.630418e-01	2.105263e+00	-2.206893e-01
8.172084e-01	2.105263e+00	-2.454799e-01
8.641863e-01	2.105263e+00	-2.673591e-01
9.009752e-01	2.105263e+00	-2.848204e-01
9.288372e-01	2.105263e+00	-2.982085e-01
9.448555e-01	2.105263e+00	-3.059908e-01
9.510565e-01	2.105263e+00	-3.090170e-01
9.510565e-01	3.157895e+00	-3.090170e-01
9.442611e-01	3.157895e+00	-3.078203e-01
9.267277e-01	3.157895e+00	-3.047010e-01
8.963175e-01	3.157895e+00	-2.991555e-01
8.562911e-01	3.157895e+00	-2.916579e-01
8.054250e-01	3.157895e+00	-2.817457e-01
7.470317e-01	3.157895e+00	-2.699633e-01
6.809074e-01	3.157895e+00	-2.559818e-01
6.100852e-01	3.157895e+00	-2.403847e-01
5.354138e-01	3.157895e+00	-2.229691e-01
4.593635e-01	3.157895e+00	-2.042585e-01
3.837764e-01	3.157895e+00	-1.841224e-01
3.103069e-01	3.157895e+00	-1.630077e-01
2.415927e-01	3.157895e+00	-1.409228e-01
1.782654e-01	3.157895e+00	-1.183331e-01
1.234349e-01	3.157895e+00	-9.558566e-02
7.662509e-02	3.157895e+00	-7.318920e-02
4.106998e-02	3.157895e+00	-5.193053e-02
1.528206e-02	3.157895e+00	-3.215886e-02
2.347037e-03	3.157895e+00	-1.488740e-02
0.000000e+00	3.157895e+00	0.000000e+00
1.064939e-02	3.157895e+00	1.066461e-02
3.126595e-02	3.157895e+00	1.703450e-02
6.375031e-02	3.157895e+00	1.787236e-02
1.050105e-01	3.157895e+00	1.417221e-02
1.560448e-01	3.157895e+00	4.777214e-03
2.137742e-01	3.157895e+00	-9.048270e-03
2.782849e-01	3.157895e+00	-2.799567e-02
3.468570e-01	3.157895e+00	-5.051783e-02
4.187060e-01	3.157895e+00	-7.662000e-02
4.916930e-01	3.157895e+00	-1.047585e-01
5.642168e-01	3.157895e+00	-1.343226e-01
6.348639e-01	3.157895e+00	-1.641238e-01
7.013280e-01	3.157895e+00	-1.931337e-01
7.630418e-01	3.157895e+00	-2.206893e-01
8.172084e-01	3.157895e+00	-2.454799e-01
8.641863e-01	3.157895e+00	-2.673591e-01
9.009752e-01	3.157895e+00	-2.848204e-01
9.288372e-01	3.157895e+00	-2.982085e-01
9.448555e-01	3.157895e+00	-3.059908e-01
9.510565e-01	3.157895e+00	-3.090170e-01
9.510565e-01	4.210526e+00	-3.090170e-01
9.442611e-01	4.210526e+00	-3.078203e-01
9.267277e-01	4.210526e+00	-3.047010e-01
8.963175e-01	4.210526e+00	-2.991555e-01
8.562911e-01	4.210526e+00	-2.916579e-01
8.054250e-01	4.210526e+00	-2.817457e-01
7.470317e-01	4.210526e+00	-2.699633e-01
6.809074e-01	4.210526e+00	-2.559818e-01
6.100852e-01	4.210526e+00	-2.403847e-01
5.354138e-01	4.210526e+00	-2.229691e-01
4.593635e-01	4.210526e+00	-2.042585e-01
3.837764e-01	4.210526e+00	-1.841224e-01
3.103069e-01	4.210526e+00	-1.630077e-01
2.415927e-01	4.210526e+00	-1.409228e-01
1.782654e-01	4.210526e+00	-1.183331e-01
1.234349e-01	4.210526e+00	-9.558566e-02
7.662509e-02	4.210526e+00	-7.318920e-02
4.106998e-02	4.210526e+00	-5.193053e-02
1.528206e-02	4.210526e+00	-3.215886e-02
2.347037e-03	4.210526e+00	-1.488740e-02
0.000000e+00	4.210526e+00	0.000000e+00
1.064939e-02	4.210526e+00	1.066461e-02
3.126595e-02	4.210526e+00	1.703450e-02
6.375031e-02	4.210526e+00	1.787236e-02
1.050105e-01	4.210526e+00	1.417221e-02
1.560448e-01	4.210526e+00	4.777214e-03
2.137742e-01	4.210526e+00	-9.048270e-03
2.782849e-01	4.210526e+00	-2.799567e-02
3.468570e-01	4.210526e+00	-5.051783e-02
4.187060e-01	4.210526e+00	-7.662000e-02
4.916930e-01	4.210526e+00	-1.047585e-01
5.642168e-01	4.210526e+00	-1.343226e-01
6.348639e-01	4.210526e+00	-1.641238e-01
7.013280e-01	4.210526e+00	-1.931337e-01
7.630418e-01	4.210526e+00	-2.206893e-01
8.172084e-01	4.210526e+00	-2.454799e-01
8.641863e-01	4.210526e+00	-2.673591e-01
9.009752e-01	4.210526e+00	-2.848204e-01
9.288372e-01	4.210526e+00	-2.982085e-01
9.448555e-01	4.210526e+00	-3.059908e-01
9.510565e-01	4.210526e+00	-3.090170e-01
9.510565e-01	5.263158e+00	-3.090170e-01
9.442611e-01	5.263158e+00	-3.078203e-01
9.267277e-01	5.263158e+00	-3.047010e-01
8.963175e-01	5.263158e+00	-2.991555e-01
8.562911e-01	5.263158e+00	-2.916579e-01
8.054250e-01	5.263158e+00	-2.817457e-01
7.470317e-01	5.263158e+00	-2.699633e-01
6.809074e-01	5.263158e+00	-2.559818e-01
6.100852e-01	5.263158e+00	-2.403847e-01
5.354138e-01	5.263158e+00	-2.229691e-01
4.593635e-01	5.263158e+00	-2.042585e-01
3.837764e-01	5.263158e+00	-1.841224e-01
3.103069e-01	5.263158e+00	-1.630077e-01
2.415927e-01	5.263158e+00	-1.409228e-01
1.782654e-01	5.263158e+00	-1.183331e-01
1.234349e-01	5.263158e+00	-9.558566e-02
7.662509e-02	5.263158e+00	-7.318920e-02
4.106998e-02	5.263158e+00	-5.193053e-02
1.528206e-02	5.263158e+00	-3.215886e-02
2.347037e-03	5.263158e+00	-1.488740e-02
0.000000e+00	5.263158e+00	0.000000e+00
1.064939e-02	5.263158e+00	1.066461e-02
3.126595e-02	5.263158e+00	1.703450e-02
6.375031e-02	5.263158e+00	1.787236e-02
1.050105e-01	5.263158e+00	1.417221e-02
1.560448e-01	5.263158e+00	4.777214e-03
2.137742e-01	5.263158e+00	-9.048270e-03
2.782849e-01	5.263158e+00	-2.799567e-02
3.468570e-01	5.263158e+00	-5.051783e-02
4.187060e-01	5.263158e+00	-7.662000e-02
4.916930e-01	5.263158e+00	-1.047585e-01
5.642168e-01	5.263158e+00	-1.343226e-01
6.348639e-01	5.263158e+00	-1.641238e-01
7.013280e-01	5.263158e+00	-1.931337e-01
7.630418e-01	5.263158e+00	-2.206893e-01
8.172084e-01	5.263158e+00	-2.454799e-01
8.641863e-01	5.263158e+00	-2.673591e-01
9.009752e-01	5.263158e+00	-2.848204e-01
9.288372e-01	5.263158e+00	-2.982085e-01
9.448555e-01	5.263158e+00	-3.059908e-01
9.510565e-01	5.263158e+00	-3.090170e-01
9.510565e-01	6.315789e+00	-3.090170e-01
9.442611e-01	6.315789e+00	-3.078203e-01
[...]
CELL_DATA 760
VECTORS V double
8.414244e-01	-6.903923e-02	-1.481718e-01
8.655453e-01	-6.886563e-02	-1.539859e-01
8.835601e-01	-6.841583e-02	-1.611256e-01
8.953258e-01	-6.762135e-02	-1.677083e-01
8.977905e-01	-6.646031e-02	-1.749514e-01
8.991026e-01	-6.491504e-02	-1.814177e-01
8.920644e-01	-6.297524e-02	-1.886204e-01
8.847535e-01	-6.061685e-02	-1.948484e-01
8.704186e-01	-5.781136e-02	-2.030079e-01
8.547781e-01	-5.452614e-02	-2.103000e-01
8.294725e-01	-5.073588e-02	-2.209687e-01
7.985497e-01	-4.642631e-02	-2.294983e-01
7.511995e-01	-4.163036e-02	-2.414367e-01
6.891739e-01	-3.639921e-02	-2.458377e-01
6.025219e-01	-3.077082e-02	-2.499673e-01
4.718430e-01	-2.486801e-02	-2.257564e-01
2.701298e-01	-1.869877e-02	-1.615126e-01
-1.744257e-02	-1.242920e-02	1.337327e-02
-4.218318e-01	-5.860246e-03	5.632500e-01
-3.427091e-01	7.211310e-04	2.173824e+00
2.327119e+00	8.435281e-03	2.330445e+00
2.541789e+00	1.520098e-02	7.853354e-01
2.210618e+00	2.214767e-02	5.701784e-02
1.925570e+00	2.899598e-02	-1.726819e-01
1.720218e+00	3.598638e-02	-3.166783e-01
1.570431e+00	4.295383e-02	-3.760988e-01
1.435575e+00	4.989265e-02	-4.216415e-01
1.336755e+00	5.662431e-02	-4.390505e-01
1.250655e+00	6.303067e-02	-4.543527e-01
1.181711e+00	6.891388e-02	-4.555824e-01
1.121880e+00	7.415819e-02	-4.573309e-01
1.071622e+00	7.862699e-02	-4.520445e-01
1.027481e+00	8.225774e-02	-4.484698e-01
9.872058e-01	8.504282e-02	-4.407940e-01
9.499838e-01	8.703357e-02	-4.347808e-01
9.115311e-01	8.832794e-02	-4.245317e-01
8.743635e-01	8.905423e-02	-4.150019e-01
8.341886e-01	8.936153e-02	-4.008429e-01
7.910598e-01	8.940547e-02	-3.843274e-01
7.483085e-01	8.935979e-02	-3.651817e-01
8.268572e-01	-4.835216e-02	-1.456065e-01
8.473449e-01	-4.822783e-02	-1.507479e-01
8.618072e-01	-4.790925e-02	-1.571587e-01
8.704931e-01	-4.734533e-02	-1.630567e-01
8.702441e-01	-4.651344e-02	-1.695834e-01
8.688596e-01	-4.539473e-02	-1.753153e-01
8.588603e-01	-4.397853e-02	-1.815996e-01
8.479903e-01	-4.224984e-02	-1.867521e-01
8.293188e-01	-4.019383e-02	-1.934222e-01
8.083304e-01	-3.779536e-02	-1.988726e-01
7.765428e-01	-3.502465e-02	-2.068684e-01
7.378818e-01	-3.193215e-02	-2.120627e-01
6.815760e-01	-2.849527e-02	-2.190596e-01
6.085223e-01	-2.476908e-02	-2.170682e-01
5.087202e-01	-2.077953e-02	-2.110519e-01
3.607161e-01	-1.660971e-02	-1.725870e-01
1.373042e-01	-1.226125e-02	-8.209518e-02
-1.815854e-01	-7.847855e-03	1.392221e-01
-6.032910e-01	-3.229286e-03	8.055430e-01
-4.198846e-01	1.391116e-03	2.663354e+00
2.682676e+00	6.792339e-03	2.686510e+00
2.844244e+00	1.150930e-02	8.787846e-01
2.433368e+00	1.632412e-02	6.276318e-02
2.097422e+00	2.103413e-02	-1.880933e-01
1.860553e+00	2.579813e-02	-3.425128e-01
1.689701e+00	3.049632e-02	-4.046625e-01
1.539107e+00	3.512289e-02	-4.520499e-01
1.427845e+00	3.955967e-02	-4.689685e-01
1.330748e+00	4.373481e-02	-4.834501e-01
1.251928e+00	4.754068e-02	-4.826527e-01
1.182689e+00	5.086692e-02	-4.821193e-01
1.123356e+00	5.368478e-02	-4.738676e-01
1.070407e+00	5.594450e-02	-4.672060e-01
1.021753e+00	5.765054e-02	-4.562197e-01
9.765996e-01	5.884414e-02	-4.469621e-01
9.307674e-01	5.959614e-02	-4.334908e-01
8.867542e-01	5.999495e-02	-4.208829e-01
8.402956e-01	6.014138e-02	-4.037774e-01
7.917022e-01	6.013775e-02	-3.846395e-01
7.448105e-01	6.009444e-02	-3.634746e-01
8.205593e-01	-2.042803e-02	-1.444975e-01
8.397167e-01	-2.037615e-02	-1.493908e-01
8.526984e-01	-2.024567e-02	-1.554977e-01
8.598556e-01	-2.000942e-02	-1.610642e-01
8.580634e-01	-1.965047e-02	-1.672098e-01
8.550953e-01	-1.915213e-02	-1.725380e-01
8.434703e-01	-1.850464e-02	-1.783456e-01
8.308649e-01	-1.770268e-02	-1.829806e-01
8.103037e-01	-1.671913e-02	-1.889873e-01
7.869106e-01	-1.559792e-02	-1.936027e-01
7.528398e-01	-1.432468e-02	-2.005540e-01
7.115412e-01	-1.291430e-02	-2.044926e-01
6.517159e-01	-1.135683e-02	-2.094625e-01
5.745541e-01	-9.688460e-03	-2.049513e-01
4.697609e-01	-7.919263e-03	-1.948889e-01
3.150010e-01	-6.081769e-03	-1.507143e-01
8.299175e-02	-4.172690e-03	-4.962139e-02
-2.484157e-01	-2.239947e-03	1.904611e-01
-6.768447e-01	-2.226764e-04	9.037554e-01
-4.509397e-01	1.787153e-03	2.860338e+00
2.823842e+00	4.118052e-03	2.827877e+00
2.962023e+00	6.127572e-03	9.151748e-01
2.518024e+00	8.142600e-03	6.494669e-02
2.160745e+00	1.006791e-02	-1.937721e-01
1.910398e+00	1.195984e-02	-3.516890e-01
1.730324e+00	1.376473e-02	-4.143913e-01
1.572818e+00	1.547807e-02	-4.619510e-01
1.456151e+00	1.705917e-02	-4.782657e-01
1.354675e+00	1.849051e-02	-4.921424e-01
1.271715e+00	1.975762e-02	-4.902814e-01
1.198811e+00	2.082395e-02	-4.886915e-01
1.136494e+00	2.168508e-02	-4.794095e-01
1.080561e+00	2.232280e-02	-4.716379e-01
1.029178e+00	2.279495e-02	-4.595347e-01
9.815407e-01	2.309743e-02	-4.492236e-01
9.334931e-01	2.326236e-02	-4.347602e-01
8.875274e-01	2.332499e-02	-4.212499e-01
8.394035e-01	2.332282e-02	-4.033487e-01
7.894772e-01	2.329237e-02	-3.835585e-01
7.416756e-01	2.326557e-02	-3.619447e-01
8.181509e-01	-1.025980e-02	-1.440734e-01
8.367334e-01	-1.023854e-02	-1.488600e-01
8.489581e-01	-1.018172e-02	-1.548156e-01
8.553413e-01	-1.007499e-02	-1.602185e-01
8.527593e-01	-9.908489e-03	-1.661762e-01
8.489507e-01	-9.658920e-03	-1.712982e-01
8.364560e-01	-9.344236e-03	-1.768624e-01
8.225552e-01	-8.944521e-03	-1.811505e-01
8.009205e-01	-8.468753e-03	-1.867989e-01
7.768945e-01	-7.902288e-03	-1.911384e-01
7.414668e-01	-7.260223e-03	-1.975243e-01
6.983306e-01	-6.519958e-03	-2.006959e-01
6.367655e-01	-5.711694e-03	-2.046575e-01
5.574443e-01	-4.832765e-03	-1.988480e-01
4.500238e-01	-3.895217e-03	-1.867007e-01
2.917213e-01	-2.916521e-03	-1.395760e-01
5.523754e-02	-1.900073e-03	-3.302693e-02
-2.826200e-01	-8.638141e-04	2.166856e-01
-7.144931e-01	2.189925e-04	9.540253e-01
-4.667961e-01	1.281734e-03	2.960916e+00
2.895513e+00	2.543344e-03	2.899651e+00
3.021354e+00	3.609578e-03	9.335063e-01
2.560299e+00	4.671244e-03	6.603707e-02
2.192019e+00	5.676907e-03	-1.965766e-01
1.934746e+00	6.658993e-03	-3.561712e-01
1.749957e+00	7.581504e-03	-4.190931e-01
1.588947e+00	8.448277e-03	-4.666884e-01
1.469584e+00	9.247591e-03	-4.826775e-01
1.365908e+00	9.958465e-03	-4.962234e-01
1.281371e+00	1.057952e-02	-4.940040e-01
1.206826e+00	1.111976e-02	-4.919585e-01
1.142520e+00	1.155260e-02	-4.819515e-01
1.085267e+00	1.189191e-02	-4.736919e-01
1.032989e+00	1.213102e-02	-4.612364e-01
9.842140e-01	1.229175e-02	-4.504470e-01
9.351658e-01	1.237312e-02	-4.355392e-01
8.883209e-01	1.241723e-02	-4.216265e-01
8.394669e-01	1.242740e-02	-4.033791e-01
7.889788e-01	1.242044e-02	-3.833163e-01
7.407054e-01	1.241167e-02	-3.614713e-01
8.169918e-01	-5.718700e-03	-1.438693e-01
8.351415e-01	-5.707534e-03	-1.485768e-01
8.469507e-01	-5.675863e-03	-1.544495e-01
8.528892e-01	-5.616003e-03	-1.597592e-01
8.495489e-01	-5.518790e-03	-1.655506e-01
8.453009e-01	-5.376759e-03	-1.705618e-01
8.324211e-01	-5.202886e-03	-1.760093e-01
8.183992e-01	-4.979922e-03	-1.802353e-01
7.962356e-01	-4.711082e-03	-1.857062e-01
7.710443e-01	-4.370868e-03	-1.896991e-01
7.347744e-01	-3.975162e-03	-1.957415e-01
6.909023e-01	-3.533804e-03	-1.985611e-01
6.282846e-01	-3.057082e-03	-2.019317e-01
5.475672e-01	-2.631468e-03	-1.953247e-01
4.385804e-01	-2.082865e-03	-1.819531e-01
2.782589e-01	-1.470020e-03	-1.331348e-01
3.916092e-02	-8.552943e-04	-2.341460e-02
-3.026128e-01	-2.304721e-04	2.320141e-01
-7.361816e-01	4.227153e-04	9.829849e-01
-4.760078e-01	1.072718e-03	3.019347e+00
2.937789e+00	1.822184e-03	2.941988e+00
3.055599e+00	2.462408e-03	9.440870e-01
2.584573e+00	3.096426e-03	6.666317e-02
2.209987e+00	3.692743e-03	-1.981880e-01
1.948596e+00	4.268035e-03	-3.587209e-01
1.760959e+00	4.797060e-03	-4.217279e-01
1.598023e+00	5.288560e-03	-4.693539e-01
1.477070e+00	5.838073e-03	-4.851363e-01
1.372027e+00	6.247935e-03	-4.984463e-01
1.286370e+00	6.591606e-03	-4.959312e-01
1.210997e+00	6.877318e-03	-4.936589e-01
1.146361e+00	7.110934e-03	-4.835719e-01
1.088311e+00	7.311787e-03	-4.750206e-01
1.034971e+00	7.456657e-03	-4.621213e-01
9.854934e-01	7.556283e-03	-4.510326e-01
9.358856e-01	7.605417e-03	-4.358745e-01
8.888633e-01	7.628835e-03	-4.218840e-01
8.396003e-01	7.635089e-03	-4.034432e-01
7.887717e-01	7.631079e-03	-3.832158e-01
7.403315e-01	7.626749e-03	-3.612888e-01
8.162770e-01	-3.423554e-03	-1.437434e-01
8.342068e-01	-3.428466e-03	-1.484105e-01
8.457399e-01	-3.404296e-03	-1.542287e-01
8.513270e-01	-3.360017e-03	-1.594666e-01
8.478688e-01	-3.288312e-03	-1.652232e-01
8.434724e-01	-3.224284e-03	-1.701928e-01
8.303169e-01	-3.095115e-03	-1.755644e-01
8.155511e-01	-2.939175e-03	-1.796081e-01
7.926947e-01	-2.743309e-03	-1.848804e-01
7.672322e-01	-2.499955e-03	-1.887612e-01
7.305263e-01	-2.250252e-03	-1.946098e-01
6.860931e-01	-2.014920e-03	-1.971789e-01
6.241946e-01	-1.691863e-03	-2.006172e-01
5.430365e-01	-1.465312e-03	-1.937085e-01
4.311665e-01	-1.092860e-03	-1.788773e-01
2.690799e-01	-7.075829e-04	-1.287431e-01
2.876521e-02	-3.044778e-04	-1.719893e-02
-3.153051e-01	9.767316e-05	2.417453e-01
-7.504830e-01	5.168084e-04	1.002081e+00
-4.819284e-01	9.480443e-04	3.056901e+00
2.963603e+00	1.411358e-03	2.967838e+00
3.077359e+00	1.821327e-03	9.508101e-01
2.599882e+00	2.225759e-03	6.705802e-02
2.221022e+00	2.604338e-03	-1.991776e-01
1.956873e+00	2.963313e-03	-3.602447e-01
1.767423e+00	3.299290e-03	-4.232761e-01
1.604769e+00	3.723046e-03	-4.713355e-01
1.482836e+00	3.983660e-03	-4.870300e-01
1.375721e+00	4.245828e-03	-4.997884e-01
1.289313e+00	4.477343e-03	-4.970656e-01
1.213329e+00	4.655968e-03	-4.946095e-01
1.148067e+00	4.775852e-03	-4.842915e-01
1.089898e+00	4.884741e-03	-4.757130e-01
1.036529e+00	4.973415e-03	-4.628172e-01
9.866445e-01	5.031602e-03	-4.515594e-01
9.365563e-01	5.102645e-03	-4.361868e-01
8.890472e-01	5.117862e-03	-4.219713e-01
8.395946e-01	5.122371e-03	-4.034405e-01
7.885950e-01	5.119147e-03	-3.831299e-01
7.400423e-01	5.129322e-03	-3.611477e-01
8.178161e-01	-2.050983e-03	-1.440144e-01
8.336744e-01	-2.046367e-03	-1.483158e-01
8.445501e-01	-2.034751e-03	-1.540117e-01
8.499256e-01	-2.013934e-03	-1.592041e-01
8.468358e-01	-1.981148e-03	-1.650219e-01
8.418985e-01	-2.022348e-03	-1.698752e-01
8.280169e-01	-1.897577e-03	-1.750780e-01
8.133857e-01	-1.790585e-03	-1.791312e-01
7.903046e-01	-1.689825e-03	-1.843229e-01
7.645727e-01	-1.547416e-03	-1.881069e-01
7.284318e-01	-1.390655e-03	-1.940518e-01
6.834770e-01	-1.220455e-03	-1.964271e-01
6.205986e-01	-1.021982e-03	-1.994614e-01
5.387591e-01	-7.436836e-04	-1.921827e-01
4.262473e-01	-5.078392e-04	-1.768365e-01
2.637450e-01	-2.999872e-04	-1.261906e-01
2.194484e-02	-5.612359e-05	-1.312098e-02
-3.236224e-01	1.665111e-04	2.481222e-01
-7.595861e-01	4.278191e-04	1.014236e+00
-4.857410e-01	6.867282e-04	3.081085e+00
2.980710e+00	9.836739e-04	2.984970e+00
3.091379e+00	1.234612e-03	9.551419e-01
2.609755e+00	1.506629e-03	6.731267e-02
2.228226e+00	1.735822e-03	-1.998237e-01
1.962532e+00	1.956157e-03	-3.612864e-01
1.774090e+00	2.169844e-03	-4.248726e-01
1.608277e+00	2.396411e-03	-4.723657e-01
1.484326e+00	2.469128e-03	-4.875194e-01
1.378459e+00	2.613535e-03	-5.007832e-01
1.291544e+00	2.750073e-03	-4.979259e-01
1.214737e+00	2.863599e-03	-4.951834e-01
1.149280e+00	2.955259e-03	-4.848033e-01
1.090952e+00	3.055559e-03	-4.761734e-01
1.037100e+00	3.123260e-03	-4.630719e-01
9.875450e-01	3.246525e-03	-4.519715e-01
9.375822e-01	3.240620e-03	-4.366646e-01
8.893442e-01	3.236785e-03	-4.221122e-01
8.396842e-01	3.235118e-03	-4.034836e-01
7.888914e-01	3.232285e-03	-3.832739e-01
7.418898e-01	3.229936e-03	-3.620493e-01
8.155022e-01	-9.795213e-04	-1.436070e-01
8.332622e-01	-9.647489e-04	-1.482425e-01
8.446045e-01	-9.613359e-04	-1.540217e-01
8.499595e-01	-9.783656e-04	-1.592105e-01
8.481753e-01	-9.684925e-04	-1.652829e-01
8.418438e-01	-9.287878e-04	-1.698642e-01
8.267662e-01	-8.998956e-04	-1.748136e-01
8.126038e-01	-8.836959e-04	-1.789590e-01
7.894072e-01	-9.026852e-04	-1.841136e-01
7.633048e-01	-8.338508e-04	-1.877950e-01
7.262525e-01	-7.414352e-04	-1.934713e-01
6.811826e-01	-5.963418e-04	-1.957677e-01
6.175999e-01	-5.256881e-04	-1.984976e-01
5.353556e-01	-2.999218e-04	-1.909686e-01
4.239074e-01	-2.181866e-04	-1.758658e-01
2.608060e-01	-9.800499e-05	-1.247843e-01
1.874027e-02	3.148185e-05	-1.120494e-02
-3.275668e-01	1.659168e-04	2.511464e-01
-7.648561e-01	3.075747e-04	1.021272e+00
-4.879416e-01	4.487578e-04	3.095043e+00
2.990421e+00	6.110521e-04	2.994695e+00
3.100556e+00	7.485679e-04	9.579773e-01
2.615864e+00	8.832120e-04	6.747025e-02
2.232147e+00	1.008202e-03	-2.001753e-01
1.965590e+00	1.126543e-03	-3.618494e-01
1.774990e+00	1.236553e-03	-4.250883e-01
1.609193e+00	1.252728e-03	-4.726348e-01
1.485881e+00	1.351980e-03	-4.880301e-01
1.379384e+00	1.446624e-03	-5.011191e-01
1.292468e+00	1.493840e-03	-4.982820e-01
1.215898e+00	1.548077e-03	-4.956569e-01
1.150512e+00	1.679198e-03	-4.853230e-01
1.092150e+00	1.685425e-03	-4.766961e-01
1.039231e+00	1.713461e-03	-4.640238e-01
9.886563e-01	1.713176e-03	-4.524801e-01
9.363720e-01	1.688878e-03	-4.361010e-01
8.889155e-01	1.685807e-03	-4.219087e-01
8.394644e-01	1.704906e-03	-4.033780e-01
7.883462e-01	1.701655e-03	-3.830090e-01
7.396827e-01	1.686806e-03	-3.609722e-01
8.153370e-01	-1.262489e-03	-1.435779e-01
8.329363e-01	-1.263188e-03	-1.481845e-01
8.451317e-01	-1.265507e-03	-1.541178e-01
8.500181e-01	-1.250496e-03	-1.592214e-01
8.457842e-01	-1.212892e-03	-1.648170e-01
8.407291e-01	-1.140344e-03	-1.696393e-01
8.273329e-01	-1.049491e-03	-1.749334e-01
8.134410e-01	-1.118958e-03	-1.791434e-01
7.896103e-01	-9.062608e-04	-1.841610e-01
7.624548e-01	-9.624761e-04	-1.875858e-01
7.253306e-01	-6.127867e-04	-1.932257e-01
6.805791e-01	-7.076805e-04	-1.955942e-01
6.165455e-01	-2.791953e-04	-1.981587e-01
5.340799e-01	-3.497316e-04	-1.905136e-01
4.229976e-01	1.028227e-04	-1.754883e-01
2.591546e-01	4.359090e-04	-1.239943e-01
1.631536e-02	6.249215e-04	-9.755075e-03
-3.306789e-01	6.664918e-04	2.535325e-01
-7.673960e-01	7.065088e-04	1.024664e+00
-4.890234e-01	7.598552e-04	3.101905e+00
2.995389e+00	8.322145e-04	2.999670e+00
3.103327e+00	9.037182e-04	9.588334e-01
2.618099e+00	9.625033e-04	6.752789e-02
2.234244e+00	1.067017e-03	-2.003633e-01
1.967109e+00	9.942388e-04	-3.621291e-01
1.776151e+00	8.039599e-04	-4.253662e-01
1.610087e+00	4.159487e-04	-4.728974e-01
1.487014e+00	5.695815e-04	-4.884025e-01
1.380298e+00	2.448056e-04	-5.014510e-01
1.292825e+00	3.669376e-04	-4.984199e-01
1.217052e+00	6.475595e-05	-4.961272e-01
1.151062e+00	2.084222e-04	-4.855548e-01
1.091400e+00	-5.711936e-05	-4.763687e-01
1.037518e+00	-7.006372e-06	-4.632585e-01
9.871775e-01	-2.293909e-04	-4.518033e-01
9.370379e-01	-1.751447e-04	-4.364111e-01
8.896452e-01	-1.919021e-04	-4.222551e-01
8.402960e-01	-1.990311e-04	-4.037775e-01
7.882248e-01	-1.941917e-04	-3.829501e-01
7.396157e-01	-1.929719e-04	-3.609395e-01
8.156195e-01	8.393788e-05	-1.436276e-01
8.334431e-01	6.601105e-05	-1.482747e-01
8.440734e-01	6.372414e-05	-1.539248e-01
8.485830e-01	8.392115e-05	-1.589526e-01
8.458971e-01	7.979429e-05	-1.648390e-01
8.390081e-01	7.637076e-05	-1.692920e-01
8.265568e-01	7.208777e-05	-1.747693e-01
8.104441e-01	6.974855e-05	-1.784833e-01
7.873676e-01	1.088962e-04	-1.836379e-01
7.594268e-01	9.363634e-05	-1.868408e-01
7.228862e-01	8.182022e-05	-1.925745e-01
6.768722e-01	4.528368e-05	-1.945289e-01
6.124004e-01	1.516887e-05	-1.968265e-01
5.300475e-01	1.606504e-05	-1.890752e-01
4.109804e-01	4.529026e-05	-1.705028e-01
2.509405e-01	1.046113e-05	-1.200641e-01
1.344479e-02	1.147584e-05	-8.038737e-03
-3.296673e-01	1.167020e-05	2.527569e-01
-7.673579e-01	1.049321e-05	1.024613e+00
-4.892815e-01	8.330829e-06	3.103542e+00
2.997561e+00	5.143665e-06	3.001845e+00
3.106174e+00	1.970658e-06	9.597130e-01
2.621381e+00	-1.749441e-06	6.761255e-02
2.232423e+00	-6.181924e-06	-2.002001e-01
1.960091e+00	2.403730e-05	-3.608371e-01
1.764851e+00	1.819028e-05	-4.226600e-01
1.606037e+00	-1.744319e-05	-4.717079e-01
1.483293e+00	3.317604e-05	-4.871803e-01
1.376857e+00	1.875581e-05	-5.002011e-01
1.290163e+00	5.177656e-06	-4.973932e-01
1.213887e+00	-5.226983e-06	-4.948369e-01
1.149058e+00	-5.141191e-05	-4.847095e-01
1.089147e+00	-5.025077e-05	-4.753854e-01
1.036948e+00	-5.309298e-05	-4.630044e-01
9.856773e-01	-5.334941e-05	-4.511168e-01
9.371895e-01	-5.423724e-05	-4.364817e-01
8.883429e-01	-5.354167e-05	-4.216370e-01
8.393254e-01	-7.607054e-05	-4.033112e-01
7.886837e-01	-7.485715e-05	-3.831730e-01
7.398695e-01	-5.718630e-05	-3.610634e-01
8.183455e-01	1.463070e-03	-1.441077e-01
8.337064e-01	1.463237e-03	-1.483215e-01
8.443946e-01	1.464421e-03	-1.539834e-01
8.496963e-01	1.448224e-03	-1.591612e-01
8.459346e-01	1.408961e-03	-1.648463e-01
8.408629e-01	1.421458e-03	-1.696663e-01
8.274333e-01	1.281942e-03	-1.749546e-01
8.128999e-01	1.343008e-03	-1.790242e-01
7.893024e-01	1.073866e-03	-1.840892e-01
7.628100e-01	1.126863e-03	-1.876732e-01
7.259609e-01	7.790984e-04	-1.933935e-01
6.814699e-01	7.932471e-04	-1.958503e-01
6.169656e-01	3.630368e-04	-1.982937e-01
5.336521e-01	4.541629e-04	-1.903610e-01
4.230216e-01	-4.035698e-05	-1.754983e-01
2.598368e-01	-3.807916e-04	-1.243206e-01
1.628748e-02	-5.780057e-04	-9.738403e-03
-3.306594e-01	-6.031787e-04	2.535175e-01
-7.673094e-01	-6.543371e-04	1.024548e+00
-4.889668e-01	-7.480659e-04	3.101546e+00
2.995073e+00	-8.348401e-04	2.999354e+00
3.103019e+00	-8.901728e-04	9.587382e-01
2.617832e+00	-9.875316e-04	6.752100e-02
2.234983e+00	-1.102917e-03	-2.004296e-01
1.967535e+00	-1.042327e-03	-3.622075e-01
1.775406e+00	-8.318916e-04	-4.251879e-01
1.610378e+00	-4.880390e-04	-4.729827e-01
1.487488e+00	-6.571418e-04	-4.885581e-01
1.379933e+00	-3.518975e-04	-5.013184e-01
1.292523e+00	-4.153093e-04	-4.983032e-01
1.216346e+00	-1.344683e-04	-4.958394e-01
1.150476e+00	-2.336381e-04	-4.853078e-01
1.091379e+00	-2.196962e-05	-4.763597e-01
1.037471e+00	-1.235070e-04	-4.632379e-01
9.871599e-01	-1.465237e-05	-4.517953e-01
9.370316e-01	-4.862467e-05	-4.364082e-01
8.892149e-01	-2.321885e-05	-4.220508e-01
8.395098e-01	-1.481886e-05	-4.033998e-01
7.888540e-01	-1.936888e-05	-3.832557e-01
7.423219e-01	-2.038537e-05	-3.622601e-01
8.155914e-01	1.224878e-03	-1.436227e-01
8.333573e-01	1.239689e-03	-1.482594e-01
8.446819e-01	1.232681e-03	-1.540358e-01
8.500316e-01	1.227539e-03	-1.592240e-01
8.463388e-01	1.117212e-03	-1.649250e-01
8.413693e-01	1.094530e-03	-1.697685e-01
8.276137e-01	1.056053e-03	-1.749928e-01
8.135460e-01	9.997378e-04	-1.791665e-01
7.901975e-01	9.707287e-04	-1.842980e-01
7.633215e-01	8.884375e-04	-1.877991e-01
7.272766e-01	7.968478e-04	-1.937440e-01
6.823038e-01	7.239354e-04	-1.960899e-01
6.173475e-01	6.411589e-04	-1.984165e-01
5.356287e-01	4.899629e-04	-1.910660e-01
4.247473e-01	3.533905e-04	-1.762142e-01
2.610914e-01	2.444457e-04	-1.249209e-01
1.862620e-02	9.400605e-05	-1.113674e-02
-3.278152e-01	-5.832727e-05	2.513369e-01
-7.635991e-01	-2.162538e-04	1.019594e+00
-4.872917e-01	-3.723561e-04	3.090921e+00
2.990775e+00	-5.513948e-04	2.995049e+00
3.099078e+00	-7.032825e-04	9.575205e-01
2.614409e+00	-8.523078e-04	6.743273e-02
2.231572e+00	-9.906283e-04	-2.001237e-01
1.965808e+00	-1.156913e-03	-3.618895e-01
1.774508e+00	-1.276611e-03	-4.249727e-01
1.608310e+00	-1.387163e-03	-4.723755e-01
1.485393e+00	-1.519770e-03	-4.878700e-01
1.379916e+00	-1.606577e-03	-5.013123e-01
1.292934e+00	-1.673517e-03	-4.984616e-01
1.216184e+00	-1.729738e-03	-4.957734e-01
1.150417e+00	-1.810503e-03	-4.852826e-01
1.090746e+00	-1.838808e-03	-4.760832e-01
1.036907e+00	-1.852712e-03	-4.629860e-01
9.870248e-01	-1.870017e-03	-4.517334e-01
9.369287e-01	-1.887672e-03	-4.363602e-01
8.891631e-01	-1.804054e-03	-4.220262e-01
8.395176e-01	-1.814007e-03	-4.034035e-01
7.883705e-01	-1.813589e-03	-3.830208e-01
7.397138e-01	-1.830105e-03	-3.609874e-01
8.158598e-01	1.731784e-03	-1.436699e-01
8.336723e-01	1.720839e-03	-1.483155e-01
8.447864e-01	1.597078e-03	-1.540548e-01
8.528929e-01	1.689749e-03	-1.597599e-01
8.484445e-01	1.717082e-03	-1.653354e-01
8.419344e-01	1.726296e-03	-1.698825e-01
8.289043e-01	1.684790e-03	-1.752657e-01
8.140993e-01	1.621823e-03	-1.792883e-01
7.908160e-01	1.550835e-03	-1.844422e-01
7.650927e-01	1.429100e-03	-1.882348e-01
7.281131e-01	1.280878e-03	-1.939669e-01
6.835441e-01	1.194343e-03	-1.964464e-01
6.201889e-01	9.865063e-04	-1.993297e-01
5.379446e-01	7.890975e-04	-1.918922e-01