# vtk DataFile Version 2.0
OUTPUT by 3D-VPM
ASCII
DATASET UNSTRUCTURED_GRID
POINTS 820 double
9.510565e-01	0.000000e+00	-3.090170e-01
9.442611e-01	0.000000e+00	-3.078203e-01
9.267277e-01	0.000000e+00	-3.047010e-01
8.963175e-01	0.000000e+00	-2.991555e-01
8.562911e-01	0.000000e+00	-2.916579e-01
8.054250e-01	0.000000e+00	-2.817457e-01
7.470317e-01	0.000000e+00	-2.699633e-01
6.809074e-01	0.000000e+00	-2.559818e-01
6.100852e-01	0.000000e+00	-2.403847e-01
5.354138e-01	0.000000e+00	-2.229691e-01
4.593635e-01	0.000000e+00	-2.042585e-01
3.837764e-01	0.000000e+00	-1.841224e-01
3.103069e-01	0.000000e+00	-1.630077e-01
2.415927e-01	0.000000e+00	-1.409228e-01
1.782654e-01	0.000000e+00	-1.183331e-01
1.234349e-01	0.000000e+00	-9.558566e-02
7.662509e-02	0.000000e+00	-7.318920e-02
4.106998e-02	0.000000e+00	-5.193053e-02
1.528206e-02	0.000000e+00	-3.215886e-02
2.347037e-03	0.000000e+00	-1.488740e-02
0.000000e+00	0.000000e+00	0.000000e+00
1.064939e-02	0.000000e+00	1.066461e-02
3.126595e-02	0.000000e+00	1.703450e-02
6.375031e-02	0.000000e+00	1.787236e-02
1.050105e-01	0.000000e+00	1.417221e-02
1.560448e-01	0.000000e+00	4.777214e-03
2.137742e-01	0.000000e+00	-9.048270e-03
2.782849e-01	0.000000e+00	-2.799567e-02
3.468570e-01	0.000000e+00	-5.051783e-02
4.187060e-01	0.000000e+00	-7.662000e-02
4.916930e-01	0.000000e+00	-1.047585e-01
5.642168e-01	0.000000e+00	-1.343226e-01
6.348639e-01	0.000000e+00	-1.641238e-01
7.013280e-01	0.000000e+00	-1.931337e-01
7.630418e-01	0.000000e+00	-2.206893e-01
8.172084e-01	0.000000e+00	-2.454799e-01
8.641863e-01	0.000000e+00	-2.673591e-01
9.009752e-01	0.000000e+00	-2.848204e-01
9.288372e-01	0.000000e+00	-2.982085e-01
9.448555e-01	0.000000e+00	-3.059908e-01
9.510565e-01	0.000000e+00	-3.090170e-01
9.510565e-01	1.052632e+00	-3.090170e-01
9.442611e-01	1.052632e+00	-3.078203e-01
9.267277e-01	1.052632e+00	-3.047010e-01
8.963175e-01	1.052632e+00	-2.991555e-01
8.562911e-01	1.052632e+00	-2.916579e-01
8.054250e-01	1.052632e+00	-2.817457e-01
7.470317e-01	1.052632e+00	-2.699633e-01
6.809074e-01	1.052632e+00	-2.559818e-01
6.100852e-01	1.052632e+00	-2.403847e-01
5.354138e-01	1.052632e+00	-2.229691e-01
4.593635e-01	1.052632e+00	-2.042585e-01
3.837764e-01	1.052632e+00	-1.841224e-01
3.103069e-01	1.052632e+00	-1.630077e-01
2.415927e-01	1.052632e+00	-1.409228e-01
1.782654e-01	1.052632e+00	-1.183331e-01
1.234349e-01	1.052632e+00	-9.558566e-02
7.662509e-02	1.052632e+00	-7.318920e-02
4.106998e-02	1.052632e+00	-5.193053e-02
1.528206e-02	1.052632e+00	-3.215886e-02
2.347037e-03	1.052632e+00	-1.488740e-02
0.000000e+00	1.052632e+00	0.000000e+00
1.064939e-02	1.052632e+00	1.066461e-02
3.126595e-02	1.052632e+00	1.703450e-02
6.375031e-02	1.052632e+00	1.787236e-02
1.050105e-01	1.052632e+00	1.417221e-02
1.560448e-01	1.052632e+00	4.777214e-03
2.137742e-01	1.052632e+00	-9.048270e-03
2.782849e-01	1.052632e+00	-2.799567e-02
3.468570e-01	1.052632e+00	-5.051783e-02
4.187060e-01	1.052632e+00	-7.662000e-02
4.916930e-01	1.052632e+00	-1.047585e-01
5.642168e-01	1.052632e+00	-1.343226e-01
6.348639e-01	1.052632e+00	-1.641238e-01
7.013280e-01	1.052632e+00	-1.931337e-01
7.630418e-01	1.052632e+00	-2.206893e-01
8.172084e-01	1.052632e+00	-2.454799e-01
8.641863e-01	1.052632e+00	-2.673591e-01
9.009752e-01	1.052632e+00	-2.848204e-01
9.288372e-01	1.052632e+00	-2.982085e-01
9.448555e-01	1.052632e+00	-3.059908e-01
9.510565e-01	1.052632e+00	-3.090170e-01
9.510565e-01	2.105263e+00	-3.090170e-01
9.442611e-01	2.105263e+00	-3.078203e-01
9.267277e-01	2.105263e+00	-3.047010e-01
8.963175e-01	2.105263e+00	-2.991555e-01
8.562911e-01	2.105263e+00	-2.916579e-01
8.054250e-01	2.105263e+00	-2.817457e-01
7.470317e-01	2.105263e+00	-2.699633e-01
6.809074e-01	2.105263e+00	-2.559818e-01
6.100852e-01	2.105263e+00	-2.403847e-01
5.354138e-01	2.105263e+00	-2.229691e-01
4.593635e-01	2.105263e+00	-2.042585e-01
3.837764e-01	2.105263e+00	-1.841224e-01
3.103069e-01	2.105263e+00	-1.630077e-01
2.415927e-01	2.105263e+00	-1.409228e-01
1.782654e-01	2.105263e+00	-1.183331e-01
1.234349e-01	2.105263e+00	-9.558566e-02
7.662509e-02	2.105263e+00	-7.318920e-02
4.106998e-02	2.105263e+00	-5.193053e-02
1.528206e-02	2.105263e+00	-3.215886e-02
2.347037e-03	2.105263e+00	-1.488740e-02
0.000000e+00	2.105263e+00	0.000000e+00
1.064939e-02	2.105263e+00	1.066461e-02
3.126595e-02	2.105263e+00	1.703450e-02
6.375031e-02	2.105263e+00	1.787236e-02
1.050105e-01	2.105263e+00	1.417221e-02
1.560448e-01	2.105263e+00	4.777214e-03
2.137742e-01	2.105263e+00	-9.048270e-03
2.782849e-01	2.105263e+00	-2.799567e-02
3.468570e-01	2.105263e+00	-5.051783e-02
4.187060e-01	2.105263e+00	-7.662000e-02
4.916930e-01	2.105263e+00	-1.047585e-01
5.642168e-01	2.105263e+00	-1.343226e-01
6.348639e-01	2.105263e+00	-1.641238e-01
7.013280e-01	2.105263e+00	-1.931337e-01
7.630418e-01	2.105263e+00	-2.206893e-01
8.172084e-01	2.105263e+00	-2.454799e-01
8.641863e-01	2.105263e+00	-2.673591e-01
9.009752e-01	2.105263e+00	-2.848204e-01
9.288372e-01	2.105263e+00	-2.982085e-01
9.448555e-01	2.105263e+00	-3.059908e-01
9.510565e-01	2.105263e+00	-3.090170e-01
9.510565e-01	3.157895e+00	-3.090170e-01
9.442611e-01	3.157895e+00	-3.078203e-01
9.267277e-01	3.157895e+00	-3.047010e-01
8.963175e-01	3.157895e+00	-2.991555e-01
8.562911e-01	3.157895e+00	-2.916579e-01
8.054250e-01	3.157895e+00	-2.817457e-01
7.470317e-01	3.157895e+00	-2.699633e-01
6.809074e-01	3.157895e+00	-2.559818e-01
6.100852e-01	3.157895e+00	-2.403847e-01
5.354138e-01	3.157895e+00	-2.229691e-01
4.593635e-01	3.157895e+00	-2.042585e-01
3.837764e-01	3.157895e+00	-1.841224e-01
3.103069e-01	3.157895e+00	-1.630077e-01
2.415927e-01	3.157895e+00	-1.409228e-01
1.782654e-01	3.157895e+00	-1.183331e-01
1.234349e-01	3.157895e+00	-9.558566e-02
7.662509e-02	3.157895e+00	-7.318920e-02
4.106998e-02	3.157895e+00	-5.193053e-02
1.528206e-02	3.157895e+00	-3.215886e-02
2.347037e-03	3.157895e+00	-1.488740e-02
0.000000e+00	3.157895e+00	0.000000e+00
1.064939e-02	3.157895e+00	1.066461e-02
3.126595e-02	3.157895e+00	1.703450e-02
6.375031e-02	3.157895e+00	1.787236e-02
1.050105e-01	3.157895e+00	1.417221e-02
1.560448e-01	3.157895e+00	4.777214e-03
2.137742e-01	3.157895e+00	-9.048270e-03
2.782849e-01	3.157895e+00	-2.799567e-02
3.468570e-01	3.157895e+00	-5.051783e-02
4.187060e-01	3.157895e+00	-7.662000e-02
4.916930e-01	3.157895e+00	-1.047585e-01
5.642168e-01	3.157895e+00	-1.343226e-01
6.348639e-01	3.157895e+00	-1.641238e-01
7.013280e-01	3.157895e+00	-1.931337e-01
7.630418e-01	3.157895e+00	-2.206893e-01
8.172084e-01	3.157895e+00	-2.454799e-01
8.641863e-01	3.157895e+00	-2.673591e-01
9.009752e-01	3.157895e+00	-2.848204e-01
9.288372e-01	3.157895e+00	-2.982085e-01
9.448555e-01	3.157895e+00	-3.059908e-01
9.510565e-01	3.157895e+00	-3.090170e-01
9.510565e-01	4.210526e+00	-3.090170e-01
9.442611e-01	4.210526e+00	-3.078203e-01
9.267277e-01	4.210526e+00	-3.047010e-01
8.963175e-01	4.210526e+00	-2.991555e-01
8.562911e-01	4.210526e+00	-2.916579e-01
8.054250e-01	4.210526e+00	-2.817457e-01
7.470317e-01	4.210526e+00	-2.699633e-01
6.809074e-01	4.210526e+00	-2.559818e-01
6.100852e-01	4.210526e+00	-2.403847e-01
5.354138e-01	4.210526e+00	-2.229691e-01
4.593635e-01	4.210526e+00	-2.042585e-01
3.837764e-01	4.210526e+00	-1.841224e-01
3.103069e-01	4.210526e+00	-1.630077e-01
2.415927e-01	4.210526e+00	-1.409228e-01
1.782654e-01	4.210526e+00	-1.183331e-01
1.234349e-01	4.210526e+00	-9.558566e-02
7.662509e-02	4.210526e+00	-7.318920e-02
4.106998e-02	4.210526e+00	-5.193053e-02
1.528206e-02	4.210526e+00	-3.215886e-02
2.347037e-03	4.210526e+00	-1.488740e-02
0.000000e+00	4.210526e+00	0.000000e+00
1.064939e-02	4.210526e+00	1.066461e-02
3.126595e-02	4.210526e+00	1.703450e-02
6.375031e-02	4.210526e+00	1.787236e-02
1.050105e-01	4.210526e+00	1.417221e-02
1.560448e-01	4.210526e+00	4.777214e-03
2.137742e-01	4.210526e+00	-9.048270e-03
2.782849e-01	4.210526e+00	-2.799567e-02
3.468570e-01	4.210526e+00	-5.051783e-02
4.187060e-01	4.210526e+00	-7.662000e-02
4.916930e-01	4.210526e+00	-1.047585e-01
5.642168e-01	4.210526e+00	-1.343226e-01
6.348639e-01	4.210526e+00	-1.641238e-01
7.013280e-01	4.210526e+00	-1.931337e-01
7.630418e-01	4.210526e+00	-2.206893e-01
8.172084e-01	4.210526e+00	-2.454799e-01
8.641863e-01	4.210526e+00	-2.673591e-01
9.009752e-01	4.210526e+00	-2.848204e-01
9.288372e-01	4.210526e+00	-2.982085e-01
9.448555e-01	4.210526e+00	-3.059908e-01
9.510565e-01	4.210526e+00	-3.090170e-01
9.510565e-01	5.263158e+00	-3.090170e-01
9.442611e-01	5.263158e+00	-3.078203e-01
9.267277e-01	5.263158e+00	-3.047010e-01
8.963175e-01	5.263158e+00	-2.991555e-01
8.562911e-01	5.263158e+00	-2.916579e-01
8.054250e-01	5.263158e+00	-2.817457e-01
7.470317e-01	5.263158e+00	-2.699633e-01
6.809074e-01	5.263158e+00	-2.559818e-01
6.100852e-01	5.263158e+00	-2.403847e-01
5.354138e-01	5.263158e+00	-2.229691e-01
4.593635e-01	5.263158e+00	-2.042585e-01
3.837764e-01	5.263158e+00	-1.841224e-01
3.103069e-01	5.263158e+00	-1.630077e-01
2.415927e-01	5.263158e+00	-1.409228e-01
1.782654e-01	5.263158e+00	-1.183331e-01
1.234349e-01	5.263158e+00	-9.558566e-02
7.662509e-02	5.263158e+00	-7.318920e-02
4.106998e-02	5.263158e+00	-5.193053e-02
1.528206e-02	5.263158e+00	-3.215886e-02
2.347037e-03	5.263158e+00	-1.488740e-02
0.000000e+00	5.263158e+00	0.000000e+00
1.064939e-02	5.263158e+00	1.066461e-02
3.126595e-02	5.263158e+00	1.703450e-02
6.375031e-02	5.263158e+00	1.787236e-02
1.050105e-01	5.263158e+00	1.417221e-02
1.560448e-01	5.263158e+00	4.777214e-03
2.137742e-01	5.263158e+00	-9.048270e-03
2.782849e-01	5.263158e+00	-2.799567e-02
3.468570e-01	5.263158e+00	-5.051783e-02
4.187060e-01	5.263158e+00	-7.662000e-02
4.916930e-01	5.263158e+00	-1.047585e-01
5.642168e-01	5.263158e+00	-1.343226e-01
6.348639e-01	5.263158e+00	-1.641238e-01
7.013280e-01	5.263158e+00	-1.931337e-01
7.630418e-01	5.263158e+00	-2.206893e-01
8.172084e-01	5.263158e+00	-2.454799e-01
8.641863e-01	5.263158e+00	-2.673591e-01
9.009752e-01	5.263158e+00	-2.848204e-01
9.288372e-01	5.263158e+00	-2.982085e-01
9.448555e-01	5.263158e+00	-3.059908e-01
9.510565e-01	5.263158e+00	-3.090170e-01
9.510565e-01	6.315789e+00	-3.090170e-01
9.442611e-01	6.315789e+00	-3.078203e-01
[...]
CELL_DATA 760
VECTORS V double
8.415258e-01	-6.885008e-02	-1.481896e-01
8.656767e-01	-6.867718e-02	-1.540092e-01
8.837332e-01	-6.822935e-02	-1.611571e-01
8.955446e-01	-6.743825e-02	-1.677492e-01
8.980603e-01	-6.628205e-02	-1.750040e-01
8.994269e-01	-6.474284e-02	-1.814831e-01
8.924439e-01	-6.281020e-02	-1.887006e-01
8.851905e-01	-6.046031e-02	-1.949447e-01
8.709157e-01	-5.766469e-02	-2.031239e-01
8.553136e-01	-5.439103e-02	-2.104318e-01
8.301757e-01	-5.060394e-02	-2.211560e-01
7.993808e-01	-4.632234e-02	-2.297371e-01
7.520552e-01	-4.154321e-02	-2.417118e-01
6.901714e-01	-3.633019e-02	-2.461935e-01
6.036919e-01	-3.072120e-02	-2.504527e-01
4.732570e-01	-2.483899e-02	-2.264330e-01
2.718373e-01	-1.869062e-02	-1.625336e-01
-1.531991e-02	-1.244289e-02	1.174582e-02
-4.194864e-01	-5.895905e-03	5.601183e-01
-3.417272e-01	6.623673e-04	2.167597e+00
2.322701e+00	8.350999e-03	2.326021e+00
2.538191e+00	1.509476e-02	7.842236e-01
2.208118e+00	2.201977e-02	5.695338e-02
1.923780e+00	2.884666e-02	-1.725214e-01
1.718872e+00	3.581573e-02	-3.164306e-01
1.569373e+00	4.276218e-02	-3.758454e-01
1.434738e+00	4.968007e-02	-4.213958e-01
1.336089e+00	5.639089e-02	-4.388319e-01
1.250188e+00	6.277634e-02	-4.541832e-01
1.181353e+00	6.864201e-02	-4.554442e-01
1.121551e+00	7.386738e-02	-4.571966e-01
1.071364e+00	7.831836e-02	-4.519356e-01
1.027276e+00	8.193303e-02	-4.483801e-01
9.870458e-01	8.470423e-02	-4.407225e-01
9.498650e-01	8.668363e-02	-4.347265e-01
9.114508e-01	8.796960e-02	-4.244943e-01
8.743192e-01	8.869036e-02	-4.149809e-01
8.341761e-01	8.899466e-02	-4.008368e-01
7.910733e-01	8.903760e-02	-3.843339e-01
7.483434e-01	8.899183e-02	-3.651987e-01
8.270173e-01	-4.843405e-02	-1.456347e-01
8.475553e-01	-4.831052e-02	-1.507853e-01
8.620737e-01	-4.799607e-02	-1.572073e-01
8.708161e-01	-4.743232e-02	-1.631172e-01
8.706246e-01	-4.660295e-02	-1.696576e-01
8.692983e-01	-4.548840e-02	-1.754039e-01
8.593607e-01	-4.407816e-02	-1.817055e-01
8.485580e-01	-4.235836e-02	-1.868771e-01
8.299605e-01	-4.031897e-02	-1.935719e-01
8.089623e-01	-3.794372e-02	-1.990280e-01
7.774484e-01	-3.492518e-02	-2.071097e-01
7.390132e-01	-3.186574e-02	-2.123878e-01
6.826744e-01	-2.845107e-02	-2.194127e-01
6.097987e-01	-2.474388e-02	-2.175235e-01
5.102155e-01	-2.076941e-02	-2.116723e-01
3.625123e-01	-1.661397e-02	-1.734464e-01
1.394670e-01	-1.227986e-02	-8.338837e-02
-1.789008e-01	-7.881033e-03	1.371638e-01
-6.003267e-01	-3.277039e-03	8.015849e-01
-4.186389e-01	1.328383e-03	2.655452e+00
2.677095e+00	6.713043e-03	2.680921e+00
2.839687e+00	1.141592e-02	8.773767e-01
2.430173e+00	1.621695e-02	6.268076e-02
2.095101e+00	2.091384e-02	-1.878852e-01
1.858781e+00	2.566495e-02	-3.421868e-01
1.688283e+00	3.035106e-02	-4.043230e-01
1.537954e+00	3.497010e-02	-4.517113e-01
1.426889e+00	3.939845e-02	-4.686548e-01
1.330031e+00	4.357211e-02	-4.831897e-01
1.251339e+00	4.739200e-02	-4.824257e-01
1.182129e+00	5.042785e-02	-4.818912e-01
1.122881e+00	5.326921e-02	-4.736674e-01
1.070002e+00	5.553312e-02	-4.670289e-01
1.021411e+00	5.723776e-02	-4.560670e-01
9.763214e-01	5.842941e-02	-4.468348e-01
9.305554e-01	5.918025e-02	-4.333920e-01
8.866090e-01	5.957913e-02	-4.208140e-01
8.402165e-01	5.972937e-02	-4.037394e-01
7.916834e-01	5.972490e-02	-3.846304e-01
7.448387e-01	5.968163e-02	-3.634884e-01
8.207942e-01	-2.061984e-02	-1.445389e-01
8.401545e-01	-2.056816e-02	-1.494687e-01
8.529888e-01	-2.043760e-02	-1.555506e-01
8.601488e-01	-2.020201e-02	-1.611191e-01
8.584707e-01	-1.984374e-02	-1.672892e-01
8.555959e-01	-1.934655e-02	-1.726390e-01
8.440804e-01	-1.870064e-02	-1.784746e-01
8.316676e-01	-1.790050e-02	-1.831574e-01
8.113392e-01	-1.692131e-02	-1.892288e-01
7.844807e-01	-1.580320e-02	-1.930048e-01
7.507128e-01	-1.453518e-02	-1.999874e-01
7.131125e-01	-1.311499e-02	-2.049441e-01
6.531461e-01	-1.156685e-02	-2.099222e-01
5.760614e-01	-9.901790e-03	-2.054889e-01
4.714116e-01	-8.136860e-03	-1.955738e-01
3.169450e-01	-6.303527e-03	-1.516444e-01
8.531685e-02	-4.398992e-03	-5.101158e-02
-2.455451e-01	-2.471085e-03	1.882601e-01
-6.736858e-01	-4.590320e-04	8.995375e-01
-4.496155e-01	1.545422e-03	2.851939e+00
2.817923e+00	3.869896e-03	2.821950e+00
2.957201e+00	5.873740e-03	9.136849e-01
2.514659e+00	7.882981e-03	6.485989e-02
2.158310e+00	9.802732e-03	-1.935537e-01
1.908551e+00	1.168918e-02	-3.513490e-01
1.728935e+00	1.348893e-02	-4.140585e-01
1.571739e+00	1.519833e-02	-4.616341e-01
1.455351e+00	1.677533e-02	-4.780030e-01
1.354376e+00	1.820998e-02	-4.920338e-01
1.267845e+00	1.946880e-02	-4.887891e-01
1.195122e+00	2.052878e-02	-4.871876e-01
1.136593e+00	2.138897e-02	-4.794515e-01
1.080395e+00	2.202831e-02	-4.715654e-01
1.028970e+00	2.250072e-02	-4.594420e-01
9.813716e-01	2.280410e-02	-4.491461e-01
9.333905e-01	2.296999e-02	-4.347124e-01
8.875604e-01	2.303337e-02	-4.212656e-01
8.395081e-01	2.303200e-02	-4.033989e-01
7.894404e-01	2.300155e-02	-3.835406e-01
7.417173e-01	2.297498e-02	-3.619651e-01
8.183450e-01	-1.027307e-02	-1.441076e-01
8.369450e-01	-1.025121e-02	-1.488977e-01
8.492484e-01	-1.019904e-02	-1.548685e-01
8.556978e-01	-1.009635e-02	-1.602853e-01
8.531774e-01	-9.912328e-03	-1.662577e-01
8.494370e-01	-9.676875e-03	-1.713963e-01
8.370088e-01	-9.362049e-03	-1.769793e-01
8.232117e-01	-8.961788e-03	-1.812951e-01
8.016623e-01	-8.475625e-03	-1.869719e-01
7.776356e-01	-7.888831e-03	-1.913207e-01
7.423137e-01	-7.517197e-03	-1.977499e-01
6.994505e-01	-6.754824e-03	-2.010178e-01
6.380425e-01	-5.931858e-03	-2.050679e-01
5.588326e-01	-5.049989e-03	-1.993432e-01
4.516565e-01	-4.118855e-03	-1.873780e-01
2.936775e-01	-3.143712e-03	-1.405119e-01
5.760019e-02	-2.127014e-03	-3.443958e-02
-2.796789e-01	-1.095615e-03	2.144306e-01
-7.112373e-01	-1.837268e-05	9.496780e-01
-4.654232e-01	1.053605e-03	2.952208e+00
2.889337e+00	2.292378e-03	2.893467e+00
3.016292e+00	3.354055e-03	9.319423e-01
2.556738e+00	4.410516e-03	6.594522e-02
2.189425e+00	5.410838e-03	-1.963440e-01
1.932762e+00	6.382602e-03	-3.558060e-01
1.748385e+00	7.303611e-03	-4.187166e-01
1.587673e+00	8.161214e-03	-4.663140e-01
1.468621e+00	8.945575e-03	-4.823612e-01
1.365123e+00	9.643515e-03	-4.959382e-01
1.280598e+00	1.024638e-02	-4.937058e-01
1.206175e+00	1.106377e-02	-4.916931e-01
1.142053e+00	1.145275e-02	-4.817547e-01
1.084887e+00	1.177598e-02	-4.735259e-01
1.032663e+00	1.200965e-02	-4.610910e-01
9.839655e-01	1.216633e-02	-4.503333e-01
9.349859e-01	1.225880e-02	-4.354554e-01
8.882109e-01	1.228096e-02	-4.215743e-01
8.394170e-01	1.228785e-02	-4.033551e-01
7.889671e-01	1.228896e-02	-3.833107e-01
7.407689e-01	1.227991e-02	-3.615023e-01
8.171251e-01	-5.699054e-03	-1.438927e-01
8.358735e-01	-5.687813e-03	-1.487071e-01
8.475263e-01	-5.656598e-03	-1.545545e-01
8.527799e-01	-5.596872e-03	-1.597388e-01
8.499464e-01	-5.499651e-03	-1.656280e-01
8.460259e-01	-5.374331e-03	-1.707080e-01
8.330204e-01	-5.188711e-03	-1.761360e-01
8.190421e-01	-4.953370e-03	-1.803769e-01
7.968546e-01	-4.697886e-03	-1.858506e-01
7.719157e-01	-4.362345e-03	-1.899135e-01
7.359172e-01	-3.991667e-03	-1.960459e-01
6.919806e-01	-3.556322e-03	-1.988710e-01
6.294643e-01	-3.065288e-03	-2.023108e-01
5.491195e-01	-2.648800e-03	-1.958784e-01
4.403966e-01	-2.070242e-03	-1.827066e-01
2.802701e-01	-1.489167e-03	-1.340971e-01
4.157184e-02	-8.942620e-04	-2.485611e-02
-2.994775e-01	-2.775373e-04	2.296103e-01
-7.330405e-01	3.667963e-04	9.787906e-01
-4.745964e-01	1.007773e-03	3.010394e+00
2.930669e+00	1.746792e-03	2.934857e+00
3.050342e+00	2.377617e-03	9.424626e-01
2.580866e+00	3.002039e-03	6.656755e-02
2.207149e+00	3.588620e-03	-1.979335e-01
1.946527e+00	4.166551e-03	-3.583401e-01
1.759378e+00	4.693675e-03	-4.213493e-01
1.596574e+00	5.157890e-03	-4.689284e-01
1.475884e+00	5.703639e-03	-4.847468e-01
1.371321e+00	6.086533e-03	-4.981897e-01
1.285791e+00	6.440182e-03	-4.957080e-01
1.210248e+00	6.723446e-03	-4.933535e-01
1.145689e+00	6.950273e-03	-4.832885e-01
1.087854e+00	7.155671e-03	-4.748210e-01
1.034626e+00	7.280870e-03	-4.619674e-01
9.854207e-01	7.364573e-03	-4.509993e-01
9.356384e-01	7.428012e-03	-4.357593e-01
8.882671e-01	7.450361e-03	-4.216010e-01
8.397849e-01	7.456511e-03	-4.035320e-01
7.892250e-01	7.453028e-03	-3.834360e-01
7.403316e-01	7.448667e-03	-3.612889e-01
8.164585e-01	-3.315401e-03	-1.437753e-01
8.344466e-01	-3.308969e-03	-1.484532e-01
8.460476e-01	-3.283493e-03	-1.542848e-01
8.516863e-01	-3.246898e-03	-1.595339e-01
8.486536e-01	-3.218469e-03	-1.653761e-01
8.440118e-01	-3.126383e-03	-1.703017e-01
8.304983e-01	-3.008845e-03	-1.756027e-01
8.162330e-01	-2.862398e-03	-1.797582e-01
7.936773e-01	-2.677773e-03	-1.851096e-01
7.683645e-01	-2.471601e-03	-1.890398e-01
7.317805e-01	-2.222860e-03	-1.949439e-01
6.871077e-01	-1.945287e-03	-1.974705e-01
6.253891e-01	-1.638068e-03	-2.010011e-01
5.441430e-01	-1.417943e-03	-1.941032e-01
4.327638e-01	-1.071131e-03	-1.795400e-01
2.720072e-01	-7.191696e-04	-1.301437e-01
3.175378e-02	-3.338709e-04	-1.898582e-02
-3.119321e-01	5.625493e-05	2.391592e-01
-7.467346e-01	4.632687e-04	9.970758e-01
-4.803450e-01	8.673952e-04	3.046858e+00
2.956450e+00	1.332350e-03	2.960675e+00
3.071459e+00	1.727991e-03	9.489872e-01
2.595695e+00	2.117779e-03	6.695003e-02
2.218287e+00	2.481082e-03	-1.989324e-01
1.954896e+00	2.846659e-03	-3.598806e-01
1.765322e+00	3.160914e-03	-4.227729e-01
1.603041e+00	3.464574e-03	-4.708280e-01
1.481436e+00	3.836216e-03	-4.865703e-01
1.374724e+00	4.064240e-03	-4.994262e-01
1.288633e+00	4.249956e-03	-4.968037e-01
1.212562e+00	4.419815e-03	-4.942971e-01
1.147569e+00	4.557807e-03	-4.840814e-01
1.089326e+00	4.655397e-03	-4.754635e-01
1.035690e+00	4.732072e-03	-4.624426e-01
9.863383e-01	4.783376e-03	-4.514193e-01
9.366483e-01	4.824601e-03	-4.362297e-01
8.889077e-01	4.852125e-03	-4.219051e-01
8.395539e-01	4.851402e-03	-4.034210e-01
7.886150e-01	4.840963e-03	-3.831396e-01
7.401010e-01	4.838258e-03	-3.611763e-01
8.160455e-01	-2.056067e-03	-1.437026e-01
8.339285e-01	-2.051941e-03	-1.483610e-01
8.453944e-01	-2.041475e-03	-1.541657e-01
8.511927e-01	-2.021207e-03	-1.594415e-01
8.474066e-01	-2.008412e-03	-1.651331e-01
8.423858e-01	-2.035887e-03	-1.699736e-01
8.289393e-01	-1.931802e-03	-1.752731e-01
8.143239e-01	-1.822037e-03	-1.793378e-01
7.915828e-01	-1.691497e-03	-1.846210e-01
7.659424e-01	-1.553319e-03	-1.884439e-01
7.290382e-01	-1.399369e-03	-1.942133e-01
6.841875e-01	-1.250325e-03	-1.966313e-01
6.220921e-01	-1.066876e-03	-1.999414e-01
5.407747e-01	-7.617749e-04	-1.929017e-01
4.290161e-01	-5.684479e-04	-1.779852e-01
2.667244e-01	-3.416383e-04	-1.276161e-01
2.500783e-02	-9.080076e-05	-1.495237e-02
-3.198677e-01	1.529717e-04	2.452435e-01
-7.554467e-01	4.085969e-04	1.008708e+00
-4.839955e-01	6.629355e-04	3.070013e+00
2.972820e+00	9.560432e-04	2.977068e+00
3.084844e+00	1.205757e-03	9.531228e-01
2.605077e+00	1.452069e-03	6.719202e-02
2.225237e+00	1.681014e-03	-1.995555e-01
1.960109e+00	1.890680e-03	-3.608403e-01
1.769967e+00	2.098475e-03	-4.238852e-01
1.606860e+00	2.317142e-03	-4.719495e-01
1.484142e+00	2.388343e-03	-4.874591e-01
1.376707e+00	2.568807e-03	-5.001466e-01
1.290279e+00	2.684313e-03	-4.974382e-01
1.214103e+00	2.811219e-03	-4.949250e-01
1.148703e+00	2.903149e-03	-4.845596e-01
1.090185e+00	2.968421e-03	-4.758384e-01
1.036480e+00	3.027870e-03	-4.627954e-01
9.869100e-01	3.164831e-03	-4.516809e-01
9.369377e-01	3.140748e-03	-4.363644e-01
8.889602e-01	3.152675e-03	-4.219300e-01
8.395016e-01	3.148284e-03	-4.033958e-01
7.884947e-01	3.144858e-03	-3.830812e-01
7.399172e-01	3.142505e-03	-3.610867e-01
8.157661e-01	-1.148427e-03	-1.436534e-01
8.335966e-01	-1.145530e-03	-1.483020e-01
8.449649e-01	-1.137909e-03	-1.540874e-01
8.508897e-01	-1.122451e-03	-1.593847e-01
8.490233e-01	-1.106088e-03	-1.654482e-01
8.425423e-01	-1.079759e-03	-1.700051e-01
8.272056e-01	-1.057936e-03	-1.749065e-01
8.128115e-01	-1.013067e-03	-1.790047e-01
7.900542e-01	-1.021485e-03	-1.842645e-01
7.645294e-01	-9.251993e-04	-1.880962e-01
7.278187e-01	-8.259578e-04	-1.938885e-01
6.826815e-01	-7.222479e-04	-1.961985e-01
6.186492e-01	-6.372920e-04	-1.988349e-01
5.366460e-01	-4.095176e-04	-1.914289e-01
4.259532e-01	-2.935380e-04	-1.767145e-01
2.632354e-01	-1.444272e-04	-1.259467e-01
2.116310e-02	-5.678415e-06	-1.265358e-02
-3.247010e-01	1.369280e-04	2.489492e-01
-7.608184e-01	2.869048e-04	1.015881e+00
-4.862647e-01	4.363997e-04	3.084407e+00
2.983040e+00	6.085830e-04	2.987303e+00
3.093251e+00	7.551073e-04	9.557203e-01
2.610970e+00	8.996414e-04	6.734403e-02
2.229112e+00	1.035595e-03	-1.999031e-01
1.963288e+00	1.148506e-03	-3.614256e-01
1.772651e+00	1.273268e-03	-4.245280e-01
1.607327e+00	1.398690e-03	-4.720867e-01
1.484977e+00	1.393109e-03	-4.877333e-01
1.378568e+00	1.511046e-03	-5.008227e-01
1.291694e+00	1.588761e-03	-4.979838e-01
1.215303e+00	1.651740e-03	-4.954145e-01
1.149580e+00	1.773705e-03	-4.849296e-01
1.090990e+00	1.798288e-03	-4.761900e-01
1.038455e+00	1.809003e-03	-4.636772e-01
9.883121e-01	1.832516e-03	-4.523226e-01
9.363610e-01	1.821920e-03	-4.360959e-01
8.891269e-01	1.843928e-03	-4.220091e-01
8.393105e-01	1.843307e-03	-4.033040e-01
7.883294e-01	1.841623e-03	-3.830009e-01
7.397407e-01	1.840169e-03	-3.610005e-01
8.155594e-01	-1.361504e-03	-1.436170e-01
8.333133e-01	-1.360842e-03	-1.482516e-01
8.445783e-01	-1.374657e-03	-1.540169e-01
8.504005e-01	-1.358265e-03	-1.592931e-01
8.465303e-01	-1.301315e-03	-1.649624e-01
8.415614e-01	-1.229252e-03	-1.698072e-01
8.278966e-01	-1.108296e-03	-1.750526e-01
8.138300e-01	-1.167151e-03	-1.792290e-01
7.903718e-01	-9.709242e-04	-1.843386e-01
7.633760e-01	-1.036546e-03	-1.878125e-01
7.263851e-01	-6.603008e-04	-1.935066e-01
6.816658e-01	-7.480796e-04	-1.959065e-01
6.178067e-01	-3.178004e-04	-1.985641e-01
5.355793e-01	-3.859320e-04	-1.910484e-01
4.247314e-01	1.004617e-04	-1.762076e-01
2.613975e-01	4.328863e-04	-1.250674e-01
1.900297e-02	6.234568e-04	-1.136202e-02
-3.273469e-01	6.434483e-04	2.509778e-01
-7.637157e-01	6.667869e-04	1.019750e+00
-4.874741e-01	7.277983e-04	3.092078e+00
2.988430e+00	8.058765e-04	2.992701e+00
3.097631e+00	9.046731e-04	9.570736e-01
2.614101e+00	9.893929e-04	6.742477e-02
2.231344e+00	1.095887e-03	-2.001032e-01
1.964910e+00	1.025097e-03	-3.617241e-01
1.774260e+00	8.048344e-04	-4.249133e-01
1.608580e+00	4.218123e-04	-4.724548e-01
1.485756e+00	5.827841e-04	-4.879892e-01
1.379249e+00	2.127368e-04	-5.010700e-01
1.292054e+00	3.949880e-04	-4.981226e-01
1.216414e+00	8.285612e-05	-4.958671e-01
1.150595e+00	2.520093e-04	-4.853578e-01
1.090661e+00	1.597945e-05	-4.760463e-01
1.036963e+00	6.715181e-05	-4.630107e-01
9.871524e-01	-1.750045e-04	-4.517919e-01
9.370935e-01	-1.136029e-04	-4.364370e-01
8.895135e-01	-1.443827e-04	-4.221926e-01
8.394376e-01	-1.492642e-04	-4.033651e-01
7.883450e-01	-1.310727e-04	-3.830084e-01
7.396947e-01	-1.307275e-04	-3.609781e-01
8.156550e-01	2.918544e-05	-1.436339e-01
8.345089e-01	2.894489e-05	-1.484643e-01
8.446883e-01	2.818757e-05	-1.540369e-01
8.489423e-01	2.541343e-05	-1.590199e-01
8.464029e-01	3.936961e-05	-1.649375e-01
8.391616e-01	3.460788e-05	-1.693230e-01
8.263846e-01	2.056730e-05	-1.747329e-01
8.107470e-01	3.253836e-05	-1.785501e-01
7.883615e-01	1.078902e-04	-1.838697e-01
7.604239e-01	7.432996e-05	-1.870862e-01
7.240106e-01	4.551198e-05	-1.928740e-01
6.782509e-01	4.847635e-05	-1.949251e-01
6.133915e-01	1.387452e-05	-1.971450e-01
5.308212e-01	1.432379e-05	-1.893512e-01
4.124494e-01	3.233744e-05	-1.711122e-01
2.533570e-01	2.964756e-05	-1.212204e-01
1.623811e-02	2.739406e-05	-9.708885e-03
-3.257993e-01	2.532138e-05	2.497913e-01
-7.629339e-01	2.314583e-05	1.018706e+00
-4.877549e-01	2.087979e-05	3.093859e+00
2.992008e+00	1.808645e-05	2.996284e+00
3.101198e+00	1.552425e-05	9.581758e-01
2.617266e+00	1.282019e-05	6.750640e-02
2.229487e+00	1.015692e-05	-1.999367e-01
1.957169e+00	7.655773e-06	-3.602992e-01
1.762121e+00	5.562576e-06	-4.220062e-01
1.604360e+00	-1.785524e-05	-4.712152e-01
1.481840e+00	-2.303937e-05	-4.867030e-01
1.376263e+00	4.482718e-06	-4.999851e-01
1.290017e+00	2.030816e-05	-4.973372e-01
1.213484e+00	3.075702e-05	-4.946729e-01
1.148825e+00	-5.164904e-05	-4.846115e-01
1.088407e+00	-4.500864e-05	-4.750623e-01
1.035918e+00	-7.448500e-06	-4.625444e-01
9.851031e-01	-2.661397e-05	-4.508540e-01
9.370873e-01	-2.750348e-05	-4.364342e-01
8.882387e-01	-4.514174e-05	-4.215875e-01
8.395818e-01	-4.442884e-05	-4.034344e-01
7.894650e-01	-4.461881e-05	-3.835526e-01
7.397935e-01	-4.462937e-05	-3.610263e-01
8.155998e-01	1.475701e-03	-1.436241e-01
8.333728e-01	1.476096e-03	-1.482622e-01
8.447084e-01	1.474482e-03	-1.540406e-01
8.500703e-01	1.458739e-03	-1.592312e-01
8.463803e-01	1.420462e-03	-1.649331e-01
8.418958e-01	1.437987e-03	-1.698747e-01
8.279090e-01	1.264834e-03	-1.750552e-01
8.125618e-01	1.299227e-03	-1.789497e-01
7.898366e-01	1.086930e-03	-1.842138e-01
7.641944e-01	1.141767e-03	-1.880138e-01
7.267256e-01	6.715186e-04	-1.935973e-01
6.820778e-01	7.892728e-04	-1.960250e-01
6.182972e-01	3.632144e-04	-1.987217e-01
5.353172e-01	4.319965e-04	-1.909549e-01
4.244600e-01	-7.186886e-05	-1.760950e-01
2.614894e-01	-4.040335e-04	-1.251114e-01
1.909590e-02	-5.955637e-04	-1.141758e-02
-3.272383e-01	-6.179640e-04	2.508945e-01
-7.635936e-01	-6.447291e-04	1.019587e+00
-4.874197e-01	-7.098292e-04	3.091733e+00
2.988166e+00	-7.932430e-04	2.992437e+00
3.097398e+00	-8.970262e-04	9.570017e-01
2.613928e+00	-9.870725e-04	6.742030e-02
2.231216e+00	-1.096896e-03	-2.000918e-01
1.964818e+00	-1.032249e-03	-3.617072e-01
1.773798e+00	-8.007796e-04	-4.248028e-01
1.608160e+00	-4.256317e-04	-4.723314e-01
1.486081e+00	-5.941351e-04	-4.880958e-01
1.379811e+00	-2.543076e-04	-5.012743e-01
1.292386e+00	-3.406784e-04	-4.982503e-01
1.215519e+00	-6.860673e-05	-4.955023e-01
1.149607e+00	-2.597699e-04	-4.849412e-01
1.091237e+00	-4.265092e-05	-4.762977e-01
1.037266e+00	-1.132290e-04	-4.631462e-01
9.868126e-01	3.185012e-05	-4.516364e-01
9.367784e-01	-6.167264e-06	-4.362903e-01
8.890743e-01	1.869065e-05	-4.219841e-01
8.394587e-01	2.681128e-05	-4.033752e-01
7.883329e-01	2.512864e-05	-3.830026e-01
7.396931e-01	2.389510e-05	-3.609773e-01
8.155886e-01	1.268727e-03	-1.436222e-01
8.346046e-01	1.266215e-03	-1.484813e-01
8.453541e-01	1.259832e-03	-1.541584e-01
8.503535e-01	1.253554e-03	-1.592843e-01
8.467163e-01	1.161248e-03	-1.649986e-01
8.420596e-01	1.137156e-03	-1.699077e-01
8.283638e-01	1.123859e-03	-1.751514e-01
8.133833e-01	1.062907e-03	-1.791306e-01
7.904147e-01	9.944378e-04	-1.843486e-01
7.659101e-01	9.109313e-04	-1.884359e-01
7.286656e-01	8.394080e-04	-1.941141e-01
6.822185e-01	7.146371e-04	-1.960654e-01
6.185799e-01	6.520751e-04	-1.988126e-01
5.368833e-01	5.236020e-04	-1.915136e-01
4.262523e-01	3.688653e-04	-1.768386e-01
2.632463e-01	2.316165e-04	-1.259520e-01
2.123151e-02	8.801369e-05	-1.269448e-02
-3.245554e-01	-5.921980e-05	2.488376e-01
-7.606147e-01	-2.137124e-04	1.015609e+00
-4.861639e-01	-3.675230e-04	3.083767e+00
2.982530e+00	-5.446224e-04	2.986793e+00
3.092794e+00	-6.952681e-04	9.555792e-01
2.610701e+00	-8.436374e-04	6.733707e-02
2.228869e+00	-9.825136e-04	-1.998813e-01
1.963421e+00	-1.115571e-03	-3.614500e-01
1.772687e+00	-1.216946e-03	-4.245366e-01
1.607094e+00	-1.331220e-03	-4.720182e-01
1.484443e+00	-1.430896e-03	-4.875579e-01
1.379458e+00	-1.578043e-03	-5.011459e-01
1.292389e+00	-1.660870e-03	-4.982515e-01
1.214526e+00	-1.741122e-03	-4.950974e-01
1.149057e+00	-1.765550e-03	-4.847092e-01
1.090480e+00	-1.803923e-03	-4.759672e-01
1.036837e+00	-1.858242e-03	-4.629548e-01
9.870073e-01	-1.869319e-03	-4.517255e-01
9.367353e-01	-1.881648e-03	-4.362702e-01
8.890391e-01	-1.813894e-03	-4.219674e-01
8.398345e-01	-1.821367e-03	-4.035558e-01
7.893223e-01	-1.820903e-03	-3.834832e-01
7.396046e-01	-1.819879e-03	-3.609341e-01
8.160213e-01	2.106448e-03	-1.436984e-01
8.338910e-01	2.105000e-03	-1.483543e-01
8.451282e-01	2.038178e-03	-1.541172e-01
8.527875e-01	2.015243e-03	-1.597402e-01
8.485925e-01	1.955243e-03	-1.653642e-01
8.425277e-01	1.923386e-03	-1.700022e-01
8.290863e-01	1.861543e-03	-1.753042e-01
8.144029e-01	1.774575e-03	-1.793552e-01
7.918885e-01	1.667810e-03	-1.846923e-01
7.662283e-01	1.539251e-03	-1.885142e-01
7.292878e-01	1.473030e-03	-1.942798e-01
6.845933e-01	1.287178e-03	-1.967479e-01
6.209245e-01	1.086697e-03	-1.995661e-01
5.395124e-01	8.757585e-04	-1.924514e-01