# vtk DataFile Version 2.0
OUTPUT by 3D-VPM
ASCII
DATASET UNSTRUCTURED_GRID
POINTS 820 double
9.510565e-01	0.000000e+00	-3.090170e-01
9.442611e-01	0.000000e+00	-3.078203e-01
9.267277e-01	0.000000e+00	-3.047010e-01
8.963175e-01	0.000000e+00	-2.991555e-01
8.562911e-01	0.000000e+00	-2.916579e-01
8.054250e-01	0.000000e+00	-2.817457e-01
7.470317e-01	0.000000e+00	-2.699633e-01
6.809074e-01	0.000000e+00	-2.559818e-01
6.100852e-01	0.000000e+00	-2.403847e-01
5.354138e-01	0.000000e+00	-2.229691e-01
4.593635e-01	0.000000e+00	-2.042585e-01
3.837764e-01	0.000000e+00	-1.841224e-01
3.103069e-01	0.000000e+00	-1.630077e-01
2.415927e-01	0.000000e+00	-1.409228e-01
1.782654e-01	0.000000e+00	-1.183331e-01
1.234349e-01	0.000000e+00	-9.558566e-02
7.662509e-02	0.000000e+00	-7.318920e-02
4.106998e-02	0.000000e+00	-5.193053e-02
1.528206e-02	0.000000e+00	-3.215886e-02
2.347037e-03	0.000000e+00	-1.488740e-02
0.000000e+00	0.000000e+00	0.000000e+00
1.064939e-02	0.000000e+00	1.066461e-02
3.126595e-02	0.000000e+00	1.703450e-02
6.375031e-02	0.000000e+00	1.787236e-02
1.050105e-01	0.000000e+00	1.417221e-02
1.560448e-01	0.000000e+00	4.777214e-03
2.137742e-01	0.000000e+00	-9.048270e-03
2.782849e-01	0.000000e+00	-2.799567e-02
3.468570e-01	0.000000e+00	-5.051783e-02
4.187060e-01	0.000000e+00	-7.662000e-02
4.916930e-01	0.000000e+00	-1.047585e-01
5.642168e-01	0.000000e+00	-1.343226e-01
6.348639e-01	0.000000e+00	-1.641238e-01
7.013280e-01	0.000000e+00	-1.931337e-01
7.630418e-01	0.000000e+00	-2.206893e-01
8.172084e-01	0.000000e+00	-2.454799e-01
8.641863e-01	0.000000e+00	-2.673591e-01
9.009752e-01	0.000000e+00	-2.848204e-01
9.288372e-01	0.000000e+00	-2.982085e-01
9.448555e-01	0.000000e+00	-3.059908e-01
9.510565e-01	0.000000e+00	-3.090170e-01
9.510565e-01	1.052632e+00	-3.090170e-01
9.442611e-01	1.052632e+00	-3.078203e-01
9.267277e-01	1.052632e+00	-3.047010e-01
8.963175e-01	1.052632e+00	-2.991555e-01
8.562911e-01	1.052632e+00	-2.916579e-01
8.054250e-01	1.052632e+00	-2.817457e-01
7.470317e-01	1.052632e+00	-2.699633e-01
6.809074e-01	1.052632e+00	-2.559818e-01
6.100852e-01	1.052632e+00	-2.403847e-01
5.354138e-01	1.052632e+00	-2.229691e-01
4.593635e-01	1.052632e+00	-2.042585e-01
3.837764e-01	1.052632e+00	-1.841224e-01
3.103069e-01	1.052632e+00	-1.630077e-01
2.415927e-01	1.052632e+00	-1.409228e-01
1.782654e-01	1.052632e+00	-1.183331e-01
1.234349e-01	1.052632e+00	-9.558566e-02
7.662509e-02	1.052632e+00	-7.318920e-02
4.106998e-02	1.052632e+00	-5.193053e-02
1.528206e-02	1.052632e+00	-3.215886e-02
2.347037e-03	1.052632e+00	-1.488740e-02
0.000000e+00	1.052632e+00	0.000000e+00
1.064939e-02	1.052632e+00	1.066461e-02
3.126595e-02	1.052632e+00	1.703450e-02
6.375031e-02	1.052632e+00	1.787236e-02
1.050105e-01	1.052632e+00	1.417221e-02
1.560448e-01	1.052632e+00	4.777214e-03
2.137742e-01	1.052632e+00	-9.048270e-03
2.782849e-01	1.052632e+00	-2.799567e-02
3.468570e-01	1.052632e+00	-5.051783e-02
4.187060e-01	1.052632e+00	-7.662000e-02
4.916930e-01	1.052632e+00	-1.047585e-01
5.642168e-01	1.052632e+00	-1.343226e-01
6.348639e-01	1.052632e+00	-1.641238e-01
7.013280e-01	1.052632e+00	-1.931337e-01
7.630418e-01	1.052632e+00	-2.206893e-01
8.172084e-01	1.052632e+00	-2.454799e-01
8.641863e-01	1.052632e+00	-2.673591e-01
9.009752e-01	1.052632e+00	-2.848204e-01
9.288372e-01	1.052632e+00	-2.982085e-01
9.448555e-01	1.052632e+00	-3.059908e-01
9.510565e-01	1.052632e+00	-3.090170e-01
9.510565e-01	2.105263e+00	-3.090170e-01
9.442611e-01	2.105263e+00	-3.078203e-01
9.267277e-01	2.105263e+00	-3.047010e-01
8.963175e-01	2.105263e+00	-2.991555e-01
8.562911e-01	2.105263e+00	-2.916579e-01
8.054250e-01	2.105263e+00	-2.817457e-01
7.470317e-01	2.105263e+00	-2.699633e-01
6.809074e-01	2.105263e+00	-2.559818e-01
6.100852e-01	2.105263e+00	-2.403847e-01
5.354138e-01	2.105263e+00	-2.229691e-01
4.593635e-01	2.105263e+00	-2.042585e-01
3.837764e-01	2.105263e+00	-1.841224e-01
3.103069e-01	2.105263e+00	-1.630077e-01
2.415927e-01	2.105263e+00	-1.409228e-01
1.782654e-01	2.105263e+00	-1.183331e-01
1.234349e-01	2.105263e+00	-9.558566e-02
7.662509e-02	2.105263e+00	-7.318920e-02
4.106998e-02	2.105263e+00	-5.193053e-02
1.528206e-02	2.105263e+00	-3.215886e-02
2.347037e-03	2.105263e+00	-1.488740e-02
0.000000e+00	2.105263e+00	0.000000e+00
1.064939e-02	2.105263e+00	1.066461e-02
3.126595e-02	2.105263e+00	1.703450e-02
6.375031e-02	2.105263e+00	1.787236e-02
1.050105e-01	2.105263e+00	1.417221e-02
1.560448e-01	2.105263e+00	4.777214e-03
2.137742e-01	2.105263e+00	-9.048270e-03
2.782849e-01	2.105263e+00	-2.799567e-02
3.468570e-01	2.105263e+00	-5.051783e-02
4.187060e-01	2.105263e+00	-7.662000e-02
4.916930e-01	2.105263e+00	-1.047585e-01
5.642168e-01	2.105263e+00	-1.343226e-01
6.348639e-01	2.105263e+00	-1.641238e-01
7.013280e-01	2.105263e+00	-1.931337e-01
7.630418e-01	2.105263e+00	-2.206893e-01
8.172084e-01	2.105263e+00	-2.454799e-01
8.641863e-01	2.105263e+00	-2.673591e-01
9.009752e-01	2.105263e+00	-2.848204e-01
9.288372e-01	2.105263e+00	-2.982085e-01
9.448555e-01	2.105263e+00	-3.059908e-01
9.510565e-01	2.105263e+00	-3.090170e-01
9.510565e-01	3.157895e+00	-3.090170e-01
9.442611e-01	3.157895e+00	-3.078203e-01
9.267277e-01	3.157895e+00	-3.047010e-01
8.963175e-01	3.157895e+00	-2.991555e-01
8.562911e-01	3.157895e+00	-2.916579e-01
8.054250e-01	3.157895e+00	-2.817457e-01
7.470317e-01	3.157895e+00	-2.699633e-01
6.809074e-01	3.157895e+00	-2.559818e-01
6.100852e-01	3.157895e+00	-2.403847e-01
5.354138e-01	3.157895e+00	-2.229691e-01
4.593635e-01	3.157895e+00	-2.042585e-01
3.837764e-01	3.157895e+00	-1.841224e-01
3.103069e-01	3.157895e+00	-1.630077e-01
2.415927e-01	3.157895e+00	-1.409228e-01
1.782654e-01	3.157895e+00	-1.183331e-01
1.234349e-01	3.157895e+00	-9.558566e-02
7.662509e-02	3.157895e+00	-7.318920e-02
4.106998e-02	3.157895e+00	-5.193053e-02
1.528206e-02	3.157895e+00	-3.215886e-02
2.347037e-03	3.157895e+00	-1.488740e-02
0.000000e+00	3.157895e+00	0.000000e+00
1.064939e-02	3.157895e+00	1.066461e-02
3.126595e-02	3.157895e+00	1.703450e-02
6.375031e-02	3.157895e+00	1.787236e-02
1.050105e-01	3.157895e+00	1.417221e-02
1.560448e-01	3.157895e+00	4.777214e-03
2.137742e-01	3.157895e+00	-9.048270e-03
2.782849e-01	3.157895e+00	-2.799567e-02
3.468570e-01	3.157895e+00	-5.051783e-02
4.187060e-01	3.157895e+00	-7.662000e-02
4.916930e-01	3.157895e+00	-1.047585e-01
5.642168e-01	3.157895e+00	-1.343226e-01
6.348639e-01	3.157895e+00	-1.641238e-01
7.013280e-01	3.157895e+00	-1.931337e-01
7.630418e-01	3.157895e+00	-2.206893e-01
8.172084e-01	3.157895e+00	-2.454799e-01
8.641863e-01	3.157895e+00	-2.673591e-01
9.009752e-01	3.157895e+00	-2.848204e-01
9.288372e-01	3.157895e+00	-2.982085e-01
9.448555e-01	3.157895e+00	-3.059908e-01
9.510565e-01	3.157895e+00	-3.090170e-01
9.510565e-01	4.210526e+00	-3.090170e-01
9.442611e-01	4.210526e+00	-3.078203e-01
9.267277e-01	4.210526e+00	-3.047010e-01
8.963175e-01	4.210526e+00	-2.991555e-01
8.562911e-01	4.210526e+00	-2.916579e-01
8.054250e-01	4.210526e+00	-2.817457e-01
7.470317e-01	4.210526e+00	-2.699633e-01
6.809074e-01	4.210526e+00	-2.559818e-01
6.100852e-01	4.210526e+00	-2.403847e-01
5.354138e-01	4.210526e+00	-2.229691e-01
4.593635e-01	4.210526e+00	-2.042585e-01
3.837764e-01	4.210526e+00	-1.841224e-01
3.103069e-01	4.210526e+00	-1.630077e-01
2.415927e-01	4.210526e+00	-1.409228e-01
1.782654e-01	4.210526e+00	-1.183331e-01
1.234349e-01	4.210526e+00	-9.558566e-02
7.662509e-02	4.210526e+00	-7.318920e-02
4.106998e-02	4.210526e+00	-5.193053e-02
1.528206e-02	4.210526e+00	-3.215886e-02
2.347037e-03	4.210526e+00	-1.488740e-02
0.000000e+00	4.210526e+00	0.000000e+00
1.064939e-02	4.210526e+00	1.066461e-02
3.126595e-02	4.210526e+00	1.703450e-02
6.375031e-02	4.210526e+00	1.787236e-02
1.050105e-01	4.210526e+00	1.417221e-02
1.560448e-01	4.210526e+00	4.777214e-03
2.137742e-01	4.210526e+00	-9.048270e-03
2.782849e-01	4.210526e+00	-2.799567e-02
3.468570e-01	4.210526e+00	-5.051783e-02
4.187060e-01	4.210526e+00	-7.662000e-02
4.916930e-01	4.210526e+00	-1.047585e-01
5.642168e-01	4.210526e+00	-1.343226e-01
6.348639e-01	4.210526e+00	-1.641238e-01
7.013280e-01	4.210526e+00	-1.931337e-01
7.630418e-01	4.210526e+00	-2.206893e-01
8.172084e-01	4.210526e+00	-2.454799e-01
8.641863e-01	4.210526e+00	-2.673591e-01
9.009752e-01	4.210526e+00	-2.848204e-01
9.288372e-01	4.210526e+00	-2.982085e-01
9.448555e-01	4.210526e+00	-3.059908e-01
9.510565e-01	4.210526e+00	-3.090170e-01
9.510565e-01	5.263158e+00	-3.090170e-01
9.442611e-01	5.263158e+00	-3.078203e-01
9.267277e-01	5.263158e+00	-3.047010e-01
8.963175e-01	5.263158e+00	-2.991555e-01
8.562911e-01	5.263158e+00	-2.916579e-01
8.054250e-01	5.263158e+00	-2.817457e-01
7.470317e-01	5.263158e+00	-2.699633e-01
6.809074e-01	5.263158e+00	-2.559818e-01
6.100852e-01	5.263158e+00	-2.403847e-01
5.354138e-01	5.263158e+00	-2.229691e-01
4.593635e-01	5.263158e+00	-2.042585e-01
3.837764e-01	5.263158e+00	-1.841224e-01
3.103069e-01	5.263158e+00	-1.630077e-01
2.415927e-01	5.263158e+00	-1.409228e-01
1.782654e-01	5.263158e+00	-1.183331e-01
1.234349e-01	5.263158e+00	-9.558566e-02
7.662509e-02	5.263158e+00	-7.318920e-02
4.106998e-02	5.263158e+00	-5.193053e-02
1.528206e-02	5.263158e+00	-3.215886e-02
2.347037e-03	5.263158e+00	-1.488740e-02
0.000000e+00	5.263158e+00	0.000000e+00
1.064939e-02	5.263158e+00	1.066461e-02
3.126595e-02	5.263158e+00	1.703450e-02
6.375031e-02	5.263158e+00	1.787236e-02
1.050105e-01	5.263158e+00	1.417221e-02
1.560448e-01	5.263158e+00	4.777214e-03
2.137742e-01	5.263158e+00	-9.048270e-03
2.782849e-01	5.263158e+00	-2.799567e-02
3.468570e-01	5.263158e+00	-5.051783e-02
4.187060e-01	5.263158e+00	-7.662000e-02
4.916930e-01	5.263158e+00	-1.047585e-01
5.642168e-01	5.263158e+00	-1.343226e-01
6.348639e-01	5.263158e+00	-1.641238e-01
7.013280e-01	5.263158e+00	-1.931337e-01
7.630418e-01	5.263158e+00	-2.206893e-01
8.172084e-01	5.263158e+00	-2.454799e-01
8.641863e-01	5.263158e+00	-2.673591e-01
9.009752e-01	5.263158e+00	-2.848204e-01
9.288372e-01	5.263158e+00	-2.982085e-01
9.448555e-01	5.263158e+00	-3.059908e-01
9.510565e-01	5.263158e+00	-3.090170e-01
9.510565e-01	6.315789e+00	-3.090170e-01
9.442611e-01	6.315789e+00	-3.078203e-01
[...]
CELL_DATA 760
VECTORS V double
8.414213e-01	-6.903625e-02	-1.481712e-01
8.655418e-01	-6.886267e-02	-1.539852e-01
8.835561e-01	-6.841290e-02	-1.611248e-01
8.953211e-01	-6.761849e-02	-1.677074e-01
8.977850e-01	-6.645754e-02	-1.749503e-01
8.990964e-01	-6.491241e-02	-1.814164e-01
8.920575e-01	-6.297279e-02	-1.886189e-01
8.847457e-01	-6.061461e-02	-1.948467e-01
8.704102e-01	-5.780939e-02	-2.030060e-01
8.547688e-01	-5.452452e-02	-2.102977e-01
8.294623e-01	-5.073451e-02	-2.209660e-01
7.985385e-01	-4.642514e-02	-2.294951e-01
7.511871e-01	-4.162941e-02	-2.414327e-01
6.891597e-01	-3.639846e-02	-2.458327e-01
6.025052e-01	-3.077026e-02	-2.499603e-01
4.718228e-01	-2.486765e-02	-2.257468e-01
2.701053e-01	-1.869862e-02	-1.614980e-01
-1.747767e-02	-1.242923e-02	1.340018e-02
-4.218732e-01	-5.860924e-03	5.633053e-01
-3.427241e-01	7.201640e-04	2.173920e+00
2.327188e+00	8.433910e-03	2.330514e+00
2.541833e+00	1.519920e-02	7.853490e-01
2.210650e+00	2.214593e-02	5.701867e-02
1.925596e+00	2.899381e-02	-1.726843e-01
1.720237e+00	3.598385e-02	-3.166818e-01
1.570444e+00	4.295096e-02	-3.761021e-01
1.435584e+00	4.988947e-02	-4.216444e-01
1.336762e+00	5.662090e-02	-4.390528e-01
1.250659e+00	6.302709e-02	-4.543543e-01
1.181714e+00	6.891018e-02	-4.555833e-01
1.121881e+00	7.415469e-02	-4.573313e-01
1.071622e+00	7.862348e-02	-4.520444e-01
1.027480e+00	8.225436e-02	-4.484693e-01
9.872045e-01	8.503951e-02	-4.407934e-01
9.499821e-01	8.703035e-02	-4.347801e-01
9.115292e-01	8.832480e-02	-4.245308e-01
8.743614e-01	8.905116e-02	-4.150009e-01
8.341864e-01	8.935851e-02	-4.008418e-01
7.910576e-01	8.940248e-02	-3.843263e-01
7.483062e-01	8.935682e-02	-3.651805e-01
8.268554e-01	-4.834506e-02	-1.456062e-01
8.473428e-01	-4.822075e-02	-1.507475e-01
8.618049e-01	-4.790222e-02	-1.571583e-01
8.704904e-01	-4.733839e-02	-1.630562e-01
8.702411e-01	-4.650664e-02	-1.695828e-01
8.688562e-01	-4.538813e-02	-1.753147e-01
8.588563e-01	-4.397220e-02	-1.815988e-01
8.479859e-01	-4.224384e-02	-1.867511e-01
8.293146e-01	-4.018823e-02	-1.934212e-01
8.083250e-01	-3.779019e-02	-1.988712e-01
7.765355e-01	-3.501994e-02	-2.068665e-01
7.378735e-01	-3.192796e-02	-2.120603e-01
6.815665e-01	-2.849160e-02	-2.190566e-01
6.085111e-01	-2.476594e-02	-2.170642e-01
5.087067e-01	-2.077694e-02	-2.110463e-01
3.606997e-01	-1.660768e-02	-1.725792e-01
1.372839e-01	-1.225992e-02	-8.208306e-02
-1.816109e-01	-7.847104e-03	1.392416e-01
-6.033185e-01	-3.229355e-03	8.055797e-01
-4.198960e-01	1.390403e-03	2.663426e+00
2.682725e+00	6.790842e-03	2.686559e+00
2.844282e+00	1.150710e-02	8.787964e-01
2.433392e+00	1.632143e-02	6.276381e-02
2.097438e+00	2.103090e-02	-1.880948e-01
1.860564e+00	2.579424e-02	-3.425150e-01
1.689709e+00	3.049179e-02	-4.046644e-01
1.539113e+00	3.511775e-02	-4.520516e-01
1.427849e+00	3.955398e-02	-4.689699e-01
1.330751e+00	4.372865e-02	-4.834511e-01
1.251931e+00	4.753412e-02	-4.826538e-01
1.182691e+00	5.086002e-02	-4.821201e-01
1.123356e+00	5.367761e-02	-4.738678e-01
1.070408e+00	5.593717e-02	-4.672061e-01
1.021753e+00	5.764307e-02	-4.562196e-01
9.765993e-01	5.883657e-02	-4.469620e-01
9.307669e-01	5.958852e-02	-4.334905e-01
8.867535e-01	5.998731e-02	-4.208826e-01
8.402947e-01	6.013374e-02	-4.037769e-01
7.917011e-01	6.013011e-02	-3.846390e-01
7.448093e-01	6.008681e-02	-3.634741e-01
8.205592e-01	-2.041069e-02	-1.444975e-01
8.397170e-01	-2.035885e-02	-1.493908e-01
8.526991e-01	-2.022847e-02	-1.554978e-01
8.598568e-01	-1.999243e-02	-1.610644e-01
8.580650e-01	-1.963380e-02	-1.672101e-01
8.550973e-01	-1.913591e-02	-1.725384e-01
8.434726e-01	-1.848901e-02	-1.783460e-01
8.308675e-01	-1.768778e-02	-1.829812e-01
8.103064e-01	-1.670507e-02	-1.889879e-01
7.869131e-01	-1.558479e-02	-1.936033e-01
7.528425e-01	-1.431265e-02	-2.005547e-01
7.115439e-01	-1.290348e-02	-2.044933e-01
6.517181e-01	-1.134727e-02	-2.094632e-01
5.745559e-01	-9.680226e-03	-2.049519e-01
4.697622e-01	-7.912427e-03	-1.948895e-01
3.150038e-01	-6.076334e-03	-1.507157e-01
8.299491e-02	-4.168679e-03	-4.962328e-02
-2.484160e-01	-2.237384e-03	1.904612e-01
-6.768447e-01	-2.215931e-04	9.037554e-01
-4.509393e-01	1.786771e-03	2.860336e+00
2.823837e+00	4.115979e-03	2.827873e+00
2.962016e+00	6.124042e-03	9.151728e-01
2.518023e+00	8.137603e-03	6.494666e-02
2.160741e+00	1.006152e-02	-1.937717e-01
1.910390e+00	1.195204e-02	-3.516876e-01
1.730316e+00	1.375561e-02	-4.143894e-01
1.572810e+00	1.546762e-02	-4.619487e-01
1.456144e+00	1.704746e-02	-4.782634e-01
1.354668e+00	1.847761e-02	-4.921399e-01
1.271708e+00	1.974366e-02	-4.902787e-01
1.198805e+00	2.080891e-02	-4.886888e-01
1.136488e+00	2.166921e-02	-4.794070e-01
1.080556e+00	2.230620e-02	-4.716356e-01
1.029173e+00	2.277778e-02	-4.595326e-01
9.815367e-01	2.307983e-02	-4.492217e-01
9.334897e-01	2.324446e-02	-4.347586e-01
8.875246e-01	2.330692e-02	-4.212486e-01
8.394013e-01	2.330466e-02	-4.033476e-01
7.894756e-01	2.327419e-02	-3.835577e-01
7.416745e-01	2.324739e-02	-3.619442e-01
8.181554e-01	-1.021859e-02	-1.440742e-01
8.367400e-01	-1.019755e-02	-1.488612e-01
8.489667e-01	-1.014126e-02	-1.548172e-01
8.553520e-01	-1.003545e-02	-1.602206e-01
8.527721e-01	-9.870266e-03	-1.661787e-01
8.489654e-01	-9.622375e-03	-1.713012e-01
8.364724e-01	-9.309699e-03	-1.768659e-01
8.225731e-01	-8.912249e-03	-1.811545e-01
8.009401e-01	-8.438932e-03	-1.868034e-01
7.769158e-01	-7.875071e-03	-1.911436e-01
7.414898e-01	-7.235715e-03	-1.975304e-01
6.983553e-01	-6.498179e-03	-2.007030e-01
6.367920e-01	-5.692709e-03	-2.046660e-01
5.574734e-01	-4.816570e-03	-1.988584e-01
4.500559e-01	-3.881818e-03	-1.867139e-01
2.917570e-01	-2.905893e-03	-1.395931e-01
5.527861e-02	-1.892148e-03	-3.305149e-02
-2.825705e-01	-8.587123e-04	2.166476e-01
-7.144392e-01	2.209095e-04	9.539533e-01
-4.667734e-01	1.295489e-03	2.960772e+00
2.895408e+00	2.537530e-03	2.899545e+00
3.021263e+00	3.602192e-03	9.334783e-01
2.560231e+00	4.661741e-03	6.603533e-02
2.191966e+00	5.665056e-03	-1.965719e-01
1.934703e+00	6.644768e-03	-3.561633e-01
1.749920e+00	7.564894e-03	-4.190842e-01
1.588914e+00	8.429306e-03	-4.666786e-01
1.469554e+00	9.226352e-03	-4.826677e-01
1.365881e+00	9.935058e-03	-4.962137e-01
1.281347e+00	1.055414e-02	-4.939947e-01
1.206804e+00	1.109265e-02	-4.919496e-01
1.142500e+00	1.152401e-02	-4.819433e-01
1.085250e+00	1.186211e-02	-4.736844e-01
1.032974e+00	1.210028e-02	-4.612299e-01
9.842019e-01	1.226038e-02	-4.504415e-01
9.351563e-01	1.234136e-02	-4.355348e-01
8.883139e-01	1.238533e-02	-4.216232e-01
8.394625e-01	1.239553e-02	-4.033770e-01
7.889767e-01	1.238870e-02	-3.833154e-01
7.407050e-01	1.238003e-02	-3.614711e-01
8.170279e-01	-5.649837e-03	-1.438756e-01
8.351853e-01	-5.638719e-03	-1.485846e-01
8.470021e-01	-5.607224e-03	-1.544589e-01
8.529471e-01	-5.547865e-03	-1.597701e-01
8.496113e-01	-5.451705e-03	-1.655627e-01
8.453667e-01	-5.311455e-03	-1.705750e-01
8.324893e-01	-5.140157e-03	-1.760237e-01
8.184688e-01	-4.920537e-03	-1.802506e-01
7.963065e-01	-4.655709e-03	-1.857227e-01
7.711165e-01	-4.320025e-03	-1.897169e-01
7.348482e-01	-3.929239e-03	-1.957611e-01
6.909787e-01	-3.493059e-03	-1.985830e-01
6.283644e-01	-3.021697e-03	-2.019573e-01
5.476522e-01	-2.601524e-03	-1.953550e-01
4.386725e-01	-2.058394e-03	-1.819913e-01
2.783628e-01	-1.450998e-03	-1.331845e-01
3.928190e-02	-8.417915e-04	-2.348694e-02
-3.024604e-01	-2.224245e-04	2.318972e-01
-7.363356e-01	4.251430e-04	9.831905e-01
-4.759832e-01	1.069570e-03	3.019191e+00
2.936892e+00	1.812534e-03	2.941089e+00
3.055425e+00	2.447066e-03	9.440333e-01
2.584426e+00	3.075245e-03	6.665938e-02
2.209866e+00	3.665806e-03	-1.981771e-01
1.948493e+00	4.235215e-03	-3.587019e-01
1.760870e+00	4.758288e-03	-4.217066e-01
1.597945e+00	5.243841e-03	-4.693311e-01
1.477001e+00	5.787535e-03	-4.851138e-01
1.371966e+00	6.191722e-03	-4.984242e-01
1.286316e+00	6.530020e-03	-4.959105e-01
1.210950e+00	6.810838e-03	-4.936399e-01
1.146321e+00	7.040210e-03	-4.835549e-01
1.088277e+00	7.237647e-03	-4.750058e-01
1.034943e+00	7.380033e-03	-4.621091e-01
9.854726e-01	7.478135e-03	-4.510231e-01
9.358720e-01	7.526586e-03	-4.358681e-01
8.888576e-01	7.549910e-03	-4.218813e-01
8.396026e-01	7.556330e-03	-4.034443e-01
7.887816e-01	7.552485e-03	-3.832205e-01
7.403473e-01	7.548227e-03	-3.612965e-01
8.162896e-01	-3.259390e-03	-1.437456e-01
8.342268e-01	-3.266374e-03	-1.484141e-01
8.457730e-01	-3.247135e-03	-1.542348e-01
8.513780e-01	-3.210703e-03	-1.594762e-01
8.479399e-01	-3.149089e-03	-1.652370e-01
8.435631e-01	-3.096612e-03	-1.702111e-01
8.304250e-01	-2.979633e-03	-1.755872e-01
8.156738e-01	-2.835938e-03	-1.796351e-01
7.928296e-01	-2.651963e-03	-1.849118e-01
7.673776e-01	-2.419876e-03	-1.887970e-01
7.306813e-01	-2.180785e-03	-1.946510e-01
6.862583e-01	-1.955391e-03	-1.972264e-01
6.243713e-01	-1.641623e-03	-2.006739e-01
5.432280e-01	-1.423845e-03	-1.937768e-01
4.313765e-01	-1.059725e-03	-1.789645e-01
2.693178e-01	-6.824049e-04	-1.288569e-01
2.904102e-02	-2.870360e-04	-1.736384e-02
-3.149720e-01	1.075823e-04	2.414900e-01
-7.501199e-01	5.193168e-04	1.001596e+00
-4.817752e-01	9.282444e-04	3.055929e+00
2.962899e+00	1.398896e-03	2.967133e+00
3.076760e+00	1.799661e-03	9.506249e-01
2.599439e+00	2.195032e-03	6.704661e-02
2.220680e+00	2.564564e-03	-1.991469e-01
1.956592e+00	2.914113e-03	-3.601929e-01
1.767182e+00	3.240288e-03	-4.232183e-01
1.604558e+00	3.653584e-03	-4.712734e-01
1.482646e+00	3.902971e-03	-4.869679e-01
1.375550e+00	4.153048e-03	-4.997263e-01
1.289159e+00	4.371604e-03	-4.970063e-01
1.213193e+00	4.536439e-03	-4.945540e-01
1.147950e+00	4.641932e-03	-4.842420e-01
1.089801e+00	4.736353e-03	-4.756710e-01
1.036457e+00	4.811186e-03	-4.627847e-01
9.865963e-01	4.857135e-03	-4.515373e-01
9.365313e-01	4.918611e-03	-4.361752e-01
8.890411e-01	4.927675e-03	-4.219684e-01
8.396003e-01	4.929504e-03	-4.034433e-01
7.886055e-01	4.926165e-03	-3.831350e-01
7.400528e-01	4.937061e-03	-3.611528e-01
8.182000e-01	-2.024547e-03	-1.440820e-01
8.341229e-01	-2.020527e-03	-1.483956e-01
8.450443e-01	-2.010382e-03	-1.541019e-01
8.504355e-01	-1.991855e-03	-1.592996e-01
8.473358e-01	-1.961851e-03	-1.651193e-01
8.423741e-01	-2.005965e-03	-1.699712e-01
8.284608e-01	-1.883974e-03	-1.751719e-01
8.137979e-01	-1.779459e-03	-1.792220e-01
7.906874e-01	-1.680821e-03	-1.844122e-01
7.649320e-01	-1.540155e-03	-1.881953e-01
7.287743e-01	-1.384814e-03	-1.941430e-01
6.838100e-01	-1.215755e-03	-1.965228e-01
6.209299e-01	-1.018196e-03	-1.995679e-01
5.390989e-01	-7.406281e-04	-1.923039e-01
4.266052e-01	-5.053814e-04	-1.769850e-01
2.641388e-01	-2.980613e-04	-1.263790e-01
2.239273e-02	-5.463137e-05	-1.338878e-02
-3.230861e-01	1.676301e-04	2.477110e-01
-7.590042e-01	4.285786e-04	1.013459e+00
-4.854955e-01	6.871555e-04	3.079528e+00
2.979576e+00	9.837304e-04	2.983834e+00
3.090403e+00	1.234345e-03	9.548403e-01
2.609022e+00	1.506003e-03	6.729378e-02
2.227646e+00	1.734827e-03	-1.997716e-01
1.962041e+00	1.954713e-03	-3.611961e-01
1.773652e+00	2.167895e-03	-4.247679e-01
1.607870e+00	2.393844e-03	-4.722461e-01
1.483933e+00	2.465751e-03	-4.873905e-01
1.378071e+00	2.609149e-03	-5.006422e-01
1.291153e+00	2.744414e-03	-4.977749e-01
1.214337e+00	2.856326e-03	-4.950206e-01
1.148872e+00	2.945990e-03	-4.846311e-01
1.090541e+00	3.043910e-03	-4.759938e-01
1.036697e+00	3.108881e-03	-4.628920e-01
9.871729e-01	3.229240e-03	-4.518012e-01
9.372709e-01	3.220591e-03	-4.365196e-01
8.891269e-01	3.214559e-03	-4.220091e-01
8.395866e-01	3.211569e-03	-4.034367e-01
7.889168e-01	3.208313e-03	-3.832862e-01
7.420159e-01	3.206025e-03	-3.621108e-01
8.156150e-01	-1.136214e-03	-1.436268e-01
8.334023e-01	-1.119394e-03	-1.482674e-01
8.447678e-01	-1.111123e-03	-1.540514e-01
8.501379e-01	-1.120459e-03	-1.592439e-01
8.483610e-01	-1.100715e-03	-1.653191e-01
8.420324e-01	-1.049774e-03	-1.699023e-01
8.269548e-01	-1.009069e-03	-1.748535e-01
8.127916e-01	-9.810653e-04	-1.790003e-01
7.895940e-01	-9.886204e-04	-1.841572e-01
7.634917e-01	-9.090130e-04	-1.878409e-01
7.264410e-01	-8.064909e-04	-1.935215e-01
6.813753e-01	-6.519662e-04	-1.958231e-01
6.177996e-01	-5.725280e-04	-1.985618e-01
5.355669e-01	-3.384657e-04	-1.910440e-01
4.241359e-01	-2.488516e-04	-1.759606e-01
2.610618e-01	-1.211464e-04	-1.249068e-01
1.903348e-02	1.573056e-05	-1.138026e-02
-3.272149e-01	1.574227e-04	2.508766e-01
-7.644737e-01	3.065290e-04	1.020762e+00
-4.877807e-01	4.551255e-04	3.094023e+00
2.989683e+00	6.261539e-04	2.993955e+00
3.099926e+00	7.714402e-04	9.577828e-01
2.615398e+00	9.142343e-04	6.745824e-02
2.231785e+00	1.047535e-03	-2.001428e-01
1.965289e+00	1.174730e-03	-3.617941e-01
1.774730e+00	1.294037e-03	-4.250259e-01
1.608960e+00	1.320176e-03	-4.725663e-01
1.485666e+00	1.430164e-03	-4.879596e-01
1.379183e+00	1.536418e-03	-5.010462e-01
1.292278e+00	1.596117e-03	-4.982087e-01
1.215717e+00	1.663656e-03	-4.955830e-01
1.150339e+00	1.808693e-03	-4.852500e-01
1.091986e+00	1.828939e-03	-4.766245e-01
1.039078e+00	1.870450e-03	-4.639552e-01
9.885176e-01	1.882112e-03	-4.524167e-01
9.362544e-01	1.867186e-03	-4.360462e-01
8.888266e-01	1.870145e-03	-4.218666e-01
8.394118e-01	1.891879e-03	-4.033527e-01
7.883324e-01	1.888731e-03	-3.830023e-01
7.397025e-01	1.873165e-03	-3.609819e-01
8.153773e-01	-1.350848e-03	-1.435850e-01
8.329859e-01	-1.350909e-03	-1.481933e-01
8.451910e-01	-1.351601e-03	-1.541286e-01
8.500854e-01	-1.333840e-03	-1.592340e-01
8.458576e-01	-1.292477e-03	-1.648313e-01
8.408070e-01	-1.215349e-03	-1.696550e-01
8.274137e-01	-1.119300e-03	-1.749505e-01
8.135234e-01	-1.183179e-03	-1.791615e-01
7.896941e-01	-9.646108e-04	-1.841805e-01
7.625402e-01	-1.014873e-03	-1.876068e-01
7.254176e-01	-6.592125e-04	-1.932488e-01
6.806689e-01	-7.481782e-04	-1.956201e-01
6.166390e-01	-3.138638e-04	-1.981888e-01
5.341787e-01	-3.787201e-04	-1.905488e-01
4.231042e-01	7.941041e-05	-1.755325e-01
2.592731e-01	4.179615e-04	-1.240509e-01
1.644981e-02	6.123983e-04	-9.835463e-03
-3.305193e-01	6.592708e-04	2.534101e-01
-7.672246e-01	7.047239e-04	1.024435e+00
-4.889521e-01	7.634424e-04	3.101453e+00
2.995066e+00	8.420604e-04	2.999346e+00
3.103055e+00	9.190533e-04	9.587493e-01
2.617900e+00	9.835130e-04	6.752275e-02
2.234091e+00	1.093655e-03	-2.003496e-01
1.966985e+00	1.026725e-03	-3.621061e-01
1.776044e+00	8.424207e-04	-4.253407e-01
1.609995e+00	4.605555e-04	-4.728702e-01
1.486932e+00	6.203984e-04	-4.883756e-01
1.380224e+00	3.019117e-04	-5.014243e-01
1.292759e+00	4.303497e-04	-4.983944e-01
1.216993e+00	1.343957e-04	-4.961032e-01
1.151010e+00	2.840638e-04	-4.855329e-01
1.091355e+00	2.415619e-05	-4.763492e-01
1.037481e+00	7.938420e-05	-4.632421e-01
9.871488e-01	-1.386453e-04	-4.517902e-01
9.370182e-01	-8.101045e-05	-4.364019e-01
8.896354e-01	-9.549106e-05	-4.222504e-01
8.402963e-01	-1.014640e-04	-4.037777e-01
7.882340e-01	-9.636607e-05	-3.829545e-01
7.396321e-01	-9.527525e-05	-3.609475e-01
8.156252e-01	4.686721e-05	-1.436286e-01
8.334511e-01	4.785566e-05	-1.482761e-01
8.440842e-01	2.702804e-05	-1.539268e-01
8.485968e-01	4.918979e-05	-1.589552e-01
8.459137e-01	4.665844e-05	-1.648422e-01
8.390276e-01	4.514452e-05	-1.692960e-01
8.265793e-01	4.305492e-05	-1.747741e-01
8.104691e-01	4.313179e-05	-1.784888e-01
7.873950e-01	8.475875e-05	-1.836443e-01
7.594571e-01	7.207430e-05	-1.868483e-01
7.229191e-01	6.282330e-05	-1.925832e-01
6.769081e-01	2.879332e-05	-1.945392e-01
6.124399e-01	1.146832e-06	-1.968392e-01
5.300913e-01	4.401687e-06	-1.890908e-01
4.110289e-01	3.591294e-05	-1.705229e-01
2.509954e-01	3.226140e-06	-1.200904e-01
1.350839e-02	6.377446e-06	-8.076769e-03
-3.295904e-01	8.621601e-06	2.526979e-01
-7.672742e-01	9.450077e-06	1.024501e+00
-4.892462e-01	9.267669e-06	3.103319e+00
2.997400e+00	8.335028e-06	3.001683e+00
3.106037e+00	7.097513e-06	9.596707e-01
2.621281e+00	5.396398e-06	6.760996e-02
2.232346e+00	2.879549e-06	-2.001931e-01
1.960029e+00	3.510630e-05	-3.608256e-01
1.764798e+00	3.119438e-05	-4.226474e-01
1.605991e+00	-2.489685e-06	-4.716944e-01
1.483252e+00	5.004004e-05	-4.871668e-01
1.376821e+00	3.748217e-05	-5.001879e-01
1.290131e+00	2.569176e-05	-4.973809e-01
1.213858e+00	1.695011e-05	-4.948254e-01
1.149033e+00	-2.771516e-05	-4.846991e-01
1.089126e+00	-2.524671e-05	-4.753764e-01
1.036931e+00	-2.706592e-05	-4.629968e-01
9.856634e-01	-2.656300e-05	-4.511104e-01
9.371789e-01	-2.700050e-05	-4.364768e-01
8.883356e-01	-2.619949e-05	-4.216335e-01
8.393210e-01	-4.963414e-05	-4.033091e-01
7.886818e-01	-2.933351e-05	-3.831721e-01
7.398696e-01	-3.047833e-05	-3.610634e-01
8.152114e-01	1.473262e-03	-1.435558e-01
8.343615e-01	1.473414e-03	-1.484381e-01
8.448749e-01	1.474593e-03	-1.540710e-01
8.496765e-01	1.458442e-03	-1.591574e-01
8.459370e-01	1.419333e-03	-1.648467e-01
8.408697e-01	1.432179e-03	-1.696677e-01
8.274431e-01	1.293296e-03	-1.749567e-01
8.129127e-01	1.355086e-03	-1.790270e-01
7.893180e-01	1.113149e-03	-1.840928e-01
7.628279e-01	1.137471e-03	-1.876776e-01
7.259815e-01	7.879319e-04	-1.933991e-01
6.814934e-01	8.004784e-04	-1.958570e-01
6.169919e-01	3.689572e-04	-1.983022e-01
5.336817e-01	4.590025e-04	-1.903715e-01
4.230558e-01	-3.644555e-05	-1.755125e-01
2.598762e-01	-3.776792e-04	-1.243395e-01
1.633222e-02	-5.756111e-04	-9.765154e-03
-3.306040e-01	-6.014397e-04	2.534750e-01
-7.672481e-01	-6.532216e-04	1.024466e+00
-4.889413e-01	-7.475407e-04	3.101385e+00
2.994956e+00	-8.349818e-04	2.999236e+00
3.102921e+00	-8.908930e-04	9.587081e-01
2.617759e+00	-9.888567e-04	6.751912e-02
2.234928e+00	-1.104853e-03	-2.004246e-01
1.967490e+00	-1.044942e-03	-3.621991e-01
1.775366e+00	-8.352402e-04	-4.251784e-01
1.610343e+00	-4.922379e-04	-4.729727e-01
1.487458e+00	-6.623350e-04	-4.885483e-01
1.379907e+00	-3.583503e-04	-5.013090e-01
1.292500e+00	-4.236021e-04	-4.982946e-01
1.216327e+00	-1.459120e-04	-4.958317e-01
1.150460e+00	-2.482989e-04	-4.853011e-01
1.091366e+00	-3.381152e-05	-4.763537e-01
1.037460e+00	-1.323507e-04	-4.632329e-01
9.871508e-01	-2.205871e-05	-4.517912e-01
9.370228e-01	-5.521702e-05	-4.364041e-01
8.891897e-01	-2.932941e-05	-4.220389e-01
8.399476e-01	-2.065945e-05	-4.036101e-01
7.894533e-01	-2.507985e-05	-3.835469e-01
7.394567e-01	-2.605139e-05	-3.608619e-01
8.155996e-01	1.270596e-03	-1.436241e-01
8.333661e-01	1.266756e-03	-1.482610e-01
8.446910e-01	1.278901e-03	-1.540374e-01
8.500400e-01	1.272721e-03	-1.592255e-01
8.463449e-01	1.161837e-03	-1.649262e-01
8.413715e-01	1.138228e-03	-1.697689e-01
8.276153e-01	1.098309e-03	-1.749931e-01
8.131626e-01	1.039957e-03	-1.790820e-01
7.902591e-01	1.008445e-03	-1.843123e-01
7.637497e-01	9.231792e-04	-1.879044e-01
7.273536e-01	8.282708e-04	-1.937646e-01
6.823786e-01	7.518256e-04	-1.961114e-01
6.174204e-01	6.653720e-04	-1.984399e-01
5.357025e-01	5.104531e-04	-1.910924e-01
4.248241e-01	3.701422e-04	-1.762461e-01
2.611744e-01	2.575796e-04	-1.249606e-01
1.871932e-02	1.035234e-04	-1.119242e-02
-3.277054e-01	-5.241612e-05	2.512527e-01
-7.634817e-01	-2.139740e-04	1.019437e+00
-4.872428e-01	-3.736968e-04	3.090611e+00
2.990553e+00	-5.569491e-04	2.994827e+00
3.098888e+00	-7.125371e-04	9.574621e-01
2.614269e+00	-8.654485e-04	6.742912e-02
2.231462e+00	-1.007675e-03	-2.001138e-01
1.965717e+00	-1.178013e-03	-3.618727e-01
1.774428e+00	-1.301739e-03	-4.249535e-01
1.608236e+00	-1.416405e-03	-4.723538e-01
1.485320e+00	-1.553109e-03	-4.878462e-01
1.379839e+00	-1.643938e-03	-5.012843e-01
1.292839e+00	-1.714668e-03	-4.984249e-01
1.216076e+00	-1.774305e-03	-4.957294e-01
1.150385e+00	-1.857979e-03	-4.852695e-01
1.090803e+00	-1.888499e-03	-4.761080e-01
1.036955e+00	-1.903845e-03	-4.630072e-01
9.870475e-01	-1.921918e-03	-4.517438e-01
9.369427e-01	-1.939761e-03	-4.363668e-01
8.891735e-01	-1.855924e-03	-4.220312e-01
8.395262e-01	-1.864801e-03	-4.034076e-01
7.883781e-01	-1.883481e-03	-3.830245e-01
7.397208e-01	-1.881271e-03	-3.609908e-01
8.158559e-01	2.123002e-03	-1.436692e-01
8.336713e-01	2.118739e-03	-1.483153e-01
8.447927e-01	2.112319e-03	-1.540560e-01
8.529111e-01	2.013421e-03	-1.597633e-01
8.484773e-01	1.981492e-03	-1.653418e-01
8.419827e-01	1.945041e-03	-1.698922e-01
8.289680e-01	1.865666e-03	-1.752791e-01
8.141768e-01	1.770693e-03	-1.793054e-01
7.909055e-01	1.645969e-03	-1.844631e-01
7.651932e-01	1.530486e-03	-1.882595e-01
7.282233e-01	1.364997e-03	-1.939963e-01
6.836637e-01	1.263880e-03	-1.964807e-01
6.203181e-01	1.043485e-03	-1.993712e-01
5.380852e-01	8.352311e-04	-1.919423e-01