# vtk DataFile Version 2.0
OUTPUT by 3D-VPM
ASCII
DATASET UNSTRUCTURED_GRID
POINTS 1720 double
8.444042e+01	1.016650e+00	-3.271103e+00
8.392201e+01	2.124502e+00	-1.657942e+00
8.508891e+01	2.347907e+00	-2.632140e+00
8.442518e+01	3.398122e+00	-2.636608e+00
8.450562e+01	4.463243e+00	-1.845339e+00
8.480912e+01	5.525963e+00	-1.754348e+00
8.475228e+01	6.530012e+00	-1.746082e+00
8.466800e+01	7.507370e+00	-1.585953e+00
8.470081e+01	8.500227e+00	-1.510952e+00
8.469819e+01	9.500053e+00	-1.503834e+00
8.469816e+01	1.050066e+01	-1.503890e+00
8.470070e+01	1.150056e+01	-1.511130e+00
8.466779e+01	1.249361e+01	-1.586243e+00
8.475174e+01	1.347136e+01	-1.746485e+00
8.480795e+01	1.447605e+01	-1.755298e+00
8.450542e+01	1.554137e+01	-1.846632e+00
8.442098e+01	1.662205e+01	-2.634256e+00
8.504754e+01	1.767704e+01	-2.655650e+00
8.402232e+01	1.793318e+01	-1.576408e+00
8.392400e+01	1.831365e+01	-3.210210e+00
8.360178e+01	1.166746e+00	-3.583150e+00
8.372221e+01	1.437274e+00	-9.189990e-01
8.374522e+01	2.495512e+00	-3.725219e+00
8.302831e+01	3.549940e+00	-1.944954e+00
8.326094e+01	4.565499e+00	-1.277671e+00
8.333761e+01	5.524141e+00	-1.474097e+00
8.322375e+01	6.461266e+00	-1.253074e+00
8.321315e+01	7.471898e+00	-1.147226e+00
8.320859e+01	8.481398e+00	-1.121385e+00
8.319952e+01	9.492117e+00	-1.101471e+00
8.319952e+01	1.050843e+01	-1.101543e+00
8.320859e+01	1.151924e+01	-1.121618e+00
8.321315e+01	1.252892e+01	-1.147670e+00
8.322379e+01	1.353995e+01	-1.253920e+00
8.333774e+01	1.447789e+01	-1.475766e+00
8.326106e+01	1.543707e+01	-1.281495e+00
8.303330e+01	1.645579e+01	-1.955713e+00
8.366792e+01	1.753131e+01	-3.684957e+00
8.370837e+01	1.852976e+01	-9.025927e-01
8.401423e+01	1.890529e+01	-3.590034e+00
8.249954e+01	1.575855e+00	-2.264460e+00
8.213468e+01	1.118608e+00	-3.185749e+00
8.421511e+01	5.706987e-01	-2.576828e+00
8.408542e+01	2.663259e+00	-2.303338e+00
8.507859e+01	3.613555e+00	-1.378381e+00
8.561774e+01	5.004890e+00	-1.183307e+00
8.537348e+01	6.190447e+00	-8.945417e-01
8.534611e+01	7.257033e+00	-7.359185e-01
8.533155e+01	8.368649e+00	-6.428252e-01
8.529769e+01	9.459609e+00	-6.011999e-01
8.529767e+01	1.054078e+01	-6.012764e-01
8.533153e+01	1.163175e+01	-6.430814e-01
8.534612e+01	1.274338e+01	-7.364199e-01
8.537348e+01	1.381005e+01	-8.954675e-01
8.561725e+01	1.499550e+01	-1.185039e+00
8.507647e+01	1.638879e+01	-1.380490e+00
8.408738e+01	1.738069e+01	-2.305514e+00
8.441076e+01	1.963927e+01	-2.606883e+00
8.217519e+01	1.892826e+01	-3.205295e+00
8.250771e+01	1.844187e+01	-2.265271e+00
8.139851e+01	3.253238e-01	-2.383086e+00
8.149637e+01	1.508606e+00	-2.946629e+00
8.299789e+01	-4.286366e-01	-2.975452e+00
8.323545e+01	2.169156e+00	-4.797003e+00
8.368246e+01	3.927133e+00	-4.557578e+00
8.390958e+01	5.151512e+00	-4.310050e+00
8.402527e+01	6.275377e+00	-4.139741e+00
8.409889e+01	7.360440e+00	-4.012097e+00
8.414148e+01	8.421400e+00	-3.930253e+00
8.416042e+01	9.474418e+00	-3.891802e+00
8.416043e+01	1.052615e+01	-3.891829e+00
8.414152e+01	1.157929e+01	-3.930331e+00
8.409896e+01	1.264053e+01	-4.012191e+00
8.402537e+01	1.372619e+01	-4.139747e+00
8.391011e+01	1.485132e+01	-4.309502e+00
8.368485e+01	1.607791e+01	-4.553944e+00
8.324612e+01	1.783128e+01	-4.781142e+00
8.298915e+01	2.044651e+01	-2.999363e+00
8.150635e+01	1.847674e+01	-2.948037e+00
8.143375e+01	1.966634e+01	-2.372579e+00
8.051324e+01	1.668730e-01	-2.073183e+00
8.049235e+01	1.723649e+00	-1.760243e+00
8.160538e+01	-9.864476e-01	-2.783038e+00
8.150979e+01	1.796702e+00	-4.910098e+00
8.170512e+01	3.714042e+00	-4.888530e+00
8.187926e+01	5.073456e+00	-4.700904e+00
8.198723e+01	6.241608e+00	-4.541937e+00
8.205203e+01	7.341178e+00	-4.427831e+00
8.208931e+01	8.412424e+00	-4.355409e+00
8.210645e+01	9.471904e+00	-4.320574e+00
8.210653e+01	1.052847e+01	-4.320636e+00
8.208958e+01	1.158801e+01	-4.355610e+00
8.205259e+01	1.265936e+01	-4.428181e+00
8.198828e+01	1.375909e+01	-4.542414e+00
8.188159e+01	1.492733e+01	-4.701512e+00
8.171012e+01	1.628559e+01	-4.888163e+00
8.151653e+01	1.819425e+01	-4.909441e+00
8.160364e+01	2.098757e+01	-2.815082e+00
8.049564e+01	1.827638e+01	-1.759388e+00
8.052696e+01	1.982606e+01	-2.064862e+00
7.970795e+01	2.434388e-01	-1.686951e+00
7.952265e+01	1.340596e+00	-2.142164e+00
8.043437e+01	-1.279954e+00	-2.760902e+00
8.020736e+01	1.604209e+00	-4.858610e+00
8.029970e+01	3.567335e+00	-4.871665e+00
8.041374e+01	4.985822e+00	-4.700007e+00
8.049675e+01	6.192823e+00	-4.542971e+00
8.055034e+01	7.313972e+00	-4.427666e+00
8.058194e+01	8.398481e+00	-4.354164e+00
8.059668e+01	9.467556e+00	-4.318729e+00
8.059677e+01	1.053257e+01	-4.318821e+00
8.058224e+01	1.160162e+01	-4.354457e+00
8.055092e+01	1.268606e+01	-4.428195e+00
8.049775e+01	1.380701e+01	-4.543744e+00
8.041569e+01	1.501344e+01	-4.701222e+00
8.030302e+01	1.642991e+01	-4.872419e+00
8.020995e+01	1.838569e+01	-4.858697e+00
8.042945e+01	2.127421e+01	-2.793492e+00
7.952665e+01	1.866252e+01	-2.154306e+00
7.971725e+01	1.975249e+01	-1.689273e+00
7.883973e+01	-5.597655e-02	-1.527308e+00
7.875754e+01	1.327218e+00	-2.094569e+00
7.923194e+01	-1.445296e+00	-2.619024e+00
7.905664e+01	1.487286e+00	-4.748156e+00
7.910826e+01	3.473283e+00	-4.773193e+00
7.918446e+01	4.920851e+00	-4.602148e+00
7.924570e+01	6.151583e+00	-4.441708e+00
7.928802e+01	7.289265e+00	-4.322685e+00
7.931400e+01	8.385345e+00	-4.246549e+00
7.932636e+01	9.463380e+00	-4.209791e+00
7.932644e+01	1.053653e+01	-4.209891e+00
7.931425e+01	1.161450e+01	-4.246864e+00
7.928848e+01	1.271041e+01	-4.323236e+00
7.924645e+01	1.384772e+01	-4.442510e+00
7.918578e+01	1.507767e+01	-4.603334e+00
7.911023e+01	1.652314e+01	-4.773570e+00
7.905775e+01	1.850227e+01	-4.746952e+00
7.922852e+01	2.143553e+01	-2.649051e+00
7.876284e+01	1.866768e+01	-2.096942e+00
7.884715e+01	2.004960e+01	-1.527659e+00
7.788084e+01	1.945420e-02	-1.548022e+00
7.787199e+01	1.467465e+00	-1.852787e+00
7.811440e+01	-1.494791e+00	-2.328073e+00
7.798351e+01	1.407306e+00	-4.618723e+00
7.801614e+01	3.410319e+00	-4.652764e+00
7.806891e+01	4.874574e+00	-4.478751e+00
7.811389e+01	6.119769e+00	-4.313622e+00
7.814657e+01	7.268959e+00	-4.190564e+00
7.816736e+01	8.374112e+00	-4.111661e+00
7.817746e+01	9.459745e+00	-4.073526e+00
7.817752e+01	1.054001e+01	-4.073619e+00
7.816754e+01	1.162555e+01	-4.111944e+00
7.814691e+01	1.273049e+01	-4.191028e+00
7.811442e+01	1.387926e+01	-4.314360e+00
7.806978e+01	1.512363e+01	-4.479682e+00
7.801736e+01	1.658579e+01	-4.652317e+00
7.798412e+01	1.858196e+01	-4.616110e+00
7.811267e+01	2.148593e+01	-2.360035e+00
7.787462e+01	1.852706e+01	-1.849956e+00
7.788784e+01	1.997323e+01	-1.550124e+00
7.696492e+01	1.696386e-01	-1.351257e+00
7.692264e+01	1.451089e+00	-1.766169e+00
7.708720e+01	-1.489737e+00	-2.114357e+00
7.695420e+01	1.353047e+00	-4.490704e+00
7.697448e+01	3.368273e+00	-4.531968e+00
7.701164e+01	4.842529e+00	-4.354524e+00
7.704472e+01	6.096471e+00	-4.185087e+00
7.706963e+01	7.253325e+00	-4.058420e+00
7.708591e+01	8.365153e+00	-3.977045e+00
7.709397e+01	9.456799e+00	-3.937672e+00
7.709401e+01	1.054284e+01	-3.937739e+00
7.708604e+01	1.163440e+01	-3.977231e+00
7.706985e+01	1.274601e+01	-4.058717e+00
7.704506e+01	1.390242e+01	-4.185536e+00
7.701223e+01	1.515556e+01	-4.354990e+00
7.697534e+01	1.662772e+01	-4.530673e+00
7.695471e+01	1.863590e+01	-4.486882e+00
7.708596e+01	2.148196e+01	-2.147350e+00
7.692375e+01	1.854473e+01	-1.764091e+00
7.697036e+01	1.982166e+01	-1.350569e+00
7.602381e+01	1.273508e-01	-1.238894e+00
7.600101e+01	1.465241e+00	-1.688005e+00
7.606569e+01	-1.473970e+00	-1.967658e+00
7.594854e+01	1.321477e+00	-4.374885e+00
7.595912e+01	3.342117e+00	-4.419266e+00
7.598511e+01	4.821469e+00	-4.238420e+00
7.600943e+01	6.080241e+00	-4.065614e+00
7.602822e+01	7.241970e+00	-3.936046e+00
7.604067e+01	8.358466e+00	-3.852403e+00
7.604697e+01	9.454564e+00	-3.811915e+00
7.604700e+01	1.054501e+01	-3.811915e+00
7.604075e+01	1.164104e+01	-3.852296e+00
7.602822e+01	1.275729e+01	-3.935581e+00
7.600949e+01	1.391850e+01	-4.065128e+00
7.598542e+01	1.517646e+01	-4.237630e+00
7.595973e+01	1.665371e+01	-4.416633e+00
7.594906e+01	1.866717e+01	-4.370014e+00
7.606495e+01	2.146669e+01	-2.000878e+00
7.600234e+01	1.852968e+01	-1.683695e+00
7.602793e+01	1.986595e+01	-1.237502e+00
7.507070e+01	1.489778e-01	-1.233416e+00
7.505881e+01	1.519161e+00	-1.579776e+00
7.505113e+01	-1.438981e+00	-1.842644e+00
7.495329e+01	1.307697e+00	-4.273759e+00
7.495703e+01	3.328407e+00	-4.317055e+00
7.497483e+01	4.809070e+00	-4.132600e+00
7.499227e+01	6.070125e+00	-3.954229e+00
7.500629e+01	7.234378e+00	-3.822360e+00
7.501604e+01	8.353727e+00	-3.739816e+00
7.502089e+01	9.452965e+00	-3.698673e+00
7.502092e+01	1.054657e+01	-3.698578e+00
7.501607e+01	1.164570e+01	-3.739548e+00
7.500653e+01	1.276492e+01	-3.824398e+00
7.499251e+01	1.392878e+01	-3.955976e+00
7.497505e+01	1.518877e+01	-4.131061e+00
7.495755e+01	1.666729e+01	-4.313469e+00
7.495381e+01	1.868071e+01	-4.267933e+00
7.505055e+01	2.143236e+01	-1.876033e+00
7.505969e+01	1.847487e+01	-1.572825e+00
7.507360e+01	1.984455e+01	-1.232426e+00
7.410987e+01	1.950913e-01	-1.178131e+00
7.409639e+01	1.558780e+00	-1.477743e+00
7.404821e+01	-1.397520e+00	-1.753492e+00
7.396228e+01	1.306976e+00	-4.185787e+00
7.396128e+01	3.324271e+00	-4.225007e+00
7.397306e+01	4.803463e+00	-4.036979e+00
7.398559e+01	6.064602e+00	-3.855445e+00
7.399601e+01	7.229707e+00	-3.721532e+00
7.400339e+01	8.350647e+00	-3.638640e+00
7.400708e+01	9.451910e+00	-3.597326e+00
7.400710e+01	1.054757e+01	-3.597191e+00
7.400338e+01	1.164866e+01	-3.638596e+00
7.399620e+01	1.276956e+01	-3.725024e+00
7.398581e+01	1.393448e+01	-3.858383e+00
7.397330e+01	1.519446e+01	-4.035595e+00
7.396179e+01	1.667144e+01	-4.221124e+00
7.396283e+01	1.868130e+01	-4.179135e+00
7.404721e+01	2.139067e+01	-1.786236e+00
7.409773e+01	1.843452e+01	-1.468815e+00
7.411192e+01	1.979550e+01	-1.173916e+00
7.313150e+01	2.485137e-01	-1.139550e+00
7.313339e+01	1.600258e+00	-1.374574e+00
7.304688e+01	-1.352264e+00	-1.692224e+00
7.297296e+01	1.316292e+00	-4.109294e+00
7.296830e+01	3.327390e+00	-4.141989e+00
7.297563e+01	4.802930e+00	-3.950460e+00
7.298466e+01	6.062286e+00	-3.769396e+00
[...]
CELL_DATA 1615
SCALARS Mu double 1
LOOKUP_TABLE default
-0.388429
-0.434839
-0.445113
-0.448285
-0.449531
-0.450112
-0.450415
-0.45058
-0.450664
-0.450691
-0.450664
-0.45058
-0.450415
-0.450112
-0.449531
-0.448285
-0.445113
-0.434839
-0.388429
-0.510131
-0.594683
-0.616974
-0.624665
-0.627855
-0.629376
-0.630171
-0.630603
-0.630824
-0.630893
-0.630827
-0.630608
-0.630178
-0.629383
-0.627864
-0.624669
-0.616953
-0.594531
-0.509768
-0.565402
-0.676259
-0.708906
-0.721304
-0.726769
-0.729481
-0.73093
-0.731726
-0.732133
-0.732261
-0.732142
-0.731746
-0.730963
-0.729527
-0.726831
-0.721339
-0.708845
-0.676044
-0.567553
-0.5965
-0.724128
-0.764294
-0.780705
-0.788374
-0.792329
-0.794491
-0.79569
-0.796305
-0.796497
-0.796315
-0.795713
-0.794527
-0.792381
-0.788441
-0.780711
-0.764093
-0.72369
-0.599882
-0.616157
-0.754595
-0.800147
-0.819703
-0.829262
-0.834366
-0.837218
-0.838823
-0.839649
-0.839907
-0.839656
-0.838838
-0.837242
-0.834395
-0.829287
-0.81961
-0.799729
-0.753863
-0.620006
-0.629462
-0.77515
-0.824573
-0.846525
-0.857613
-0.863703
-0.867176
-0.869157
-0.870184
-0.870502
-0.870184
-0.869157
-0.867173
-0.863686
-0.85756
-0.846289
-0.823906
-0.774108
-0.633433
-0.63891
-0.789621
-0.841854
-0.865629
-0.87793
-0.884838
-0.888843
-0.891155
-0.892362
-0.892735
-0.892353
-0.891135
-0.888804
-0.884767
-0.877784
-0.865235
-0.840944
-0.78829
-0.642855
-0.645861
-0.800146
-0.854446
-0.879611
-0.892871
-0.900442
-0.904899
-0.907495
-0.908859
-0.909278
-0.908838
-0.907451
-0.904819
-0.900312
-0.892624
-0.879062
-0.853314
-0.798557
-0.649722
-0.651118
-0.808004
-0.863847
-0.890074
-0.904089
-0.912208
-0.917035
-0.91987
-0.921366
-0.921824
-0.921333
-0.919799
-0.916913
-0.912002
-0.903739
-0.889378
-0.86252
-0.80619
-0.654877
-0.655184
-0.813999
-0.871014
-0.898055
-0.91267
-0.921219
-0.926358
-0.929393
-0.931
-0.93149
-0.930954
-0.929291
-0.926181
-0.920941
-0.912171
-0.897221
-0.869514
-0.811993
-0.658841
-0.658388
-0.818659
-0.87657
-0.904239
-0.919324
-0.928202
-0.933353
-0.936781
-0.938511
-0.939032
-0.938454
-0.936687
-0.933422
-0.927882
-0.918774
-0.903285
-0.874921
-0.816489
-0.661948
-0.660949
-0.822338
-0.88094
-0.909098
-0.924554
-0.933726
-0.939242
-0.942613
-0.944431
-0.944972
-0.944365
-0.94251
-0.939127
-0.933362
-0.923934
-0.908042
-0.879166
-0.820031
-0.664423
-0.663021
-0.825283
-0.884419
-0.91296
-0.928706
-0.938104
-0.943837
-0.947298
-0.94915
-0.949712
-0.94908
-0.947156
-0.943615
-0.937678
-0.92802
-0.911817
-0.882541
-0.82286
-0.666419
-0.664715
-0.827667
-0.887216
-0.916056
-0.932031
-0.941591
-0.947475
-0.951026
-0.95292
-0.953498
-0.952849
-0.950851
-0.947181
-0.941111
-0.931284
-0.91484
-0.885252
-0.825147
-0.668047
-0.666097
-0.829594
-0.889464
-0.918544
-0.934709
-0.944423
-0.950403
-0.954048
-0.955985
-0.956559
-0.955888
-0.953846
-0.950085
-0.943903
-0.933924
-0.917287
-0.887452
-0.827017
-0.669388
-0.667253
-0.831199
-0.891318
-0.920587
-0.936901
-0.946741
-0.952803
-0.956494
-0.958367
-0.959029
-0.958341
-0.955882
-0.952377
-0.946158
-0.93607
-0.919281
-0.889251
-0.828559
-0.670503
-0.668225
-0.832528
-0.892849
-0.922268
-0.938724
-0.948632
-0.95476
-0.958469
-0.960483
-0.961076
-0.960326
-0.958144
-0.954299
-0.947591
-0.937793
-0.920911
-0.890737
-0.829835
-0.671435
-0.669047
-0.833641
-0.894119
-0.923653
-0.940183
-0.950182
-0.956367
-0.960143
-0.962458
-0.963208
-0.962042
-0.959854
-0.955938
-0.949468
-0.93926
-0.922276
-0.89198
-0.830914
-0.672233
-0.669767
-0.834672
-0.895229
-0.924909
-0.941505
-0.951463
-0.957689
-0.96148
-0.963593
-0.96431
-0.963546
-0.961351
-0.957315
-0.950829
-0.940496
-0.923416
-0.893019
-0.831825
-0.672916
-0.670312
-0.835344
-0.896019
-0.925722
-0.942395
-0.952498
-0.958791
-0.962623
-0.964705
-0.965348
-0.964681
-0.962445
-0.958452
-0.951955
-0.941544
-0.924384
-0.893894
-0.832588
-0.673485
-0.670778
-0.835965
-0.896752
-0.926487
-0.943239
-0.953408
-0.959746
-0.963602
-0.965689
-0.966309
-0.965575
-0.963436
-0.959372
-0.952866
-0.942406
-0.9252
-0.894666
-0.833238
-0.673966
-0.671201
-0.836527
-0.897403
-0.927221
-0.943991
-0.954198
-0.960565
-0.964442
-0.966536
-0.96716
-0.966427
-0.964225
-0.960186
-0.953631
-0.94313
-0.925872
-0.895265
-0.833767
-0.674364
-0.671574
-0.837024
-0.897976
-0.927847
-0.944655
-0.954893
-0.961277
-0.965168
-0.967284
-0.96792
-0.96719
-0.964957
-0.96089
-0.954257
-0.943745
-0.926479
-0.895817
-0.834246
-0.674719
-0.671901
-0.837465
-0.898476
-0.928371
-0.945229
-0.955506
-0.961918
-0.965836
-0.967943
-0.9686
-0.967847
-0.965649
-0.961531
-0.954898
-0.944353
-0.927025
-0.896261
-0.834667
-0.67503
-0.672181
-0.837848
-0.89886
-0.928876
-0.945762
-0.956053
-0.96248
-0.966416
-0.968528
-0.96916
-0.968423
-0.96618
-0.96197
-0.955345
-0.944872
-0.92751
-0.896732
-0.835035
-0.675302
-0.672432
-0.838191
-0.899304
-0.929302
-0.946225
-0.956537
-0.962983
-0.966931
-0.969046
-0.969698
-0.968958
-0.966693
-0.962563
-0.955913
-0.945337
-0.927944
-0.897097
-0.835372
-0.675543
-0.67265
-0.838473
-0.899433
-0.929681
-0.946642
-0.956974
-0.963416
-0.967382
-0.969528
-0.970182
-0.969434
-0.967162
-0.963034
-0.95637
-0.945756
-0.928334
-0.897476
-0.835673
-0.675758
-0.672843
-0.838734
-0.899801
-0.930017
-0.94701
-0.957366
-0.963823
-0.96782
-0.969982
-0.970669
-0.969866
-0.967549
-0.963444
-0.956781
-0.946143
-0.928686
-0.89776
-0.835933
-0.675947
-0.673019
-0.838981
-0.900132
-0.930327
-0.947327
-0.957681
-0.964209
-0.968202
-0.970361
-0.971052
-0.970207
-0.967921
-0.963822
-0.957088
-0.946483
-0.928995
-0.898061
-0.836171
-0.676117
-0.673184
-0.839214
-0.900475
-0.930633
-0.947652
-0.958038
-0.964544
-0.968532
-0.9707
-0.971412
-0.970585
-0.968296
-0.964105
-0.957431
-0.946776
-0.929278
-0.898315
-0.836391
-0.676271
-0.673336
-0.839438
-0.900733
-0.930907
-0.947952
-0.958539
-0.96489
-0.96909
-0.971099
-0.971747
-0.971032
-0.968664
-0.964525
-0.957764
-0.947021
-0.929528
-0.898543
-0.836589
-0.676412
-0.673093
-0.832934
-0.900547
-0.931022
-0.948003
-0.95862
-0.965148
-0.969415
-0.971412
-0.972045
-0.971313
-0.969027
-0.965407
-0.958068
-0.947317
-0.929762
-0.898751
-0.83677
-0.676538
-0.673109
-0.838233
-0.900522
-0.931105
-0.948293
-0.958806
-0.965382
-0.969683
-0.971677
-0.972301
-0.971567
-0.969306
-0.965783
-0.95836
-0.947568
-0.929975
-0.898935
-0.83693
-0.676652
-0.673397
-0.839334
-0.900867
-0.931315
-0.948502
-0.959012
-0.965615
-0.970051
-0.972024
-0.97254
-0.971793
-0.969506
-0.96541
-0.958569
-0.947775
-0.930156
-0.899072
-0.83707
-0.676757
-0.673604
-0.839754
-0.901216
-0.931532
-0.948696
-0.959212
-0.965862
-0.970156
-0.972154
-0.972747
-0.971998
-0.969691
-0.965496
-0.958798
-0.947957
-0.930312
-0.899211
-0.837196
-0.676852
-0.673756
-0.839992
-0.901407
-0.931681
-0.948861
-0.959426
-0.966021
-0.970411
-0.972329
-0.972929
-0.972154
-0.969843
-0.965629
-0.958887
-0.948089
-0.930449
-0.899337
-0.83731
-0.676936
-0.673875
-0.840163
-0.901591
-0.931873
-0.949026
-0.959545
-0.966179
-0.970492
-0.972491
-0.973094
-0.972311
-0.970005
-0.965796
-0.959061
-0.948218
-0.930574
-0.899452
-0.83741
-0.677013
-0.673972
-0.840299
-0.90173
-0.932019
-0.949157
-0.959648
-0.966291
-0.970629
-0.972706
-0.973241
-0.972472
-0.970159
-0.965913
-0.959131
-0.948335
-0.93073
-0.899558
-0.837505
-0.677083
-0.674055
-0.840414
-0.901851
-0.932148
-0.949367
-0.959803
-0.966422
-0.970753
-0.972774
-0.973387
-0.972691
-0.970305
-0.966032
-0.95925
-0.948466
-0.930802
-0.899682
-0.837596
-0.677151
-0.67413
-0.840515
-0.901958
-0.932259
-0.94945
-0.959925
-0.966547
-0.97095
-0.972724
-0.973462
-0.972732
-0.970365
-0.96615
-0.959404
-0.948576
-0.930894
-0.899772
-0.837678
-0.677212
-0.674198
-0.840603
-0.90205
-0.932345
-0.94942
-0.960026
-0.966664
-0.970992
-0.972961
-0.973695
-0.972848
-0.970146
-0.966318
-0.959473
-0.948614
-0.930956
-0.899821
-0.837742
-0.677265
-0.674258
-0.84068
-0.902131
-0.932425
-0.949485
-0.960115
-0.966749
-0.971085
-0.973081
-0.973718
-0.972906
-0.970484
-0.966326
-0.959536
-0.948734
-0.93109
-0.899936
-0.83783
-0.677332
-0.67431
-0.84075
-0.902206
-0.932504
-0.949582
-0.96021
-0.967018
-0.971233
-0.973196
-0.973804
-0.973005
-0.970645
-0.966413
-0.959631
-0.948933
-0.93116
-0.900019
-0.837902
-0.677385
-0.674361
-0.840818
-0.902278
-0.932589
-0.949749
-0.960329
-0.966975
-0.971287
-0.973286
-0.973891
-0.973088
-0.970748
-0.966503
-0.959712
-0.948919
-0.931231
-0.90009
-0.837968
-0.677434
-0.674408
-0.84088
-0.902346
-0.932665
-0.949841
-0.960414
-0.967024
-0.97135
-0.973367
-0.974031
-0.97314
-0.970837
-0.966663
-0.959791
-0.948975
-0.931295
-0.900155
-0.838031
-0.67748
-0.67445
-0.840931
-0.902395
-0.932701
-0.949911
-0.960555
-0.967096
-0.971419
-0.973434
-0.974045
-0.973248
-0.970958
-0.966758
-0.959867
-0.949038
-0.931354
-0.900214
-0.838086
-0.677522
-0.674494
-0.840983
-0.902448
-0.932754
-0.949967
-0.960535
-0.967169
-0.971481
-0.973485
-0.974101
-0.973326
-0.971033
-0.966759
-0.959927
-0.949097
-0.931411
-0.900268
-0.838137
-0.677563
-0.674532
-0.841035
-0.902512
-0.932835
-0.950032
-0.96057
-0.96722
-0.971574
-0.973597
-0.974172
-0.973392
-0.971098
-0.966815
-0.959977
-0.949151
-0.931465
-0.90032
-0.838186
-0.677601
-0.674563
-0.841077
-0.902561
-0.932881
-0.949981
-0.960609
-0.967262
-0.971636
-0.973667
-0.974236
-0.973453
-0.971158
-0.966875
-0.960066
-0.949221
-0.931526
-0.90037
-0.838231
-0.677636
-0.674597
-0.841121
-0.902607
-0.932929
-0.950109
-0.960653
-0.967309
-0.971687
-0.973721
-0.974284
-0.973456
-0.97113
-0.966912
-0.960116
-0.949275
-0.931577
-0.900417
-0.838273
-0.677668
-0.674628
-0.841162
-0.90265
-0.932977
-0.95017
-0.960703
-0.967357
-0.971735
-0.973766
-0.974328
-0.973492
-0.971168
-0.967092
-0.960134
-0.949308
-0.931614
-0.900459
-0.838313
-0.677699
-0.674656
-0.8412
-0.902692
-0.933023
-0.950252
-0.960752
-0.967403
-0.971781
-0.973811
-0.974371
-0.973531
-0.971212
-0.967153
-0.960184
-0.949349
-0.931655
-0.900498
-0.83835
-0.677728
-0.674684
-0.841236
-0.902732
-0.933066
-0.950302
-0.960796
-0.967442
-0.971794
-0.973849
-0.974408
-0.973574
-0.971267
-0.967281
-0.960261
-0.949395
-0.931694
-0.900536
-0.838385
-0.677755
-0.67471
-0.84127
-0.90277
-0.933108
-0.950345
-0.960838
-0.967482
-0.971834
-0.973904
-0.974506
-0.973629
-0.97135
-0.967322
-0.960292
-0.949434
-0.931732
-0.900572
-0.838419
-0.677781
-0.674735
-0.841302
-0.902806
-0.933151
-0.950391
-0.960933
-0.967553
-0.971876
-0.973897
-0.974498
-0.973663
-0.97135
-0.967205
-0.960267
-0.949464
-0.931766
-0.900606
-0.83845
-0.677805
-0.674759
-0.841335
-0.902839
-0.933187
-0.950428
-0.960939
-0.967594
-0.971912
-0.973932
-0.974602
-0.973733
-0.971418
-0.967176
-0.960304
-0.949493
-0.931798
-0.900637
-0.838479
-0.677828
-0.674781
-0.841364
-0.90287
-0.933216
-0.950411
-0.960962
-0.967628
-0.971945
-0.973957
-0.974573
-0.973748
-0.971466
-0.967192
-0.960335
-0.949592
-0.931833
-0.900668
-0.838507
-0.67785
-0.674804
-0.84139
-0.902899
-0.933245
-0.950432
-0.96099
-0.967662
-0.972023
-0.973995
-0.974628
-0.973778
-0.971495
-0.96722
-0.960368
-0.949636
-0.931868
-0.900698
-0.838534
-0.677869
-0.674824
-0.841417
-0.902924
-0.933269
-0.950456
-0.961015
-0.96769
-0.97206
-0.97402
-0.97463
-0.973798
-0.971486
-0.967243
-0.960397
-0.949669
-0.931899
-0.900726
-0.838559
-0.677889
-0.674839
-0.841437
-0.902946
-0.933288
-0.950481
-0.961041
-0.967719
-0.972119
-0.974049
-0.974651
-0.973817
-0.971502
-0.967263
-0.960396
-0.949697
-0.931927
-0.900752
-0.838583
-0.677907
-0.674856
-0.841458
-0.90297
-0.933315
-0.950521
-0.961071
-0.96775
-0.972159
-0.974092
-0.974728
-0.973845
-0.971524
-0.967276
-0.960413
-0.949721
-0.931953
-0.900777
-0.838606
-0.677925
-0.674876
-0.841481
-0.902995
-0.93334
-0.95055
-0.961098
-0.967774
-0.97216
-0.974122
-0.974765
-0.973875
-0.971551
-0.967298
-0.960435
-0.949745
-0.931976
-0.9008
-0.838627
-0.677942
-0.67489
-0.841502
-0.903017
-0.933365
-0.950565
-0.961167
-0.967803
-0.972182
-0.974148
-0.974794
-0.973902
-0.971577
-0.967322
-0.960459
-0.949779
-0.932001
-0.900822
-0.838648
-0.677958
-0.674906
-0.841521
-0.903038
-0.933388
-0.950589
-0.961201
-0.967837
-0.972208
-0.974173
-0.974819
-0.973926
-0.9716
-0.967343
-0.960476
-0.949733
-0.932018
-0.900842
-0.838667
-0.677973
-0.674921
-0.841543
-0.903059
-0.933409
-0.950609
-0.961185
-0.967865
-0.972259
-0.974629
-0.974899
-0.973964
-0.971643
-0.967457
-0.961978
-0.949833
-0.932052
-0.900866
-0.838687
-0.677988
-0.674935
-0.841562
-0.903079
-0.93343
-0.950629
-0.961202
-0.967896
-0.972312
-0.974752
-0.97497
-0.974015
-0.971713
-0.967635
-0.962331
-0.949975
-0.93211
-0.900898
-0.83871
-0.678004
-0.674949
-0.841579
-0.903098
-0.93345
-0.950651
-0.961225
-0.967926
-0.972352
-0.97481
-0.975024
-0.974065
-0.971777
-0.967727
-0.962467
-0.950076
-0.932165
-0.900932
-0.838734
-0.678021
-0.674962
-0.841596
-0.903116
-0.933469
-0.950671
-0.961246
-0.967948
-0.972359
-0.974421
-0.975038
-0.974101
-0.971824
-0.96779
-0.962543
-0.950139
-0.932207
-0.900963
-0.838762
-0.678038
-0.674975
-0.841612
-0.903133
-0.933486
-0.950689
-0.961264
-0.967961
-0.972357
-0.974359
-0.975035
-0.974123
-0.971858
-0.967834
-0.962594
-0.950183
-0.932241
-0.90099
-0.838784
-0.678053
-0.674986
-0.841627
-0.903149
-0.933503
-0.950705
-0.961279
-0.967973
-0.972365
-0.974354
-0.97504
-0.974142
-0.971885
-0.967867
-0.962631
-0.950216
-0.932268
-0.901014
-0.838804
-0.678068
-0.674997
-0.841641
-0.903165
-0.933518
-0.950721
-0.961294
-0.967986
-0.972376
-0.974362
-0.975054
-0.974169
-0.971909
-0.967894
-0.962661
-0.950243
-0.932292
-0.901035
-0.838822
-0.678081
-0.675008
-0.841655
-0.903179
-0.933533
-0.950736
-0.961309
-0.968
-0.972387
-0.974374
-0.975071
-0.974192
-0.971931
-0.967917
-0.962685
-0.950266
-0.932312
-0.901055
-0.838839
-0.678093
-0.675018
-0.841668
-0.903193
-0.933548
-0.950752
-0.961333
-0.968121
-0.97241
-0.97439
-0.975087
-0.97421
-0.971949
-0.967937
-0.962707
-0.950286
-0.93233
-0.901072
-0.838854
-0.678105
-0.675028
-0.841681
-0.903207
-0.933563
-0.950769
-0.961355
-0.96816
-0.972434
-0.974407
-0.975103
-0.974227
-0.971966
-0.967955
-0.962726
-0.950303
-0.932346
-0.901087
-0.838868
-0.678116
-0.675038
-0.841693
-0.90322
-0.933577
-0.950785
-0.961373
-0.968182
-0.972453
-0.974424
-0.975119
-0.974243
-0.971982
-0.967971
-0.962743
-0.95032
-0.932361
-0.901101
-0.838881
-0.678126
-0.675047
-0.841705
-0.903233
-0.933591
-0.950799
-0.961389
-0.968199
-0.97247
-0.974439
-0.975134
-0.974257
-0.971997
-0.967987
-0.962759
-0.950334
-0.932375
-0.901114
-0.838893
-0.678135
-0.675056
-0.841716
-0.903245
-0.933603
-0.950813
-0.961403
-0.968214
-0.972485
-0.974453
-0.975148
-0.974271
-0.97201
-0.968001
-0.962773
-0.950348
-0.932388
-0.901127
-0.838904
-0.678144
-0.675064
-0.841727
-0.903257
-0.933616
-0.950826
-0.961416
-0.968228
-0.972498
-0.974466
-0.975161
-0.974285
-0.972023
-0.968014
-0.962787
-0.950361
-0.9324
-0.901138
-0.838915
-0.678152
-0.675072
-0.841737
-0.903268
-0.933627
-0.950838
-0.961429
-0.968241
-0.972511
-0.974479
-0.975174
-0.974297
-0.972036
-0.968029
-0.962815
-0.950376
-0.932412
-0.901149
-0.838925
-0.67816
-0.67508
-0.841747
-0.903278
-0.933638
-0.950849
-0.96144
-0.968253
-0.972523
-0.974491
-0.975186
-0.974309
-0.972048
-0.968044
-0.962833
-0.950397
-0.932556
-0.901167
-0.838936
-0.678168
-0.675088
-0.841757
-0.903289
-0.933649
-0.95086
-0.961452
-0.968264
-0.972535
-0.974504
-0.975203
-0.974349
-0.972065
-0.968058
-0.962849
-0.950411
-0.932463
-0.901181
-0.838947
-0.678176
-0.675095
-0.841766
-0.903299
-0.933659
-0.950871
-0.961463
-0.968276
-0.972546
-0.974516
-0.975217
-0.974367
-0.972079
-0.96807
-0.962859
-0.950418
-0.932455
-0.901187
-0.838956
-0.678183
-0.675102
-0.841775
-0.903308
-0.933669
-0.95088
-0.961472
-0.968281
-0.972509
-0.974521
-0.975227
-0.97438
-0.972092
-0.968082
-0.96287
-0.950427
-0.93246
-0.901193
-0.838964
-0.67819
-0.675109
-0.841783
-0.903317
-0.933678
-0.950889
-0.96148
-0.968287
-0.972508
-0.974527
-0.975237
-0.974391
-0.972103
-0.968092
-0.96288
-0.950439
-0.932468
-0.901201
-0.838972
-0.678196

