# vtk DataFile Version 2.0
OUTPUT by 3D-VPM
ASCII
DATASET UNSTRUCTURED_GRID
POINTS 780 double
3.713553e+01	9.991524e-01	-9.571077e-01
3.769661e+01	1.133691e+00	-1.412001e+00
3.732551e+01	2.374286e+00	-1.388295e+00
3.727913e+01	3.354727e+00	-9.742452e-01
3.736358e+01	4.342824e+00	-8.697631e-01
3.734241e+01	5.351450e+00	-8.140064e-01
3.732686e+01	6.372329e+00	-7.569148e-01
3.732010e+01	7.403185e+00	-7.219875e-01
3.731500e+01	8.439942e+00	-7.014057e-01
3.731251e+01	9.479616e+00	-6.915117e-01
3.731251e+01	1.052036e+01	-6.915168e-01
3.731501e+01	1.156003e+01	-7.014198e-01
3.732010e+01	1.259678e+01	-7.220046e-01
3.732688e+01	1.362761e+01	-7.569201e-01
3.734245e+01	1.464847e+01	-8.139759e-01
3.736367e+01	1.565705e+01	-8.696673e-01
3.727944e+01	1.664514e+01	-9.740172e-01
3.732615e+01	1.762551e+01	-1.387598e+00
3.769807e+01	1.886747e+01	-1.411543e+00
3.713575e+01	1.900096e+01	-9.497646e-01
3.712755e+01	3.419780e-01	-1.228698e+00
3.804468e+01	1.298117e-01	-1.568191e+00
3.836716e+01	2.032439e+00	-1.166416e+00
3.839287e+01	3.046496e+00	-8.362830e-01
3.846703e+01	4.153016e+00	-6.897216e-01
3.844747e+01	5.232989e+00	-5.637792e-01
3.843329e+01	6.295000e+00	-4.841952e-01
3.842441e+01	7.355069e+00	-4.361818e-01
3.841860e+01	8.413574e+00	-4.083191e-01
3.841590e+01	9.471184e+00	-3.954485e-01
3.841590e+01	1.052879e+01	-3.954415e-01
3.841859e+01	1.158640e+01	-4.082981e-01
3.842440e+01	1.264488e+01	-4.361441e-01
3.843329e+01	1.370493e+01	-4.841341e-01
3.844750e+01	1.476688e+01	-5.637149e-01
3.846716e+01	1.584676e+01	-6.896887e-01
3.839333e+01	1.695316e+01	-8.362614e-01
3.836767e+01	1.796728e+01	-1.165637e+00
3.804590e+01	1.986924e+01	-1.566747e+00
3.712833e+01	1.965727e+01	-1.232206e+00
3.576120e+01	4.867236e-01	-1.474243e+00
3.626145e+01	-5.166077e-01	-1.340369e+00
3.661704e+01	1.622609e+00	-2.836926e+00
3.683860e+01	3.056965e+00	-2.672678e+00
3.695672e+01	4.185326e+00	-2.501670e+00
3.701262e+01	5.258863e+00	-2.386921e+00
3.704325e+01	6.317541e+00	-2.308577e+00
3.706001e+01	7.370717e+00	-2.258122e+00
3.706875e+01	8.422567e+00	-2.228315e+00
3.707264e+01	9.474118e+00	-2.214454e+00
3.707264e+01	1.052583e+01	-2.214468e+00
3.706877e+01	1.157738e+01	-2.228361e+00
3.706003e+01	1.262921e+01	-2.258205e+00
3.704326e+01	1.368235e+01	-2.308710e+00
3.701265e+01	1.474095e+01	-2.387156e+00
3.695689e+01	1.581435e+01	-2.501973e+00
3.683927e+01	1.694253e+01	-2.672711e+00
3.661775e+01	1.837629e+01	-2.836400e+00
3.626586e+01	2.051769e+01	-1.339661e+00
3.576174e+01	1.951717e+01	-1.475105e+00
3.482945e+01	5.531457e-01	-1.154420e+00
3.523000e+01	-6.184604e-01	-1.120435e+00
3.521197e+01	1.373809e+00	-2.942545e+00
3.531326e+01	2.951463e+00	-2.879870e+00
3.539476e+01	4.149846e+00	-2.727610e+00
3.544065e+01	5.245764e+00	-2.611862e+00
3.546579e+01	6.312077e+00	-2.533194e+00
3.547967e+01	7.368688e+00	-2.482212e+00
3.548702e+01	8.421922e+00	-2.451815e+00
3.549030e+01	9.473973e+00	-2.437674e+00
3.549031e+01	1.052595e+01	-2.437720e+00
3.548706e+01	1.157799e+01	-2.451964e+00
3.547974e+01	1.263120e+01	-2.482493e+00
3.546590e+01	1.368776e+01	-2.533657e+00
3.544087e+01	1.475397e+01	-2.612647e+00
3.539520e+01	1.584971e+01	-2.728558e+00
3.531413e+01	1.704761e+01	-2.880164e+00
3.521274e+01	1.862341e+01	-2.941841e+00
3.523569e+01	2.062756e+01	-1.120954e+00
3.483128e+01	1.945658e+01	-1.153093e+00
3.391750e+01	4.679758e-01	-1.014861e+00
3.417524e+01	-7.209304e-01	-1.026691e+00
3.407932e+01	1.254792e+00	-2.875133e+00
3.411984e+01	2.886301e+00	-2.839298e+00
3.417134e+01	4.117513e+00	-2.684528e+00
3.420591e+01	5.230163e+00	-2.562953e+00
3.422678e+01	6.304362e+00	-2.479490e+00
3.423889e+01	7.364879e+00	-2.425152e+00
3.424553e+01	8.420184e+00	-2.392655e+00
3.424853e+01	9.473466e+00	-2.377509e+00
3.424853e+01	1.052643e+01	-2.377565e+00
3.424554e+01	1.157969e+01	-2.392836e+00
3.423892e+01	1.263496e+01	-2.425498e+00
3.422683e+01	1.369541e+01	-2.480064e+00
3.420603e+01	1.476949e+01	-2.563934e+00
3.417164e+01	1.588192e+01	-2.685610e+00
3.412049e+01	1.711233e+01	-2.839053e+00
3.407979e+01	1.874040e+01	-2.873634e+00
3.417779e+01	2.073302e+01	-1.027211e+00
3.391923e+01	1.954581e+01	-1.014797e+00
3.298539e+01	4.745384e-01	-9.646843e-01
3.314241e+01	-7.195501e-01	-9.127627e-01
3.303555e+01	1.206206e+00	-2.779244e+00
3.304820e+01	2.851516e+00	-2.746473e+00
3.308055e+01	4.096039e+00	-2.586552e+00
3.310587e+01	5.217586e+00	-2.460089e+00
3.312272e+01	6.297205e+00	-2.373000e+00
3.313318e+01	7.360946e+00	-2.316146e+00
3.313916e+01	8.418234e+00	-2.282083e+00
3.314193e+01	9.472874e+00	-2.266182e+00
3.314193e+01	1.052700e+01	-2.266239e+00
3.313916e+01	1.158162e+01	-2.282265e+00
3.313318e+01	1.263887e+01	-2.316490e+00
3.312272e+01	1.370253e+01	-2.373551e+00
3.310589e+01	1.478202e+01	-2.460999e+00
3.308072e+01	1.590332e+01	-2.587327e+00
3.304866e+01	1.714678e+01	-2.745215e+00
3.303582e+01	1.878777e+01	-2.776485e+00
3.314376e+01	2.073189e+01	-9.116452e-01
3.298672e+01	1.953877e+01	-9.644268e-01
3.204571e+01	5.031377e-01	-8.905174e-01
3.214028e+01	-6.996940e-01	-8.383533e-01
3.202467e+01	1.192909e+00	-2.682126e+00
3.202414e+01	2.836315e+00	-2.645540e+00
3.204454e+01	4.083694e+00	-2.481247e+00
3.206284e+01	5.208817e+00	-2.351470e+00
3.207607e+01	6.291461e+00	-2.262013e+00
3.208477e+01	7.357453e+00	-2.203496e+00
3.208997e+01	8.416378e+00	-2.168392e+00
3.209244e+01	9.472292e+00	-2.151984e+00
3.209244e+01	1.052758e+01	-2.152035e+00
3.208996e+01	1.158347e+01	-2.168557e+00
3.208476e+01	1.264235e+01	-2.203797e+00
3.207604e+01	1.370827e+01	-2.262486e+00
3.206282e+01	1.479079e+01	-2.352198e+00
3.204464e+01	1.591564e+01	-2.481539e+00
3.202452e+01	1.716177e+01	-2.643215e+00
3.202499e+01	1.880033e+01	-2.678050e+00
3.214106e+01	2.071246e+01	-8.371639e-01
3.204680e+01	1.951032e+01	-8.887648e-01
3.109259e+01	5.158835e-01	-8.244732e-01
3.114332e+01	-6.822417e-01	-8.050741e-01
3.102728e+01	1.202413e+00	-2.592895e+00
3.101902e+01	2.833767e+00	-2.548556e+00
3.103176e+01	4.078186e+00	-2.381373e+00
3.104494e+01	5.203563e+00	-2.249852e+00
3.105514e+01	6.287417e+00	-2.159173e+00
3.106218e+01	7.354727e+00	-2.099770e+00
3.106653e+01	8.414835e+00	-2.064073e+00
3.106865e+01	9.471795e+00	-2.047367e+00
3.106865e+01	1.052807e+01	-2.047411e+00
3.106652e+01	1.158502e+01	-2.064209e+00
3.106216e+01	1.264508e+01	-2.100007e+00
3.105510e+01	1.371232e+01	-2.159572e+00
3.104492e+01	1.479605e+01	-2.250395e+00
3.103185e+01	1.592114e+01	-2.381180e+00
3.101941e+01	1.716419e+01	-2.545319e+00
3.102774e+01	1.879033e+01	-2.587679e+00
3.114344e+01	2.069521e+01	-8.042162e-01
3.109329e+01	1.949801e+01	-8.222741e-01
3.012735e+01	5.256629e-01	-7.687811e-01
3.014638e+01	-6.653218e-01	-8.002953e-01
3.003411e+01	1.227413e+00	-2.513009e+00
3.002125e+01	2.839623e+00	-2.458245e+00
3.002896e+01	4.077572e+00	-2.289541e+00
3.003845e+01	5.201174e+00	-2.157690e+00
3.004624e+01	6.284983e+00	-2.066832e+00
3.005183e+01	7.352861e+00	-2.007203e+00
3.005538e+01	8.413701e+00	-1.971301e+00
3.005715e+01	9.471419e+00	-1.954474e+00
3.005714e+01	1.052845e+01	-1.954505e+00
3.005537e+01	1.158615e+01	-1.971390e+00
3.005181e+01	1.264696e+01	-2.007359e+00
3.004620e+01	1.371476e+01	-2.067093e+00
3.003843e+01	1.479846e+01	-2.158006e+00
3.002906e+01	1.592176e+01	-2.288932e+00
3.002167e+01	1.715827e+01	-2.454298e+00
3.003469e+01	1.876501e+01	-2.506830e+00
3.014602e+01	2.067825e+01	-7.998816e-01
3.012765e+01	1.948824e+01	-7.664886e-01
2.915280e+01	5.322179e-01	-7.172985e-01
2.914889e+01	-6.481920e-01	-8.166295e-01
2.904142e+01	1.262535e+00	-2.440863e+00
2.902598e+01	2.851002e+00	-2.374443e+00
2.903035e+01	4.080350e+00	-2.205407e+00
2.903722e+01	5.200948e+00	-2.074391e+00
2.904317e+01	6.283889e+00	-1.984272e+00
2.904757e+01	7.351789e+00	-1.924998e+00
2.905041e+01	8.412983e+00	-1.889146e+00
2.905185e+01	9.471171e+00	-1.872325e+00
2.905185e+01	1.052871e+01	-1.872328e+00
2.905041e+01	1.158689e+01	-1.889120e+00
2.904755e+01	1.264804e+01	-1.924867e+00
2.904314e+01	1.371585e+01	-1.984177e+00
2.903722e+01	1.479868e+01	-2.074187e+00
2.903047e+01	1.591897e+01	-2.204210e+00
2.902643e+01	1.714688e+01	-2.369942e+00
2.904211e+01	1.872973e+01	-2.433854e+00
2.914821e+01	2.066096e+01	-8.167810e-01
2.915274e+01	1.948167e+01	-7.150658e-01
2.817118e+01	5.345326e-01	-6.696024e-01
2.815040e+01	-6.291294e-01	-8.485054e-01
2.804799e+01	1.304130e+00	-2.374495e+00
2.803121e+01	2.865906e+00	-2.296160e+00
2.803337e+01	4.085411e+00	-2.127794e+00
2.803840e+01	5.202293e+00	-1.998441e+00
2.804299e+01	6.283899e+00	-1.908641e+00
2.804644e+01	7.351419e+00	-1.850167e+00
2.804868e+01	8.412625e+00	-1.815726e+00
2.804985e+01	9.471037e+00	-1.799131e+00
2.804985e+01	1.052885e+01	-1.799097e+00
2.804868e+01	1.158725e+01	-1.815635e+00
2.804640e+01	1.264845e+01	-1.850961e+00
2.804294e+01	1.371588e+01	-1.909376e+00
2.803842e+01	1.479734e+01	-1.997933e+00
2.803352e+01	1.591391e+01	-2.126208e+00
2.803168e+01	1.713199e+01	-2.291223e+00
2.804875e+01	1.868810e+01	-2.366771e+00
2.814949e+01	2.064162e+01	-8.492741e-01
2.817080e+01	1.947934e+01	-6.676474e-01
2.718430e+01	5.330489e-01	-6.253742e-01
2.715094e+01	-6.062076e-01	-8.914523e-01
2.705347e+01	1.349713e+00	-2.312190e+00
2.703615e+01	2.882974e+00	-2.222295e+00
2.703689e+01	4.091956e+00	-2.055414e+00
2.704061e+01	5.204749e+00	-1.928423e+00
2.704419e+01	6.284716e+00	-1.840141e+00
2.704693e+01	7.351530e+00	-1.782699e+00
2.704870e+01	8.412562e+00	-1.749206e+00
2.704964e+01	9.471007e+00	-1.733053e+00
2.704963e+01	1.052889e+01	-1.733004e+00
2.704869e+01	1.158730e+01	-1.749199e+00
2.704687e+01	1.264833e+01	-1.784026e+00
2.704414e+01	1.371512e+01	-1.841313e+00
2.704064e+01	1.479491e+01	-1.927981e+00
2.703705e+01	1.590741e+01	-2.053745e+00
2.703663e+01	1.711498e+01	-2.217054e+00
2.705429e+01	1.864259e+01	-2.303864e+00
2.714986e+01	2.061833e+01	-8.928436e-01
2.718366e+01	1.948075e+01	-6.238562e-01
2.619355e+01	5.280803e-01	-5.842274e-01
2.615070e+01	-5.779115e-01	-9.419713e-01
2.605790e+01	1.397555e+00	-2.252589e+00
2.604056e+01	2.901270e+00	-2.151899e+00
2.604039e+01	4.099412e+00	-1.987204e+00
2.604320e+01	5.207932e+00	-1.863115e+00
2.604602e+01	6.286020e+00	-1.777923e+00
[...]
CELL_DATA 722
SCALARS Mu double 1
LOOKUP_TABLE default
-0.388429
-0.434839
-0.445113
-0.448285
-0.449531
-0.450112
-0.450415
-0.45058
-0.450664
-0.450691
-0.450664
-0.45058
-0.450415
-0.450112
-0.449531
-0.448285
-0.445113
-0.434839
-0.388429
-0.510131
-0.594683
-0.616974
-0.624665
-0.627855
-0.629376
-0.630171
-0.630603
-0.630824
-0.630893
-0.630827
-0.630608
-0.630178
-0.629383
-0.627864
-0.624669
-0.616953
-0.594531
-0.509768
-0.565402
-0.676259
-0.708906
-0.721304
-0.726769
-0.729481
-0.73093
-0.731726
-0.732133
-0.732261
-0.732142
-0.731746
-0.730963
-0.729527
-0.726831
-0.721339
-0.708845
-0.676044
-0.567553
-0.5965
-0.724128
-0.764294
-0.780705
-0.788374
-0.792329
-0.794491
-0.79569
-0.796305
-0.796497
-0.796315
-0.795713
-0.794527
-0.792381
-0.788441
-0.780711
-0.764093
-0.72369
-0.599882
-0.616157
-0.754595
-0.800147
-0.819703
-0.829262
-0.834366
-0.837218
-0.838823
-0.839649
-0.839907
-0.839656
-0.838838
-0.837242
-0.834395
-0.829287
-0.81961
-0.799729
-0.753863
-0.620006
-0.629462
-0.77515
-0.824573
-0.846525
-0.857613
-0.863703
-0.867176
-0.869157
-0.870184
-0.870502
-0.870184
-0.869157
-0.867173
-0.863686
-0.85756
-0.846289
-0.823906
-0.774108
-0.633433
-0.63891
-0.789621
-0.841854
-0.865629
-0.87793
-0.884838
-0.888843
-0.891155
-0.892362
-0.892735
-0.892353
-0.891135
-0.888804
-0.884767
-0.877784
-0.865235
-0.840944
-0.78829
-0.642855
-0.645861
-0.800146
-0.854446
-0.879611
-0.892871
-0.900442
-0.904899
-0.907495
-0.908859
-0.909278
-0.908838
-0.907451
-0.904819
-0.900312
-0.892624
-0.879062
-0.853314
-0.798557
-0.649722
-0.651118
-0.808004
-0.863847
-0.890074
-0.904089
-0.912208
-0.917035
-0.91987
-0.921366
-0.921824
-0.921333
-0.919799
-0.916913
-0.912002
-0.903739
-0.889378
-0.86252
-0.80619
-0.654877
-0.655184
-0.813999
-0.871014
-0.898055
-0.91267
-0.921219
-0.926358
-0.929393
-0.931
-0.93149
-0.930954
-0.929291
-0.926181
-0.920941
-0.912171
-0.897221
-0.869514
-0.811993
-0.658841
-0.658388
-0.818659
-0.87657
-0.904239
-0.919324
-0.928202
-0.933353
-0.936781
-0.938511
-0.939032
-0.938454
-0.936687
-0.933422
-0.927882
-0.918774
-0.903285
-0.874921
-0.816489
-0.661948
-0.660949
-0.822338
-0.88094
-0.909098
-0.924554
-0.933726
-0.939242
-0.942613
-0.944431
-0.944972
-0.944365
-0.94251
-0.939127
-0.933362
-0.923934
-0.908042
-0.879166
-0.820031
-0.664423
-0.663021
-0.825283
-0.884419
-0.91296
-0.928706
-0.938104
-0.943837
-0.947298
-0.94915
-0.949712
-0.94908
-0.947156
-0.943615
-0.937678
-0.92802
-0.911817
-0.882541
-0.82286
-0.666419
-0.664715
-0.827667
-0.887216
-0.916056
-0.932031
-0.941591
-0.947475
-0.951026
-0.95292
-0.953498
-0.952849
-0.950851
-0.947181
-0.941111
-0.931284
-0.91484
-0.885252
-0.825147
-0.668047
-0.666097
-0.829594
-0.889464
-0.918544
-0.934709
-0.944423
-0.950403
-0.954048
-0.955985
-0.956559
-0.955888
-0.953846
-0.950085
-0.943903
-0.933924
-0.917287
-0.887452
-0.827017
-0.669388
-0.667253
-0.831199
-0.891318
-0.920587
-0.936901
-0.946741
-0.952803
-0.956494
-0.958367
-0.959029
-0.958341
-0.955882
-0.952377
-0.946158
-0.93607
-0.919281
-0.889251
-0.828559
-0.670503
-0.668225
-0.832528
-0.892849
-0.922268
-0.938724
-0.948632
-0.95476
-0.958469
-0.960483
-0.961076
-0.960326
-0.958144
-0.954299
-0.947591
-0.937793
-0.920911
-0.890737
-0.829835
-0.671435
-0.669047
-0.833641
-0.894119
-0.923653
-0.940183
-0.950182
-0.956367
-0.960143
-0.962458
-0.963208
-0.962042
-0.959854
-0.955938
-0.949468
-0.93926
-0.922276
-0.89198
-0.830914
-0.672233
-0.669767
-0.834672
-0.895229
-0.924909
-0.941505
-0.951463
-0.957689
-0.96148
-0.963593
-0.96431
-0.963546
-0.961351
-0.957315
-0.950829
-0.940496
-0.923416
-0.893019
-0.831825
-0.672916
-0.670312
-0.835344
-0.896019
-0.925722
-0.942395
-0.952498
-0.958791
-0.962623
-0.964705
-0.965348
-0.964681
-0.962445
-0.958452
-0.951955
-0.941544
-0.924384
-0.893894
-0.832588
-0.673485
-0.670778
-0.835965
-0.896752
-0.926487
-0.943239
-0.953408
-0.959746
-0.963602
-0.965689
-0.966309
-0.965575
-0.963436
-0.959372
-0.952866
-0.942406
-0.9252
-0.894666
-0.833238
-0.673966
-0.671201
-0.836527
-0.897403
-0.927221
-0.943991
-0.954198
-0.960565
-0.964442
-0.966536
-0.96716
-0.966427
-0.964225
-0.960186
-0.953631
-0.94313
-0.925872
-0.895265
-0.833767
-0.674364
-0.671574
-0.837024
-0.897976
-0.927847
-0.944655
-0.954893
-0.961277
-0.965168
-0.967284
-0.96792
-0.96719
-0.964957
-0.96089
-0.954257
-0.943745
-0.926479
-0.895817
-0.834246
-0.674719
-0.671901
-0.837465
-0.898476
-0.928371
-0.945229
-0.955506
-0.961918
-0.965836
-0.967943
-0.9686
-0.967847
-0.965649
-0.961531
-0.954898
-0.944353
-0.927025
-0.896261
-0.834667
-0.67503
-0.672181
-0.837848
-0.89886
-0.928876
-0.945762
-0.956053
-0.96248
-0.966416
-0.968528
-0.96916
-0.968423
-0.96618
-0.96197
-0.955345
-0.944872
-0.92751
-0.896732
-0.835035
-0.675302
-0.672432
-0.838191
-0.899304
-0.929302
-0.946225
-0.956537
-0.962983
-0.966931
-0.969046
-0.969698
-0.968958
-0.966693
-0.962563
-0.955913
-0.945337
-0.927944
-0.897097
-0.835372
-0.675543
-0.67265
-0.838473
-0.899433
-0.929681
-0.946642
-0.956974
-0.963416
-0.967382
-0.969528
-0.970182
-0.969434
-0.967162
-0.963034
-0.95637
-0.945756
-0.928334
-0.897476
-0.835673
-0.675758
-0.672843
-0.838734
-0.899801
-0.930017
-0.94701
-0.957366
-0.963823
-0.96782
-0.969982
-0.970669
-0.969866
-0.967549
-0.963444
-0.956781
-0.946143
-0.928686
-0.89776
-0.835933
-0.675947
-0.673019
-0.838981
-0.900132
-0.930327
-0.947327
-0.957681
-0.964209
-0.968202
-0.970361
-0.971052
-0.970207
-0.967921
-0.963822
-0.957088
-0.946483
-0.928995
-0.898061
-0.836171
-0.676117
-0.673184
-0.839214
-0.900475
-0.930633
-0.947652
-0.958038
-0.964544
-0.968532
-0.9707
-0.971412
-0.970585
-0.968296
-0.964105
-0.957431
-0.946776
-0.929278
-0.898315
-0.836391
-0.676271
-0.673336
-0.839438
-0.900733
-0.930907
-0.947952
-0.958539
-0.96489
-0.96909
-0.971099
-0.971747
-0.971032
-0.968664
-0.964525
-0.957764
-0.947021
-0.929528
-0.898543
-0.836589
-0.676412
-0.673093
-0.832934
-0.900547
-0.931022
-0.948003
-0.95862
-0.965148
-0.969415
-0.971412
-0.972045
-0.971313
-0.969027
-0.965407
-0.958068
-0.947317
-0.929762
-0.898751
-0.83677
-0.676538
-0.673109
-0.838233
-0.900522
-0.931105
-0.948293
-0.958806
-0.965382
-0.969683
-0.971677
-0.972301
-0.971567
-0.969306
-0.965783
-0.95836
-0.947568
-0.929975
-0.898935
-0.83693
-0.676652
-0.673397
-0.839334
-0.900867
-0.931315
-0.948502
-0.959012
-0.965615
-0.970051
-0.972024
-0.97254
-0.971793
-0.969506
-0.96541
-0.958569
-0.947775
-0.930156
-0.899072
-0.83707
-0.676757
-0.673604
-0.839754
-0.901216
-0.931532
-0.948696
-0.959212
-0.965862
-0.970156
-0.972154
-0.972747
-0.971998
-0.969691
-0.965496
-0.958798
-0.947957
-0.930312
-0.899211
-0.837196
-0.676852
-0.673756
-0.839992
-0.901407
-0.931681
-0.948861
-0.959426
-0.966021
-0.970411
-0.972329
-0.972929
-0.972154
-0.969843
-0.965629
-0.958887
-0.948089
-0.930449
-0.899337
-0.83731
-0.676936
-0.673875
-0.840163
-0.901591
-0.931873
-0.949026
-0.959545
-0.966179
-0.970492
-0.972491
-0.973094
-0.972311
-0.970005
-0.965796
-0.959061
-0.948218
-0.930574
-0.899452
-0.83741
-0.677013

