# vtk DataFile Version 2.0
OUTPUT by 3D-VPM
ASCII
DATASET UNSTRUCTURED_GRID
POINTS 1440 double
6.996270e+01	1.097832e+00	-3.095982e+00
7.069111e+01	1.612502e+00	-1.554107e+00
7.063083e+01	2.567430e+00	-2.704439e+00
7.026556e+01	3.553108e+00	-2.239398e+00
7.048420e+01	4.480235e+00	-1.630343e+00
7.061745e+01	5.501007e+00	-1.619134e+00
7.053029e+01	6.491024e+00	-1.573851e+00
7.050831e+01	7.479221e+00	-1.454842e+00
7.051551e+01	8.483202e+00	-1.415684e+00
7.050795e+01	9.493677e+00	-1.401375e+00
7.050795e+01	1.050633e+01	-1.401382e+00
7.051551e+01	1.151680e+01	-1.415704e+00
7.050831e+01	1.252075e+01	-1.454848e+00
7.053026e+01	1.350891e+01	-1.573790e+00
7.061742e+01	1.449889e+01	-1.618955e+00
7.048424e+01	1.551991e+01	-1.629847e+00
7.026546e+01	1.644821e+01	-2.239625e+00
7.063234e+01	1.743322e+01	-2.703668e+00
7.070730e+01	1.840160e+01	-1.527981e+00
6.989286e+01	1.899912e+01	-3.017532e+00
6.935651e+01	1.189448e+00	-3.002355e+00
7.031970e+01	8.741879e-01	-8.514721e-01
6.951817e+01	2.367182e+00	-2.428342e+00
6.959753e+01	3.244795e+00	-9.550360e-01
6.986156e+01	4.322496e+00	-5.029545e-01
6.975796e+01	5.357478e+00	-5.446920e-01
6.971017e+01	6.354631e+00	-4.044860e-01
6.968901e+01	7.395523e+00	-3.258775e-01
6.967000e+01	8.436830e+00	-2.940316e-01
6.966042e+01	9.478263e+00	-2.763251e-01
6.966041e+01	1.052171e+01	-2.763347e-01
6.966997e+01	1.156314e+01	-2.940577e-01
6.968897e+01	1.260445e+01	-3.259024e-01
6.971010e+01	1.364535e+01	-4.045169e-01
6.975790e+01	1.464256e+01	-5.447263e-01
6.986155e+01	1.567768e+01	-5.031108e-01
6.959771e+01	1.675595e+01	-9.563953e-01
6.952911e+01	1.763476e+01	-2.441466e+00
7.031920e+01	1.912465e+01	-8.435174e-01
6.945053e+01	1.869182e+01	-3.087189e+00
6.867630e+01	6.863834e-01	-1.960163e+00
6.833748e+01	1.574056e+00	-1.713466e+00
7.052301e+01	5.566187e-01	-3.143121e+00
7.134094e+01	2.904999e+00	-2.420607e+00
7.151257e+01	3.864402e+00	-2.080801e+00
7.170217e+01	5.107970e+00	-1.955645e+00
7.168582e+01	6.249797e+00	-1.689175e+00
7.167565e+01	7.320150e+00	-1.538231e+00
7.167140e+01	8.396451e+00	-1.454685e+00
7.166424e+01	9.466486e+00	-1.412137e+00
7.166425e+01	1.053339e+01	-1.412170e+00
7.167143e+01	1.160339e+01	-1.454806e+00
7.167570e+01	1.267962e+01	-1.538488e+00
7.168590e+01	1.374982e+01	-1.689681e+00
7.170221e+01	1.489130e+01	-1.956541e+00
7.151280e+01	1.613397e+01	-2.081967e+00
7.134155e+01	1.709119e+01	-2.421551e+00
7.052555e+01	1.945686e+01	-3.148733e+00
6.832667e+01	1.842473e+01	-1.750051e+00
6.869413e+01	1.931940e+01	-1.944854e+00
6.742635e+01	3.016659e-01	-2.216529e+00
6.772570e+01	1.439883e+00	-1.450358e+00
6.873081e+01	-1.554476e-01	-3.485500e+00
6.892142e+01	2.463139e+00	-4.356623e+00
6.922903e+01	4.009962e+00	-4.152049e+00
6.939772e+01	5.196054e+00	-3.951635e+00
6.948815e+01	6.297913e+00	-3.807421e+00
6.954348e+01	7.368348e+00	-3.705610e+00
6.957475e+01	8.424083e+00	-3.642431e+00
6.958876e+01	9.474939e+00	-3.612641e+00
6.958878e+01	1.052489e+01	-3.612692e+00
6.957480e+01	1.157573e+01	-3.642599e+00
6.954358e+01	1.263143e+01	-3.705922e+00
6.948826e+01	1.370179e+01	-3.807941e+00
6.939802e+01	1.480355e+01	-3.952508e+00
6.922984e+01	1.598958e+01	-4.152896e+00
6.892352e+01	1.753614e+01	-4.355326e+00
6.873550e+01	2.014284e+01	-3.493069e+00
6.772952e+01	1.855927e+01	-1.442470e+00
6.744308e+01	1.969758e+01	-2.216191e+00
6.653481e+01	2.520870e-01	-1.913748e+00
6.689263e+01	1.079540e+00	-7.114357e-01
6.736969e+01	-5.626879e-01	-3.305073e+00
6.735668e+01	2.194905e+00	-4.438612e+00
6.751279e+01	3.862878e+00	-4.318897e+00
6.763450e+01	5.132111e+00	-4.141568e+00
6.771032e+01	6.266286e+00	-4.001286e+00
6.775581e+01	7.351039e+00	-3.903222e+00
6.778164e+01	8.415793e+00	-3.842123e+00
6.779342e+01	9.472496e+00	-3.813029e+00
6.779344e+01	1.052727e+01	-3.813113e+00
6.778172e+01	1.158395e+01	-3.842398e+00
6.775595e+01	1.264863e+01	-3.903743e+00
6.771056e+01	1.373326e+01	-4.002139e+00
6.763512e+01	1.486724e+01	-4.143010e+00
6.751425e+01	1.613597e+01	-4.320311e+00
6.735946e+01	1.780092e+01	-4.438113e+00
6.737195e+01	2.055033e+01	-3.322943e+00
6.689457e+01	1.892425e+01	-7.037220e-01
6.654521e+01	1.974731e+01	-1.905751e+00
6.574074e+01	8.236417e-02	-1.531150e+00
6.587002e+01	1.134128e+00	-8.379202e-01
6.622353e+01	-7.312502e-01	-3.206655e+00
6.612510e+01	2.041413e+00	-4.371340e+00
6.621163e+01	3.763220e+00	-4.268266e+00
6.629426e+01	5.073525e+00	-4.090751e+00
6.635246e+01	6.233043e+00	-3.946478e+00
6.638969e+01	7.332380e+00	-3.844651e+00
6.641149e+01	8.406284e+00	-3.781002e+00
6.642159e+01	9.469570e+00	-3.750629e+00
6.642161e+01	1.053013e+01	-3.750726e+00
6.641154e+01	1.159338e+01	-3.781318e+00
6.638980e+01	1.266718e+01	-3.845238e+00
6.635263e+01	1.376632e+01	-3.947390e+00
6.629474e+01	1.492549e+01	-4.092224e+00
6.621274e+01	1.623489e+01	-4.269398e+00
6.612670e+01	1.795230e+01	-4.370161e+00
6.622310e+01	2.071741e+01	-3.225256e+00
6.587164e+01	1.886350e+01	-8.378847e-01
6.575091e+01	1.991623e+01	-1.524485e+00
6.480409e+01	-6.454917e-03	-1.571101e+00
6.499894e+01	1.184169e+00	-8.044547e-01
6.509861e+01	-8.357002e-01	-3.051440e+00
6.502224e+01	1.951123e+00	-4.262195e+00
6.507403e+01	3.698429e+00	-4.162787e+00
6.513093e+01	5.030419e+00	-3.980283e+00
6.517460e+01	6.205760e+00	-3.830621e+00
6.520429e+01	7.315992e+00	-3.724552e+00
6.522237e+01	8.397579e+00	-3.658146e+00
6.523093e+01	9.466833e+00	-3.626422e+00
6.523094e+01	1.053283e+01	-3.626519e+00
6.522239e+01	1.160203e+01	-3.658453e+00
6.520434e+01	1.268349e+01	-3.725099e+00
6.517469e+01	1.379349e+01	-3.831442e+00
6.513123e+01	1.496840e+01	-3.981493e+00
6.507475e+01	1.629926e+01	-4.163145e+00
6.502311e+01	1.804152e+01	-4.259597e+00
6.509796e+01	2.082083e+01	-3.069356e+00
6.500290e+01	1.881437e+01	-7.989763e-01
6.481233e+01	2.000505e+01	-1.565936e+00
6.386684e+01	1.170665e-01	-1.475871e+00
6.406918e+01	1.215570e+00	-6.345078e-01
6.404159e+01	-8.873813e-01	-2.847369e+00
6.397838e+01	1.894718e+00	-4.144972e+00
6.401170e+01	3.656660e+00	-4.045925e+00
6.405160e+01	5.000229e+00	-3.858053e+00
6.408412e+01	6.184988e+00	-3.703456e+00
6.410733e+01	7.302679e+00	-3.593691e+00
6.412195e+01	8.390202e+00	-3.524875e+00
6.412902e+01	9.464467e+00	-3.491971e+00
6.412903e+01	1.053517e+01	-3.492057e+00
6.412196e+01	1.160937e+01	-3.525138e+00
6.410735e+01	1.269677e+01	-3.594131e+00
6.408417e+01	1.381421e+01	-3.704162e+00
6.405180e+01	1.499851e+01	-3.858938e+00
6.401219e+01	1.634081e+01	-4.045393e+00
6.397902e+01	1.809726e+01	-4.140940e+00
6.404134e+01	2.087241e+01	-2.866006e+00
6.407174e+01	1.878413e+01	-6.254001e-01
6.387465e+01	1.987866e+01	-1.468348e+00
6.295371e+01	1.435535e-01	-1.324279e+00
6.309589e+01	1.235308e+00	-5.474672e-01
6.303266e+01	-8.975443e-01	-2.694516e+00
6.296489e+01	1.861633e+00	-4.033151e+00
6.298594e+01	3.631050e+00	-3.932868e+00
6.301413e+01	4.980224e+00	-3.740328e+00
6.303825e+01	6.170146e+00	-3.581825e+00
6.305612e+01	7.292593e+00	-3.469113e+00
6.306769e+01	8.384388e+00	-3.398347e+00
6.307340e+01	9.462568e+00	-3.364477e+00
6.307340e+01	1.053705e+01	-3.364538e+00
6.306769e+01	1.161518e+01	-3.398521e+00
6.305612e+01	1.270685e+01	-3.469398e+00
6.303826e+01	1.382903e+01	-3.582262e+00
6.301427e+01	1.501850e+01	-3.740771e+00
6.298635e+01	1.636632e+01	-3.931522e+00
6.296552e+01	1.812984e+01	-4.027904e+00
6.303256e+01	2.088250e+01	-2.713473e+00
6.309735e+01	1.876473e+01	-5.377593e-01
6.296059e+01	1.985259e+01	-1.314964e+00
6.200943e+01	1.529871e-01	-1.282622e+00
6.212941e+01	1.246854e+00	-4.678044e-01
6.202954e+01	-8.862727e-01	-2.583344e+00
6.196599e+01	1.847212e+00	-3.932221e+00
6.197816e+01	3.617480e+00	-3.828689e+00
6.199798e+01	4.968114e+00	-3.632291e+00
6.201586e+01	6.160258e+00	-3.471056e+00
6.202947e+01	7.285471e+00	-3.356198e+00
6.203841e+01	8.380139e+00	-3.283773e+00
6.204292e+01	9.461154e+00	-3.249090e+00
6.204292e+01	1.053847e+01	-3.249095e+00
6.203840e+01	1.161945e+01	-3.283703e+00
6.202937e+01	1.271396e+01	-3.355858e+00
6.201576e+01	1.383887e+01	-3.470721e+00
6.199804e+01	1.503053e+01	-3.631660e+00
6.197852e+01	1.637973e+01	-3.826150e+00
6.196668e+01	1.814386e+01	-3.925943e+00
6.202965e+01	2.087109e+01	-2.602115e+00
6.213051e+01	1.875383e+01	-4.563547e-01
6.201511e+01	1.984337e+01	-1.273715e+00
6.105168e+01	1.992833e-01	-1.244949e+00
6.115359e+01	1.247026e+00	-3.760646e-01
6.103215e+01	-8.598866e-01	-2.497679e+00
6.097293e+01	1.846725e+00	-3.842568e+00
6.097894e+01	3.612966e+00	-3.734185e+00
6.099273e+01	4.962120e+00	-3.534445e+00
6.100575e+01	6.154630e+00	-3.368957e+00
6.101603e+01	7.280959e+00	-3.252589e+00
6.102307e+01	8.377232e+00	-3.181328e+00
6.102658e+01	9.460172e+00	-3.146238e+00
6.102659e+01	1.053946e+01	-3.146164e+00
6.102305e+01	1.162234e+01	-3.181123e+00
6.101609e+01	1.271855e+01	-3.254299e+00
6.100579e+01	1.384464e+01	-3.370454e+00
6.099279e+01	1.503647e+01	-3.533171e+00
6.097931e+01	1.638413e+01	-3.730807e+00
6.097366e+01	1.814403e+01	-3.835402e+00
6.103246e+01	2.084462e+01	-2.516080e+00
6.115404e+01	1.875453e+01	-3.628303e-01
6.105692e+01	1.979649e+01	-1.235175e+00
6.008328e+01	2.361267e-01	-1.204012e+00
6.016786e+01	1.234500e+00	-2.894984e-01
6.003929e+01	-8.241301e-01	-2.438698e+00
5.998181e+01	1.856469e+00	-3.762730e+00
5.998350e+01	3.615149e+00	-3.648438e+00
5.999295e+01	4.960791e+00	-3.445962e+00
6.000253e+01	6.152152e+00	-3.278410e+00
6.001031e+01	7.278437e+00	-3.160829e+00
6.001569e+01	8.375462e+00	-3.089592e+00
6.001841e+01	9.459561e+00	-3.054511e+00
6.001841e+01	1.054006e+01	-3.054405e+00
6.001566e+01	1.162405e+01	-3.089572e+00
6.001034e+01	1.272106e+01	-3.163736e+00
6.000258e+01	1.384726e+01	-3.280892e+00
5.999307e+01	1.503786e+01	-3.444813e+00
5.998390e+01	1.638195e+01	-3.644804e+00
5.998259e+01	1.813406e+01	-3.754858e+00
6.003968e+01	2.080868e+01	-2.456532e+00
6.016776e+01	1.876793e+01	-2.749980e-01
6.008835e+01	1.975987e+01	-1.192887e+00
5.909387e+01	2.689513e-01	-1.180907e+00
5.917746e+01	1.210198e+00	-2.088344e-01
5.904712e+01	-7.828165e-01	-2.401837e+00
5.899083e+01	1.873872e+00	-3.691066e+00
5.898948e+01	3.622182e+00	-3.570174e+00
5.899584e+01	4.962835e+00	-3.365512e+00
5.900297e+01	6.151808e+00	-3.199067e+00
[...]
CELL_DATA 1349
SCALARS Mu double 1
LOOKUP_TABLE default
-0.388429
-0.434839
-0.445113
-0.448285
-0.449531
-0.450112
-0.450415
-0.45058
-0.450664
-0.450691
-0.450664
-0.45058
-0.450415
-0.450112
-0.449531
-0.448285
-0.445113
-0.434839
-0.388429
-0.510131
-0.594683
-0.616974
-0.624665
-0.627855
-0.629376
-0.630171
-0.630603
-0.630824
-0.630893
-0.630827
-0.630608
-0.630178
-0.629383
-0.627864
-0.624669
-0.616953
-0.594531
-0.509768
-0.565402
-0.676259
-0.708906
-0.721304
-0.726769
-0.729481
-0.73093
-0.731726
-0.732133
-0.732261
-0.732142
-0.731746
-0.730963
-0.729527
-0.726831
-0.721339
-0.708845
-0.676044
-0.567553
-0.5965
-0.724128
-0.764294
-0.780705
-0.788374
-0.792329
-0.794491
-0.79569
-0.796305
-0.796497
-0.796315
-0.795713
-0.794527
-0.792381
-0.788441
-0.780711
-0.764093
-0.72369
-0.599882
-0.616157
-0.754595
-0.800147
-0.819703
-0.829262
-0.834366
-0.837218
-0.838823
-0.839649
-0.839907
-0.839656
-0.838838
-0.837242
-0.834395
-0.829287
-0.81961
-0.799729
-0.753863
-0.620006
-0.629462
-0.77515
-0.824573
-0.846525
-0.857613
-0.863703
-0.867176
-0.869157
-0.870184
-0.870502
-0.870184
-0.869157
-0.867173
-0.863686
-0.85756
-0.846289
-0.823906
-0.774108
-0.633433
-0.63891
-0.789621
-0.841854
-0.865629
-0.87793
-0.884838
-0.888843
-0.891155
-0.892362
-0.892735
-0.892353
-0.891135
-0.888804
-0.884767
-0.877784
-0.865235
-0.840944
-0.78829
-0.642855
-0.645861
-0.800146
-0.854446
-0.879611
-0.892871
-0.900442
-0.904899
-0.907495
-0.908859
-0.909278
-0.908838
-0.907451
-0.904819
-0.900312
-0.892624
-0.879062
-0.853314
-0.798557
-0.649722
-0.651118
-0.808004
-0.863847
-0.890074
-0.904089
-0.912208
-0.917035
-0.91987
-0.921366
-0.921824
-0.921333
-0.919799
-0.916913
-0.912002
-0.903739
-0.889378
-0.86252
-0.80619
-0.654877
-0.655184
-0.813999
-0.871014
-0.898055
-0.91267
-0.921219
-0.926358
-0.929393
-0.931
-0.93149
-0.930954
-0.929291
-0.926181
-0.920941
-0.912171
-0.897221
-0.869514
-0.811993
-0.658841
-0.658388
-0.818659
-0.87657
-0.904239
-0.919324
-0.928202
-0.933353
-0.936781
-0.938511
-0.939032
-0.938454
-0.936687
-0.933422
-0.927882
-0.918774
-0.903285
-0.874921
-0.816489
-0.661948
-0.660949
-0.822338
-0.88094
-0.909098
-0.924554
-0.933726
-0.939242
-0.942613
-0.944431
-0.944972
-0.944365
-0.94251
-0.939127
-0.933362
-0.923934
-0.908042
-0.879166
-0.820031
-0.664423
-0.663021
-0.825283
-0.884419
-0.91296
-0.928706
-0.938104
-0.943837
-0.947298
-0.94915
-0.949712
-0.94908
-0.947156
-0.943615
-0.937678
-0.92802
-0.911817
-0.882541
-0.82286
-0.666419
-0.664715
-0.827667
-0.887216
-0.916056
-0.932031
-0.941591
-0.947475
-0.951026
-0.95292
-0.953498
-0.952849
-0.950851
-0.947181
-0.941111
-0.931284
-0.91484
-0.885252
-0.825147
-0.668047
-0.666097
-0.829594
-0.889464
-0.918544
-0.934709
-0.944423
-0.950403
-0.954048
-0.955985
-0.956559
-0.955888
-0.953846
-0.950085
-0.943903
-0.933924
-0.917287
-0.887452
-0.827017
-0.669388
-0.667253
-0.831199
-0.891318
-0.920587
-0.936901
-0.946741
-0.952803
-0.956494
-0.958367
-0.959029
-0.958341
-0.955882
-0.952377
-0.946158
-0.93607
-0.919281
-0.889251
-0.828559
-0.670503
-0.668225
-0.832528
-0.892849
-0.922268
-0.938724
-0.948632
-0.95476
-0.958469
-0.960483
-0.961076
-0.960326
-0.958144
-0.954299
-0.947591
-0.937793
-0.920911
-0.890737
-0.829835
-0.671435
-0.669047
-0.833641
-0.894119
-0.923653
-0.940183
-0.950182
-0.956367
-0.960143
-0.962458
-0.963208
-0.962042
-0.959854
-0.955938
-0.949468
-0.93926
-0.922276
-0.89198
-0.830914
-0.672233
-0.669767
-0.834672
-0.895229
-0.924909
-0.941505
-0.951463
-0.957689
-0.96148
-0.963593
-0.96431
-0.963546
-0.961351
-0.957315
-0.950829
-0.940496
-0.923416
-0.893019
-0.831825
-0.672916
-0.670312
-0.835344
-0.896019
-0.925722
-0.942395
-0.952498
-0.958791
-0.962623
-0.964705
-0.965348
-0.964681
-0.962445
-0.958452
-0.951955
-0.941544
-0.924384
-0.893894
-0.832588
-0.673485
-0.670778
-0.835965
-0.896752
-0.926487
-0.943239
-0.953408
-0.959746
-0.963602
-0.965689
-0.966309
-0.965575
-0.963436
-0.959372
-0.952866
-0.942406
-0.9252
-0.894666
-0.833238
-0.673966
-0.671201
-0.836527
-0.897403
-0.927221
-0.943991
-0.954198
-0.960565
-0.964442
-0.966536
-0.96716
-0.966427
-0.964225
-0.960186
-0.953631
-0.94313
-0.925872
-0.895265
-0.833767
-0.674364
-0.671574
-0.837024
-0.897976
-0.927847
-0.944655
-0.954893
-0.961277
-0.965168
-0.967284
-0.96792
-0.96719
-0.964957
-0.96089
-0.954257
-0.943745
-0.926479
-0.895817
-0.834246
-0.674719
-0.671901
-0.837465
-0.898476
-0.928371
-0.945229
-0.955506
-0.961918
-0.965836
-0.967943
-0.9686
-0.967847
-0.965649
-0.961531
-0.954898
-0.944353
-0.927025
-0.896261
-0.834667
-0.67503
-0.672181
-0.837848
-0.89886
-0.928876
-0.945762
-0.956053
-0.96248
-0.966416
-0.968528
-0.96916
-0.968423
-0.96618
-0.96197
-0.955345
-0.944872
-0.92751
-0.896732
-0.835035
-0.675302
-0.672432
-0.838191
-0.899304
-0.929302
-0.946225
-0.956537
-0.962983
-0.966931
-0.969046
-0.969698
-0.968958
-0.966693
-0.962563
-0.955913
-0.945337
-0.927944
-0.897097
-0.835372
-0.675543
-0.67265
-0.838473
-0.899433
-0.929681
-0.946642
-0.956974
-0.963416
-0.967382
-0.969528
-0.970182
-0.969434
-0.967162
-0.963034
-0.95637
-0.945756
-0.928334
-0.897476
-0.835673
-0.675758
-0.672843
-0.838734
-0.899801
-0.930017
-0.94701
-0.957366
-0.963823
-0.96782
-0.969982
-0.970669
-0.969866
-0.967549
-0.963444
-0.956781
-0.946143
-0.928686
-0.89776
-0.835933
-0.675947
-0.673019
-0.838981
-0.900132
-0.930327
-0.947327
-0.957681
-0.964209
-0.968202
-0.970361
-0.971052
-0.970207
-0.967921
-0.963822
-0.957088
-0.946483
-0.928995
-0.898061
-0.836171
-0.676117
-0.673184
-0.839214
-0.900475
-0.930633
-0.947652
-0.958038
-0.964544
-0.968532
-0.9707
-0.971412
-0.970585
-0.968296
-0.964105
-0.957431
-0.946776
-0.929278
-0.898315
-0.836391
-0.676271
-0.673336
-0.839438
-0.900733
-0.930907
-0.947952
-0.958539
-0.96489
-0.96909
-0.971099
-0.971747
-0.971032
-0.968664
-0.964525
-0.957764
-0.947021
-0.929528
-0.898543
-0.836589
-0.676412
-0.673093
-0.832934
-0.900547
-0.931022
-0.948003
-0.95862
-0.965148
-0.969415
-0.971412
-0.972045
-0.971313
-0.969027
-0.965407
-0.958068
-0.947317
-0.929762
-0.898751
-0.83677
-0.676538
-0.673109
-0.838233
-0.900522
-0.931105
-0.948293
-0.958806
-0.965382
-0.969683
-0.971677
-0.972301
-0.971567
-0.969306
-0.965783
-0.95836
-0.947568
-0.929975
-0.898935
-0.83693
-0.676652
-0.673397
-0.839334
-0.900867
-0.931315
-0.948502
-0.959012
-0.965615
-0.970051
-0.972024
-0.97254
-0.971793
-0.969506
-0.96541
-0.958569
-0.947775
-0.930156
-0.899072
-0.83707
-0.676757
-0.673604
-0.839754
-0.901216
-0.931532
-0.948696
-0.959212
-0.965862
-0.970156
-0.972154
-0.972747
-0.971998
-0.969691
-0.965496
-0.958798
-0.947957
-0.930312
-0.899211
-0.837196
-0.676852
-0.673756
-0.839992
-0.901407
-0.931681
-0.948861
-0.959426
-0.966021
-0.970411
-0.972329
-0.972929
-0.972154
-0.969843
-0.965629
-0.958887
-0.948089
-0.930449
-0.899337
-0.83731
-0.676936
-0.673875
-0.840163
-0.901591
-0.931873
-0.949026
-0.959545
-0.966179
-0.970492
-0.972491
-0.973094
-0.972311
-0.970005
-0.965796
-0.959061
-0.948218
-0.930574
-0.899452
-0.83741
-0.677013
-0.673972
-0.840299
-0.90173
-0.932019
-0.949157
-0.959648
-0.966291
-0.970629
-0.972706
-0.973241
-0.972472
-0.970159
-0.965913
-0.959131
-0.948335
-0.93073
-0.899558
-0.837505
-0.677083
-0.674055
-0.840414
-0.901851
-0.932148
-0.949367
-0.959803
-0.966422
-0.970753
-0.972774
-0.973387
-0.972691
-0.970305
-0.966032
-0.95925
-0.948466
-0.930802
-0.899682
-0.837596
-0.677151
-0.67413
-0.840515
-0.901958
-0.932259
-0.94945
-0.959925
-0.966547
-0.97095
-0.972724
-0.973462
-0.972732
-0.970365
-0.96615
-0.959404
-0.948576
-0.930894
-0.899772
-0.837678
-0.677212
-0.674198
-0.840603
-0.90205
-0.932345
-0.94942
-0.960026
-0.966664
-0.970992
-0.972961
-0.973695
-0.972848
-0.970146
-0.966318
-0.959473
-0.948614
-0.930956
-0.899821
-0.837742
-0.677265
-0.674258
-0.84068
-0.902131
-0.932425
-0.949485
-0.960115
-0.966749
-0.971085
-0.973081
-0.973718
-0.972906
-0.970484
-0.966326
-0.959536
-0.948734
-0.93109
-0.899936
-0.83783
-0.677332
-0.67431
-0.84075
-0.902206
-0.932504
-0.949582
-0.96021
-0.967018
-0.971233
-0.973196
-0.973804
-0.973005
-0.970645
-0.966413
-0.959631
-0.948933
-0.93116
-0.900019
-0.837902
-0.677385
-0.674361
-0.840818
-0.902278
-0.932589
-0.949749
-0.960329
-0.966975
-0.971287
-0.973286
-0.973891
-0.973088
-0.970748
-0.966503
-0.959712
-0.948919
-0.931231
-0.90009
-0.837968
-0.677434
-0.674408
-0.84088
-0.902346
-0.932665
-0.949841
-0.960414
-0.967024
-0.97135
-0.973367
-0.974031
-0.97314
-0.970837
-0.966663
-0.959791
-0.948975
-0.931295
-0.900155
-0.838031
-0.67748
-0.67445
-0.840931
-0.902395
-0.932701
-0.949911
-0.960555
-0.967096
-0.971419
-0.973434
-0.974045
-0.973248
-0.970958
-0.966758
-0.959867
-0.949038
-0.931354
-0.900214
-0.838086
-0.677522
-0.674494
-0.840983
-0.902448
-0.932754
-0.949967
-0.960535
-0.967169
-0.971481
-0.973485
-0.974101
-0.973326
-0.971033
-0.966759
-0.959927
-0.949097
-0.931411
-0.900268
-0.838137
-0.677563
-0.674532
-0.841035
-0.902512
-0.932835
-0.950032
-0.96057
-0.96722
-0.971574
-0.973597
-0.974172
-0.973392
-0.971098
-0.966815
-0.959977
-0.949151
-0.931465
-0.90032
-0.838186
-0.677601
-0.674563
-0.841077
-0.902561
-0.932881
-0.949981
-0.960609
-0.967262
-0.971636
-0.973667
-0.974236
-0.973453
-0.971158
-0.966875
-0.960066
-0.949221
-0.931526
-0.90037
-0.838231
-0.677636
-0.674597
-0.841121
-0.902607
-0.932929
-0.950109
-0.960653
-0.967309
-0.971687
-0.973721
-0.974284
-0.973456
-0.97113
-0.966912
-0.960116
-0.949275
-0.931577
-0.900417
-0.838273
-0.677668
-0.674628
-0.841162
-0.90265
-0.932977
-0.95017
-0.960703
-0.967357
-0.971735
-0.973766
-0.974328
-0.973492
-0.971168
-0.967092
-0.960134
-0.949308
-0.931614
-0.900459
-0.838313
-0.677699
-0.674656
-0.8412
-0.902692
-0.933023
-0.950252
-0.960752
-0.967403
-0.971781
-0.973811
-0.974371
-0.973531
-0.971212
-0.967153
-0.960184
-0.949349
-0.931655
-0.900498
-0.83835
-0.677728
-0.674684
-0.841236
-0.902732
-0.933066
-0.950302
-0.960796
-0.967442
-0.971794
-0.973849
-0.974408
-0.973574
-0.971267
-0.967281
-0.960261
-0.949395
-0.931694
-0.900536
-0.838385
-0.677755
-0.67471
-0.84127
-0.90277
-0.933108
-0.950345
-0.960838
-0.967482
-0.971834
-0.973904
-0.974506
-0.973629
-0.97135
-0.967322
-0.960292
-0.949434
-0.931732
-0.900572
-0.838419
-0.677781
-0.674735
-0.841302
-0.902806
-0.933151
-0.950391
-0.960933
-0.967553
-0.971876
-0.973897
-0.974498
-0.973663
-0.97135
-0.967205
-0.960267
-0.949464
-0.931766
-0.900606
-0.83845
-0.677805
-0.674759
-0.841335
-0.902839
-0.933187
-0.950428
-0.960939
-0.967594
-0.971912
-0.973932
-0.974602
-0.973733
-0.971418
-0.967176
-0.960304
-0.949493
-0.931798
-0.900637
-0.838479
-0.677828
-0.674781
-0.841364
-0.90287
-0.933216
-0.950411
-0.960962
-0.967628
-0.971945
-0.973957
-0.974573
-0.973748
-0.971466
-0.967192
-0.960335
-0.949592
-0.931833
-0.900668
-0.838507
-0.67785
-0.674804
-0.84139
-0.902899
-0.933245
-0.950432
-0.96099
-0.967662
-0.972023
-0.973995
-0.974628
-0.973778
-0.971495
-0.96722
-0.960368
-0.949636
-0.931868
-0.900698
-0.838534
-0.677869
-0.674824
-0.841417
-0.902924
-0.933269
-0.950456
-0.961015
-0.96769
-0.97206
-0.97402
-0.97463
-0.973798
-0.971486
-0.967243
-0.960397
-0.949669
-0.931899
-0.900726
-0.838559
-0.677889
-0.674839
-0.841437
-0.902946
-0.933288
-0.950481
-0.961041
-0.967719
-0.972119
-0.974049
-0.974651
-0.973817
-0.971502
-0.967263
-0.960396
-0.949697
-0.931927
-0.900752
-0.838583
-0.677907
-0.674856
-0.841458
-0.90297
-0.933315
-0.950521
-0.961071
-0.96775
-0.972159
-0.974092
-0.974728
-0.973845
-0.971524
-0.967276
-0.960413
-0.949721
-0.931953
-0.900777
-0.838606
-0.677925
-0.674876
-0.841481
-0.902995
-0.93334
-0.95055
-0.961098
-0.967774
-0.97216
-0.974122
-0.974765
-0.973875
-0.971551
-0.967298
-0.960435
-0.949745
-0.931976
-0.9008
-0.838627
-0.677942
-0.67489
-0.841502
-0.903017
-0.933365
-0.950565
-0.961167
-0.967803
-0.972182
-0.974148
-0.974794
-0.973902
-0.971577
-0.967322
-0.960459
-0.949779
-0.932001
-0.900822
-0.838648
-0.677958
-0.674906
-0.841521
-0.903038
-0.933388
-0.950589
-0.961201
-0.967837
-0.972208
-0.974173
-0.974819
-0.973926
-0.9716
-0.967343
-0.960476
-0.949733
-0.932018
-0.900842
-0.838667
-0.677973
-0.674921
-0.841543
-0.903059
-0.933409
-0.950609
-0.961185
-0.967865
-0.972259
-0.974629
-0.974899
-0.973964
-0.971643
-0.967457
-0.961978
-0.949833
-0.932052
-0.900866
-0.838687
-0.677988
-0.674935
-0.841562
-0.903079
-0.93343
-0.950629
-0.961202
-0.967896
-0.972312
-0.974752
-0.97497
-0.974015
-0.971713
-0.967635
-0.962331
-0.949975
-0.93211
-0.900898
-0.83871
-0.678004
-0.674949
-0.841579
-0.903098
-0.93345
-0.950651
-0.961225
-0.967926
-0.972352
-0.97481
-0.975024
-0.974065
-0.971777
-0.967727
-0.962467
-0.950076
-0.932165
-0.900932
-0.838734
-0.678021
-0.674962
-0.841596
-0.903116
-0.933469
-0.950671
-0.961246
-0.967948
-0.972359
-0.974421
-0.975038
-0.974101
-0.971824
-0.96779
-0.962543
-0.950139
-0.932207
-0.900963
-0.838762
-0.678038
-0.674975
-0.841612
-0.903133
-0.933486
-0.950689
-0.961264
-0.967961
-0.972357
-0.974359
-0.975035
-0.974123
-0.971858
-0.967834
-0.962594
-0.950183
-0.932241
-0.90099
-0.838784
-0.678053
-0.674986
-0.841627
-0.903149
-0.933503
-0.950705
-0.961279
-0.967973
-0.972365
-0.974354
-0.97504
-0.974142
-0.971885
-0.967867
-0.962631
-0.950216
-0.932268
-0.901014
-0.838804
-0.678068

