# vtk DataFile Version 2.0
OUTPUT by 3D-VPM
ASCII
DATASET UNSTRUCTURED_GRID
POINTS 560 double
2.666018e+01	5.415122e-01	-3.199831e-01
2.686718e+01	1.111435e+00	-9.093307e-01
2.652902e+01	2.251296e+00	-8.074184e-01
2.654678e+01	3.253998e+00	-5.635469e-01
2.655345e+01	4.272385e+00	-4.947594e-01
2.653453e+01	5.302333e+00	-4.450728e-01
2.652369e+01	6.340505e+00	-4.085503e-01
2.651707e+01	7.383577e+00	-3.855409e-01
2.651309e+01	8.429298e+00	-3.717769e-01
2.651131e+01	9.476244e+00	-3.652630e-01
2.651130e+01	1.052375e+01	-3.652642e-01
2.651308e+01	1.157069e+01	-3.717802e-01
2.651705e+01	1.261640e+01	-3.855438e-01
2.652367e+01	1.365947e+01	-4.085467e-01
2.653453e+01	1.469763e+01	-4.450549e-01
2.655349e+01	1.572756e+01	-4.947134e-01
2.654692e+01	1.674593e+01	-5.634530e-01
2.652936e+01	1.774865e+01	-8.071332e-01
2.686758e+01	1.888892e+01	-9.089804e-01
2.666042e+01	1.945930e+01	-3.186011e-01
2.614421e+01	1.889346e-01	-9.444876e-01
2.680761e+01	3.671433e-01	-1.759152e+00
2.713737e+01	2.050424e+00	-1.648396e+00
2.724972e+01	3.130797e+00	-1.374141e+00
2.728753e+01	4.197722e+00	-1.250057e+00
2.729841e+01	5.257406e+00	-1.161915e+00
2.730188e+01	6.312021e+00	-1.106248e+00
2.730287e+01	7.365907e+00	-1.072335e+00
2.730305e+01	8.419576e+00	-1.052750e+00
2.730312e+01	9.473122e+00	-1.043705e+00
2.730312e+01	1.052687e+01	-1.043700e+00
2.730305e+01	1.158041e+01	-1.052736e+00
2.730287e+01	1.263407e+01	-1.072312e+00
2.730188e+01	1.368794e+01	-1.106215e+00
2.729842e+01	1.474253e+01	-1.161888e+00
2.728756e+01	1.580216e+01	-1.250054e+00
2.724986e+01	1.686902e+01	-1.374135e+00
2.713783e+01	1.794940e+01	-1.647921e+00
2.680858e+01	1.963198e+01	-1.758147e+00
2.614369e+01	1.980918e+01	-9.446541e-01
2.496537e+01	3.824811e-01	-9.524953e-01
2.524393e+01	-1.504469e-01	-1.852420e+00
2.534939e+01	1.850339e+00	-2.334458e+00
2.544709e+01	3.106416e+00	-2.193549e+00
2.550241e+01	4.201680e+00	-2.074117e+00
2.552882e+01	5.263854e+00	-1.994799e+00
2.554227e+01	6.318173e+00	-1.943630e+00
2.554928e+01	7.370433e+00	-1.911465e+00
2.555285e+01	8.422265e+00	-1.892615e+00
2.555446e+01	9.474013e+00	-1.883917e+00
2.555446e+01	1.052597e+01	-1.883930e+00
2.555286e+01	1.157771e+01	-1.892657e+00
2.554930e+01	1.262954e+01	-1.911540e+00
2.554228e+01	1.368178e+01	-1.943747e+00
2.552885e+01	1.473607e+01	-1.995000e+00
2.550251e+01	1.579817e+01	-2.074374e+00
2.544743e+01	1.689336e+01	-2.193604e+00
2.534951e+01	1.814910e+01	-2.333551e+00
2.524711e+01	2.015217e+01	-1.853368e+00
2.496517e+01	1.961962e+01	-9.547585e-01
2.400789e+01	3.720626e-01	-7.592939e-01
2.414448e+01	-2.921749e-01	-1.706652e+00
2.412556e+01	1.750989e+00	-2.362838e+00
2.417429e+01	3.065372e+00	-2.237265e+00
2.421254e+01	4.186108e+00	-2.114835e+00
2.423417e+01	5.257892e+00	-2.030734e+00
2.424591e+01	6.315885e+00	-1.976112e+00
2.425226e+01	7.369637e+00	-1.941625e+00
2.425558e+01	8.422035e+00	-1.921356e+00
2.425707e+01	9.473967e+00	-1.912005e+00
2.425707e+01	1.052600e+01	-1.912040e+00
2.425559e+01	1.157793e+01	-1.921468e+00
2.425229e+01	1.263032e+01	-1.941836e+00
2.424595e+01	1.368405e+01	-1.976461e+00
2.423425e+01	1.474200e+01	-2.031321e+00
2.421270e+01	1.581372e+01	-2.115525e+00
2.417467e+01	1.693430e+01	-2.237321e+00
2.412570e+01	1.824754e+01	-2.360879e+00
2.414809e+01	2.029985e+01	-1.710440e+00
2.400825e+01	1.963623e+01	-7.630554e-01
2.305795e+01	3.530805e-01	-6.767872e-01
2.311216e+01	-3.188648e-01	-1.617640e+00
2.305574e+01	1.708784e+00	-2.289226e+00
2.307826e+01	3.042029e+00	-2.163733e+00
2.310400e+01	4.174026e+00	-2.037304e+00
2.312102e+01	5.251904e+00	-1.949767e+00
2.313124e+01	6.312981e+00	-1.892638e+00
2.313714e+01	7.368273e+00	-1.856429e+00
2.314036e+01	8.421446e+00	-1.835098e+00
2.314184e+01	9.473801e+00	-1.825239e+00
2.314184e+01	1.052615e+01	-1.825277e+00
2.314036e+01	1.157850e+01	-1.835223e+00
2.313714e+01	1.263166e+01	-1.856667e+00
2.313124e+01	1.368693e+01	-1.893035e+00
2.312103e+01	1.474797e+01	-1.950442e+00
2.310408e+01	1.582579e+01	-2.038016e+00
2.307855e+01	1.695752e+01	-2.163257e+00
2.305592e+01	1.828861e+01	-2.285805e+00
2.311342e+01	2.032828e+01	-1.622735e+00
2.305806e+01	1.965688e+01	-6.828371e-01
2.209875e+01	3.671024e-01	-6.145502e-01
2.210340e+01	-3.004975e-01	-1.545614e+00
2.203787e+01	1.699964e+00	-2.196398e+00
2.204647e+01	3.031772e+00	-2.067536e+00
2.206348e+01	4.166527e+00	-1.938703e+00
2.207638e+01	5.247180e+00	-1.849407e+00
2.208486e+01	6.310221e+00	-1.790993e+00
2.209010e+01	7.366756e+00	-1.753861e+00
2.209308e+01	8.420701e+00	-1.731943e+00
2.209449e+01	9.473577e+00	-1.721794e+00
2.209449e+01	1.052637e+01	-1.721830e+00
2.209308e+01	1.157924e+01	-1.732060e+00
2.209008e+01	1.263317e+01	-1.754084e+00
2.208484e+01	1.368968e+01	-1.791353e+00
2.207635e+01	1.475269e+01	-1.850002e+00
2.206351e+01	1.583328e+01	-1.939164e+00
2.204673e+01	1.696768e+01	-2.066279e+00
2.203816e+01	1.829677e+01	-2.191553e+00
2.210357e+01	2.031034e+01	-1.550492e+00
2.209867e+01	1.964293e+01	-6.203408e-01
2.113021e+01	3.745776e-01	-5.551338e-01
2.110611e+01	-2.584533e-01	-1.499389e+00
2.103740e+01	1.709877e+00	-2.104240e+00
2.103841e+01	3.030456e+00	-1.971646e+00
2.104954e+01	4.163099e+00	-1.842230e+00
2.105912e+01	5.244158e+00	-1.752646e+00
2.106590e+01	6.308084e+00	-1.693958e+00
2.107032e+01	7.365416e+00	-1.656557e+00
2.107295e+01	8.419982e+00	-1.634444e+00
2.107423e+01	9.473351e+00	-1.624188e+00
2.107422e+01	1.052660e+01	-1.624219e+00
2.107294e+01	1.157996e+01	-1.634544e+00
2.107031e+01	1.263451e+01	-1.656742e+00
2.106587e+01	1.369182e+01	-1.694250e+00
2.105908e+01	1.475572e+01	-1.753097e+00
2.104957e+01	1.583672e+01	-1.842344e+00
2.103868e+01	1.696894e+01	-1.969634e+00
2.103786e+01	1.828651e+01	-2.098192e+00
2.110579e+01	2.026804e+01	-1.504246e+00
2.112998e+01	1.963571e+01	-5.605269e-01
2.015269e+01	3.734830e-01	-5.054720e-01
2.011082e+01	-2.016565e-01	-1.474636e+00
2.004226e+01	1.730908e+00	-2.017028e+00
2.003896e+01	3.034907e+00	-1.881219e+00
2.004622e+01	4.162773e+00	-1.752880e+00
2.005328e+01	5.242748e+00	-1.664283e+00
2.005858e+01	6.306733e+00	-1.606193e+00
2.006221e+01	7.364431e+00	-1.569100e+00
2.006443e+01	8.419406e+00	-1.547124e+00
2.006553e+01	9.473164e+00	-1.536916e+00
2.006553e+01	1.052679e+01	-1.536940e+00
2.006442e+01	1.158054e+01	-1.547200e+00
2.006219e+01	1.263550e+01	-1.569234e+00
2.005856e+01	1.369319e+01	-1.606424e+00
2.005325e+01	1.475714e+01	-1.664594e+00
2.004626e+01	1.583706e+01	-1.752659e+00
2.003927e+01	1.696447e+01	-1.878598e+00
2.004286e+01	1.826532e+01	-2.010058e+00
2.011022e+01	2.021067e+01	-1.479556e+00
2.015228e+01	1.963671e+01	-5.107947e-01
1.916818e+01	3.663663e-01	-4.634733e-01
1.911480e+01	-1.343639e-01	-1.463036e+00
1.904804e+01	1.758404e+00	-1.934695e+00
1.904239e+01	3.042895e+00	-1.796576e+00
1.904712e+01	4.164602e+00	-1.670665e+00
1.905236e+01	5.242639e+00	-1.584140e+00
1.905648e+01	6.306121e+00	-1.527412e+00
1.905938e+01	7.363845e+00	-1.491112e+00
1.906121e+01	8.419021e+00	-1.469557e+00
1.906214e+01	9.473033e+00	-1.459529e+00
1.906214e+01	1.052692e+01	-1.459544e+00
1.906121e+01	1.158093e+01	-1.469600e+00
1.905937e+01	1.263610e+01	-1.491187e+00
1.905646e+01	1.369380e+01	-1.527544e+00
1.905234e+01	1.475726e+01	-1.584291e+00
1.904719e+01	1.583524e+01	-1.670167e+00
1.904274e+01	1.695649e+01	-1.793512e+00
1.904876e+01	1.823781e+01	-1.927059e+00
1.911404e+01	2.014266e+01	-1.468026e+00
1.916761e+01	1.964350e+01	-4.688178e-01
1.817855e+01	3.540559e-01	-4.278291e-01
1.811756e+01	-5.889659e-02	-1.458064e+00
1.805331e+01	1.789335e+00	-1.856137e+00
1.804650e+01	3.052895e+00	-1.716840e+00
1.804962e+01	4.167816e+00	-1.594461e+00
1.805356e+01	5.243470e+00	-1.510879e+00
1.805677e+01	6.306112e+00	-1.456163e+00
1.805909e+01	7.363623e+00	-1.421069e+00
1.806057e+01	8.418827e+00	-1.400133e+00
1.806134e+01	9.472961e+00	-1.390380e+00
1.806134e+01	1.052700e+01	-1.390377e+00
1.806057e+01	1.158113e+01	-1.400101e+00
1.805909e+01	1.263632e+01	-1.420965e+00
1.805676e+01	1.369381e+01	-1.456069e+00
1.805357e+01	1.475643e+01	-1.510693e+00
1.804972e+01	1.583203e+01	-1.593588e+00
1.804688e+01	1.694651e+01	-1.713461e+00
1.805411e+01	1.820696e+01	-1.848040e+00
1.811672e+01	2.006641e+01	-1.463110e+00
1.817784e+01	1.965535e+01	-4.332775e-01
1.718525e+01	3.376182e-01	-3.979706e-01
1.711919e+01	2.314500e-02	-1.454797e+00
1.705771e+01	1.821743e+00	-1.780178e+00
1.705049e+01	3.063885e+00	-1.640940e+00
1.705261e+01	4.171846e+00	-1.522993e+00
1.705565e+01	5.244931e+00	-1.442976e+00
1.705822e+01	6.306565e+00	-1.390107e+00
1.706008e+01	7.363715e+00	-1.356536e+00
1.706123e+01	8.418794e+00	-1.337049e+00
1.706187e+01	9.472940e+00	-1.327718e+00
1.706187e+01	1.052703e+01	-1.327692e+00
1.706124e+01	1.158117e+01	-1.336975e+00
1.706004e+01	1.263626e+01	-1.356967e+00
1.705819e+01	1.369336e+01	-1.390489e+00
1.705569e+01	1.475497e+01	-1.442600e+00
1.705274e+01	1.582800e+01	-1.521887e+00
1.705090e+01	1.693555e+01	-1.637342e+00
1.705857e+01	1.817470e+01	-1.771791e+00
1.711832e+01	1.998355e+01	-1.459858e+00
1.718444e+01	1.967124e+01	-4.035726e-01
1.618934e+01	3.180611e-01	-3.734218e-01
1.611991e+01	1.103566e-01	-1.449549e+00
1.606130e+01	1.854348e+00	-1.705803e+00
1.605414e+01	3.075189e+00	-1.567895e+00
1.605565e+01	4.176285e+00	-1.455113e+00
1.605808e+01	5.246787e+00	-1.379179e+00
1.606016e+01	6.307354e+00	-1.328928e+00
1.606167e+01	7.363985e+00	-1.297055e+00
1.606260e+01	8.418885e+00	-1.278763e+00
1.606312e+01	9.472967e+00	-1.269990e+00
1.606312e+01	1.052700e+01	-1.269954e+00
1.606260e+01	1.158107e+01	-1.278735e+00
1.606162e+01	1.263597e+01	-1.297782e+00
1.606013e+01	1.369260e+01	-1.329548e+00
1.605813e+01	1.475313e+01	-1.378835e+00
1.605580e+01	1.582358e+01	-1.453964e+00
1.605456e+01	1.692429e+01	-1.564181e+00
1.606219e+01	1.814231e+01	-1.697282e+00
1.611904e+01	1.989553e+01	-1.454566e+00
1.618845e+01	1.969018e+01	-3.791883e-01
1.519156e+01	2.962452e-01	-3.537866e-01
1.511995e+01	2.013412e-01	-1.439602e+00
1.506423e+01	1.886296e+00	-1.632205e+00
1.505741e+01	3.086358e+00	-1.496902e+00
1.505859e+01	4.180849e+00	-1.389917e+00
1.506060e+01	5.248841e+00	-1.318472e+00
1.506229e+01	6.308298e+00	-1.271794e+00
[...]
CELL_DATA 513
SCALARS Mu double 1
LOOKUP_TABLE default
-0.388429
-0.434839
-0.445113
-0.448285
-0.449531
-0.450112
-0.450415
-0.45058
-0.450664
-0.450691
-0.450664
-0.45058
-0.450415
-0.450112
-0.449531
-0.448285
-0.445113
-0.434839
-0.388429
-0.510131
-0.594683
-0.616974
-0.624665
-0.627855
-0.629376
-0.630171
-0.630603
-0.630824
-0.630893
-0.630827
-0.630608
-0.630178
-0.629383
-0.627864
-0.624669
-0.616953
-0.594531
-0.509768
-0.565402
-0.676259
-0.708906
-0.721304
-0.726769
-0.729481
-0.73093
-0.731726
-0.732133
-0.732261
-0.732142
-0.731746
-0.730963
-0.729527
-0.726831
-0.721339
-0.708845
-0.676044
-0.567553
-0.5965
-0.724128
-0.764294
-0.780705
-0.788374
-0.792329
-0.794491
-0.79569
-0.796305
-0.796497
-0.796315
-0.795713
-0.794527
-0.792381
-0.788441
-0.780711
-0.764093
-0.72369
-0.599882
-0.616157
-0.754595
-0.800147
-0.819703
-0.829262
-0.834366
-0.837218
-0.838823
-0.839649
-0.839907
-0.839656
-0.838838
-0.837242
-0.834395
-0.829287
-0.81961
-0.799729
-0.753863
-0.620006
-0.629462
-0.77515
-0.824573
-0.846525
-0.857613
-0.863703
-0.867176
-0.869157
-0.870184
-0.870502
-0.870184
-0.869157
-0.867173
-0.863686
-0.85756
-0.846289
-0.823906
-0.774108
-0.633433
-0.63891
-0.789621
-0.841854
-0.865629
-0.87793
-0.884838
-0.888843
-0.891155
-0.892362
-0.892735
-0.892353
-0.891135
-0.888804
-0.884767
-0.877784
-0.865235
-0.840944
-0.78829
-0.642855
-0.645861
-0.800146
-0.854446
-0.879611
-0.892871
-0.900442
-0.904899
-0.907495
-0.908859
-0.909278
-0.908838
-0.907451
-0.904819
-0.900312
-0.892624
-0.879062
-0.853314
-0.798557
-0.649722
-0.651118
-0.808004
-0.863847
-0.890074
-0.904089
-0.912208
-0.917035
-0.91987
-0.921366
-0.921824
-0.921333
-0.919799
-0.916913
-0.912002
-0.903739
-0.889378
-0.86252
-0.80619
-0.654877
-0.655184
-0.813999
-0.871014
-0.898055
-0.91267
-0.921219
-0.926358
-0.929393
-0.931
-0.93149
-0.930954
-0.929291
-0.926181
-0.920941
-0.912171
-0.897221
-0.869514
-0.811993
-0.658841
-0.658388
-0.818659
-0.87657
-0.904239
-0.919324
-0.928202
-0.933353
-0.936781
-0.938511
-0.939032
-0.938454
-0.936687
-0.933422
-0.927882
-0.918774
-0.903285
-0.874921
-0.816489
-0.661948
-0.660949
-0.822338
-0.88094
-0.909098
-0.924554
-0.933726
-0.939242
-0.942613
-0.944431
-0.944972
-0.944365
-0.94251
-0.939127
-0.933362
-0.923934
-0.908042
-0.879166
-0.820031
-0.664423
-0.663021
-0.825283
-0.884419
-0.91296
-0.928706
-0.938104
-0.943837
-0.947298
-0.94915
-0.949712
-0.94908
-0.947156
-0.943615
-0.937678
-0.92802
-0.911817
-0.882541
-0.82286
-0.666419
-0.664715
-0.827667
-0.887216
-0.916056
-0.932031
-0.941591
-0.947475
-0.951026
-0.95292
-0.953498
-0.952849
-0.950851
-0.947181
-0.941111
-0.931284
-0.91484
-0.885252
-0.825147
-0.668047
-0.666097
-0.829594
-0.889464
-0.918544
-0.934709
-0.944423
-0.950403
-0.954048
-0.955985
-0.956559
-0.955888
-0.953846
-0.950085
-0.943903
-0.933924
-0.917287
-0.887452
-0.827017
-0.669388
-0.667253
-0.831199
-0.891318
-0.920587
-0.936901
-0.946741
-0.952803
-0.956494
-0.958367
-0.959029
-0.958341
-0.955882
-0.952377
-0.946158
-0.93607
-0.919281
-0.889251
-0.828559
-0.670503
-0.668225
-0.832528
-0.892849
-0.922268
-0.938724
-0.948632
-0.95476
-0.958469
-0.960483
-0.961076
-0.960326
-0.958144
-0.954299
-0.947591
-0.937793
-0.920911
-0.890737
-0.829835
-0.671435
-0.669047
-0.833641
-0.894119
-0.923653
-0.940183
-0.950182
-0.956367
-0.960143
-0.962458
-0.963208
-0.962042
-0.959854
-0.955938
-0.949468
-0.93926
-0.922276
-0.89198
-0.830914
-0.672233
-0.669767
-0.834672
-0.895229
-0.924909
-0.941505
-0.951463
-0.957689
-0.96148
-0.963593
-0.96431
-0.963546
-0.961351
-0.957315
-0.950829
-0.940496
-0.923416
-0.893019
-0.831825
-0.672916
-0.670312
-0.835344
-0.896019
-0.925722
-0.942395
-0.952498
-0.958791
-0.962623
-0.964705
-0.965348
-0.964681
-0.962445
-0.958452
-0.951955
-0.941544
-0.924384
-0.893894
-0.832588
-0.673485
-0.670778
-0.835965
-0.896752
-0.926487
-0.943239
-0.953408
-0.959746
-0.963602
-0.965689
-0.966309
-0.965575
-0.963436
-0.959372
-0.952866
-0.942406
-0.9252
-0.894666
-0.833238
-0.673966
-0.671201
-0.836527
-0.897403
-0.927221
-0.943991
-0.954198
-0.960565
-0.964442
-0.966536
-0.96716
-0.966427
-0.964225
-0.960186
-0.953631
-0.94313
-0.925872
-0.895265
-0.833767
-0.674364
-0.671574
-0.837024
-0.897976
-0.927847
-0.944655
-0.954893
-0.961277
-0.965168
-0.967284
-0.96792
-0.96719
-0.964957
-0.96089
-0.954257
-0.943745
-0.926479
-0.895817
-0.834246
-0.674719
-0.671901
-0.837465
-0.898476
-0.928371
-0.945229
-0.955506
-0.961918
-0.965836
-0.967943
-0.9686
-0.967847
-0.965649
-0.961531
-0.954898
-0.944353
-0.927025
-0.896261
-0.834667
-0.67503
-0.672181
-0.837848
-0.89886
-0.928876
-0.945762
-0.956053
-0.96248
-0.966416
-0.968528
-0.96916
-0.968423
-0.96618
-0.96197
-0.955345
-0.944872
-0.92751
-0.896732
-0.835035
-0.675302
-0.672432
-0.838191
-0.899304
-0.929302
-0.946225
-0.956537
-0.962983
-0.966931
-0.969046
-0.969698
-0.968958
-0.966693
-0.962563
-0.955913
-0.945337
-0.927944
-0.897097
-0.835372
-0.675543

