# vtk DataFile Version 2.0
OUTPUT by 3D-VPM
ASCII
DATASET UNSTRUCTURED_GRID
POINTS 420 double
1.990219e+01	3.158564e-01	-2.365682e-01
1.998966e+01	1.097496e+00	-7.393593e-01
1.976819e+01	2.184258e+00	-5.713706e-01
1.977824e+01	3.206367e+00	-4.179013e-01
1.977056e+01	4.240291e+00	-3.567216e-01
1.975836e+01	5.281685e+00	-3.152084e-01
1.975121e+01	6.327503e+00	-2.880528e-01
1.974686e+01	7.375657e+00	-2.710437e-01
1.974437e+01	8.425016e+00	-2.610241e-01
1.974329e+01	9.474888e+00	-2.563389e-01
1.974329e+01	1.052511e+01	-2.563375e-01
1.974436e+01	1.157498e+01	-2.610196e-01
1.974685e+01	1.262434e+01	-2.710352e-01
1.975120e+01	1.367249e+01	-2.880385e-01
1.975835e+01	1.471830e+01	-3.151864e-01
1.977057e+01	1.575968e+01	-3.566875e-01
1.977829e+01	1.679359e+01	-4.178442e-01
1.976835e+01	1.781571e+01	-5.712265e-01
1.998987e+01	1.890268e+01	-7.391324e-01
1.990230e+01	1.968465e+01	-2.360552e-01
1.915212e+01	1.187652e-01	-7.902313e-01
1.958461e+01	5.942701e-01	-1.680992e+00
1.974609e+01	2.063557e+00	-1.632588e+00
1.984108e+01	3.153881e+00	-1.474566e+00
1.987211e+01	4.211248e+00	-1.387248e+00
1.988483e+01	5.264670e+00	-1.331967e+00
1.989072e+01	6.316861e+00	-1.297522e+00
1.989358e+01	7.369054e+00	-1.276402e+00
1.989497e+01	8.421361e+00	-1.264190e+00
1.989564e+01	9.473707e+00	-1.258557e+00
1.989564e+01	1.052629e+01	-1.258554e+00
1.989497e+01	1.157863e+01	-1.264181e+00
1.989358e+01	1.263094e+01	-1.276385e+00
1.989072e+01	1.368312e+01	-1.297497e+00
1.988482e+01	1.473530e+01	-1.331941e+00
1.987211e+01	1.578869e+01	-1.387226e+00
1.984115e+01	1.684603e+01	-1.474524e+00
1.974638e+01	1.793632e+01	-1.632282e+00
1.958522e+01	1.940504e+01	-1.680189e+00
1.915173e+01	1.988000e+01	-7.895299e-01
1.806278e+01	2.389390e-01	-7.238111e-01
1.819428e+01	3.115864e-01	-1.811989e+00
1.822059e+01	1.971182e+00	-1.925821e+00
1.826892e+01	3.134286e+00	-1.801819e+00
1.829629e+01	4.208549e+00	-1.712611e+00
1.830917e+01	5.265221e+00	-1.656143e+00
1.831548e+01	6.318068e+00	-1.620839e+00
1.831868e+01	7.370098e+00	-1.599031e+00
1.832029e+01	8.422025e+00	-1.586374e+00
1.832103e+01	9.473935e+00	-1.580575e+00
1.832103e+01	1.052606e+01	-1.580585e+00
1.832029e+01	1.157797e+01	-1.586405e+00
1.831869e+01	1.262989e+01	-1.599088e+00
1.831549e+01	1.368192e+01	-1.620926e+00
1.830919e+01	1.473475e+01	-1.656293e+00
1.829634e+01	1.579138e+01	-1.712792e+00
1.826908e+01	1.686561e+01	-1.801806e+00
1.822055e+01	1.802848e+01	-1.924794e+00
1.819625e+01	1.968952e+01	-1.813349e+00
1.806254e+01	1.976198e+01	-7.258157e-01
1.709070e+01	2.305241e-01	-5.980253e-01
1.711137e+01	2.322967e-01	-1.733095e+00
1.708945e+01	1.931883e+00	-1.899591e+00
1.711536e+01	3.117949e+00	-1.775514e+00
1.713542e+01	4.202291e+00	-1.682624e+00
1.714668e+01	5.262976e+00	-1.623107e+00
1.715276e+01	6.317356e+00	-1.585751e+00
1.715603e+01	7.369947e+00	-1.562627e+00
1.715773e+01	8.422036e+00	-1.549196e+00
1.715852e+01	9.473950e+00	-1.543044e+00
1.715852e+01	1.052604e+01	-1.543068e+00
1.715774e+01	1.157795e+01	-1.549273e+00
1.715604e+01	1.263003e+01	-1.562772e+00
1.715277e+01	1.368262e+01	-1.585991e+00
1.714670e+01	1.473698e+01	-1.623511e+00
1.713547e+01	1.579765e+01	-1.683075e+00
1.711553e+01	1.688193e+01	-1.775400e+00
1.708950e+01	1.806725e+01	-1.897411e+00
1.711323e+01	1.977285e+01	-1.738034e+00
1.709052e+01	1.977471e+01	-6.032823e-01
1.612126e+01	2.278117e-01	-5.295018e-01
1.609376e+01	2.418346e-01	-1.653957e+00
1.605389e+01	1.920940e+00	-1.814171e+00
1.606678e+01	3.109829e+00	-1.688700e+00
1.608089e+01	4.197635e+00	-1.594549e+00
1.609007e+01	5.260609e+00	-1.534039e+00
1.609556e+01	6.316234e+00	-1.495920e+00
1.609873e+01	7.369448e+00	-1.472244e+00
1.610046e+01	8.421835e+00	-1.458466e+00
1.610128e+01	9.473896e+00	-1.452144e+00
1.610128e+01	1.052609e+01	-1.452168e+00
1.610046e+01	1.157814e+01	-1.458545e+00
1.609873e+01	1.263053e+01	-1.472397e+00
1.609555e+01	1.368373e+01	-1.496176e+00
1.609005e+01	1.473935e+01	-1.534474e+00
1.608090e+01	1.580231e+01	-1.594970e+00
1.606694e+01	1.689002e+01	-1.688133e+00
1.605408e+01	1.807758e+01	-1.810636e+00
1.609413e+01	1.976397e+01	-1.660150e+00
1.612085e+01	1.977795e+01	-5.365348e-01
1.514458e+01	2.310054e-01	-4.754142e-01
1.509324e+01	2.873530e-01	-1.584471e+00
1.504799e+01	1.926704e+00	-1.719274e+00
1.505345e+01	3.107950e+00	-1.593743e+00
1.506311e+01	4.195125e+00	-1.500435e+00
1.507023e+01	5.258799e+00	-1.440445e+00
1.507487e+01	6.315130e+00	-1.402563e+00
1.507772e+01	7.368835e+00	-1.378964e+00
1.507935e+01	8.421535e+00	-1.365203e+00
1.508014e+01	9.473806e+00	-1.358876e+00
1.508014e+01	1.052617e+01	-1.358897e+00
1.507935e+01	1.157844e+01	-1.365272e+00
1.507771e+01	1.263114e+01	-1.379096e+00
1.507485e+01	1.368483e+01	-1.402777e+00
1.507020e+01	1.474116e+01	-1.440798e+00
1.506311e+01	1.580483e+01	-1.500648e+00
1.505363e+01	1.689187e+01	-1.592598e+00
1.504834e+01	1.807151e+01	-1.714607e+00
1.509292e+01	1.971831e+01	-1.590633e+00
1.514406e+01	1.977475e+01	-4.824071e-01
1.416070e+01	2.266925e-01	-4.324911e-01
1.409741e+01	3.519118e-01	-1.524442e+00
1.405082e+01	1.941504e+00	-1.626042e+00
1.405216e+01	3.110267e+00	-1.502180e+00
1.405874e+01	4.194548e+00	-1.411512e+00
1.406414e+01	5.257799e+00	-1.353273e+00
1.406789e+01	6.314313e+00	-1.316435e+00
1.407033e+01	7.368294e+00	-1.293423e+00
1.407177e+01	8.421238e+00	-1.279982e+00
1.407249e+01	9.473712e+00	-1.273791e+00
1.407249e+01	1.052627e+01	-1.273807e+00
1.407176e+01	1.157874e+01	-1.280035e+00
1.407032e+01	1.263168e+01	-1.293521e+00
1.406788e+01	1.368566e+01	-1.316589e+00
1.406412e+01	1.474216e+01	-1.353508e+00
1.405877e+01	1.580541e+01	-1.411471e+00
1.405239e+01	1.688954e+01	-1.500523e+00
1.405132e+01	1.805662e+01	-1.620560e+00
1.409684e+01	1.965320e+01	-1.530303e+00
1.416011e+01	1.977892e+01	-4.392972e-01
1.317109e+01	2.162652e-01	-4.002945e-01
1.310171e+01	4.271801e-01	-1.469337e+00
1.305574e+01	1.960852e+00	-1.536109e+00
1.305487e+01	3.115067e+00	-1.415648e+00
1.305943e+01	4.195382e+00	-1.329126e+00
1.306350e+01	5.257551e+00	-1.273665e+00
1.306648e+01	6.313866e+00	-1.238550e+00
1.306848e+01	7.367919e+00	-1.216570e+00
1.306971e+01	8.421005e+00	-1.203704e+00
1.307034e+01	9.473635e+00	-1.197769e+00
1.307033e+01	1.052635e+01	-1.197779e+00
1.306970e+01	1.157897e+01	-1.203737e+00
1.306848e+01	1.263206e+01	-1.216627e+00
1.306646e+01	1.368611e+01	-1.238651e+00
1.306349e+01	1.474241e+01	-1.273791e+00
1.305948e+01	1.580458e+01	-1.328855e+00
1.305515e+01	1.688473e+01	-1.413619e+00
1.305636e+01	1.803730e+01	-1.530131e+00
1.310105e+01	1.957722e+01	-1.474810e+00
1.317043e+01	1.978895e+01	-4.069055e-01
1.217738e+01	2.016420e-01	-3.767741e-01
1.210500e+01	5.078749e-01	-1.414497e+00
1.206072e+01	1.982037e+00	-1.448858e+00
1.205877e+01	3.121124e+00	-1.333438e+00
1.206201e+01	4.197105e+00	-1.252255e+00
1.206513e+01	5.257880e+00	-1.200415e+00
1.206747e+01	6.313753e+00	-1.167597e+00
1.206909e+01	7.367725e+00	-1.147012e+00
1.207011e+01	8.420860e+00	-1.134936e+00
1.207064e+01	9.473583e+00	-1.129356e+00
1.207064e+01	1.052640e+01	-1.129359e+00
1.207011e+01	1.157912e+01	-1.134944e+00
1.206909e+01	1.263226e+01	-1.147026e+00
1.206747e+01	1.368622e+01	-1.167627e+00
1.206514e+01	1.474209e+01	-1.200427e+00
1.206209e+01	1.580286e+01	-1.251804e+00
1.205908e+01	1.687868e+01	-1.331182e+00
1.206141e+01	1.801623e+01	-1.442656e+00
1.210432e+01	1.949578e+01	-1.419539e+00
1.217668e+01	1.980304e+01	-3.831648e-01
1.118086e+01	1.843515e-01	-3.604413e-01
1.110724e+01	5.903315e-01	-1.356555e+00
1.106525e+01	2.003394e+00	-1.363268e+00
1.106289e+01	3.127625e+00	-1.254433e+00
1.106531e+01	4.199300e+00	-1.179540e+00
1.106773e+01	5.258581e+00	-1.131980e+00
1.106959e+01	6.313894e+00	-1.101926e+00
1.107090e+01	7.367690e+00	-1.083032e+00
1.107172e+01	8.420799e+00	-1.071894e+00
1.107217e+01	9.473558e+00	-1.066741e+00
1.107218e+01	1.052642e+01	-1.066732e+00
1.107173e+01	1.157919e+01	-1.071855e+00
1.107091e+01	1.263229e+01	-1.082935e+00
1.106960e+01	1.368607e+01	-1.101814e+00
1.106777e+01	1.474139e+01	-1.131781e+00
1.106541e+01	1.580066e+01	-1.178869e+00
1.106322e+01	1.687219e+01	-1.252060e+00
1.106598e+01	1.799503e+01	-1.357056e+00
1.110659e+01	1.941263e+01	-1.361136e+00
1.118014e+01	1.981974e+01	-3.665858e-01
1.018244e+01	1.656931e-01	-3.501013e-01
1.010868e+01	6.717544e-01	-1.293313e+00
1.006938e+01	2.023891e+00	-1.278352e+00
1.006698e+01	3.134046e+00	-1.177552e+00
1.006887e+01	4.201664e+00	-1.109712e+00
1.007082e+01	5.259479e+00	-1.066894e+00
1.007234e+01	6.314197e+00	-1.039578e+00
1.007340e+01	7.367787e+00	-1.022592e+00
1.007404e+01	8.420805e+00	-1.012875e+00
1.007442e+01	9.473553e+00	-1.008242e+00
1.007442e+01	1.052643e+01	-1.008218e+00
1.007405e+01	1.157918e+01	-1.012809e+00
1.007338e+01	1.263221e+01	-1.022782e+00
1.007233e+01	1.368576e+01	-1.039719e+00
1.007087e+01	1.474049e+01	-1.066585e+00
1.006900e+01	1.579829e+01	-1.108925e+00
1.006733e+01	1.686578e+01	-1.175150e+00
1.007012e+01	1.797473e+01	-1.272305e+00
1.010806e+01	1.933057e+01	-1.297413e+00
1.018172e+01	1.983777e+01	-3.559578e-01
9.182731e+00	1.466966e-01	-3.447046e-01
9.109580e+00	7.498656e-01	-1.223447e+00
9.073291e+00	2.042883e+00	-1.193239e+00
9.071077e+00	3.140059e+00	-1.101829e+00
9.072631e+00	4.203985e+00	-1.041644e+00
9.074227e+00	5.260451e+00	-1.003925e+00
9.075479e+00	6.314619e+00	-9.798111e-01
9.076350e+00	7.367918e+00	-9.648486e-01
9.076868e+00	8.420852e+00	-9.564139e-01
9.077179e+00	9.473570e+00	-9.523765e-01
9.077180e+00	1.052642e+01	-9.523480e-01
9.076870e+00	1.157913e+01	-9.563695e-01
9.076320e+00	1.263206e+01	-9.651846e-01
9.075466e+00	1.368536e+01	-9.800667e-01
9.074284e+00	1.473951e+01	-1.003635e+00
9.072766e+00	1.579597e+01	-1.040861e+00
9.071429e+00	1.685978e+01	-1.099486e+00
9.074027e+00	1.795595e+01	-1.187509e+00
9.109016e+00	1.925192e+01	-1.227056e+00
9.182027e+00	1.985614e+01	-3.502176e-01
8.182168e+00	1.281603e-01	-3.432815e-01
8.110222e+00	8.227367e-01	-1.146241e+00
8.077241e+00	2.059949e+00	-1.107160e+00
8.075316e+00	3.145458e+00	-1.026400e+00
8.076639e+00	4.206123e+00	-9.743497e-01
8.077978e+00	5.261390e+00	-9.419775e-01
8.078996e+00	6.315040e+00	-9.215755e-01
8.079709e+00	7.368116e+00	-9.087770e-01
8.080150e+00	8.420919e+00	-9.013324e-01
8.080419e+00	9.473582e+00	-8.978823e-01
8.080423e+00	1.052640e+01	-8.978633e-01
8.080160e+00	1.157906e+01	-9.013029e-01
8.079711e+00	1.263187e+01	-9.088329e-01
8.079013e+00	1.368493e+01	-9.215438e-01
8.078040e+00	1.473857e+01	-9.416761e-01
8.076779e+00	1.579383e+01	-9.735673e-01
8.075661e+00	1.685440e+01	-1.024188e+00
8.077950e+00	1.793910e+01	-1.101873e+00
8.109715e+00	1.917859e+01	-1.149362e+00
8.181500e+00	1.987407e+01	-3.483862e-01
7.181054e+00	1.106907e-01	-3.448812e-01
7.110878e+00	8.886948e-01	-1.061365e+00
7.081515e+00	2.074809e+00	-1.019382e+00
7.079924e+00	3.150112e+00	-9.504046e-01
7.081075e+00	4.207983e+00	-9.068480e-01
7.082211e+00	5.262233e+00	-8.799428e-01
7.083052e+00	6.315440e+00	-8.630874e-01
7.083637e+00	7.368295e+00	-8.525500e-01
7.084002e+00	8.421006e+00	-8.463653e-01
7.084235e+00	9.473596e+00	-8.435010e-01
7.084241e+00	1.052638e+01	-8.435000e-01
7.084017e+00	1.157898e+01	-8.463418e-01
7.083656e+00	1.263169e+01	-8.525043e-01
7.083088e+00	1.368454e+01	-8.629575e-01
7.082279e+00	1.473774e+01	-8.796282e-01
7.081215e+00	1.579197e+01	-9.060914e-01
7.080255e+00	1.684976e+01	-9.483783e-01
7.082181e+00	1.792446e+01	-1.014640e+00
7.110433e+00	1.911227e+01	-1.064009e+00
7.180437e+00	1.989097e+01	-3.495071e-01
6.179624e+00	9.473524e-02	-3.484830e-01
6.111875e+00	9.462648e-01	-9.686295e-01
6.086478e+00	2.087260e+00	-9.290664e-01
6.085234e+00	3.153936e+00	-8.728386e-01
6.086235e+00	4.209504e+00	-8.380046e-01
6.087192e+00	5.262925e+00	-8.166417e-01
6.087887e+00	6.315776e+00	-8.033029e-01
6.088359e+00	7.368461e+00	-7.949945e-01
6.088649e+00	8.421082e+00	-7.901254e-01
6.088845e+00	9.473625e+00	-7.878524e-01
6.088852e+00	1.052635e+01	-7.878485e-01
6.088663e+00	1.157890e+01	-7.901146e-01
6.088379e+00	1.263152e+01	-7.949521e-01
6.087925e+00	1.368420e+01	-8.031633e-01
6.087260e+00	1.473704e+01	-8.163444e-01
6.086368e+00	1.579045e+01	-8.373233e-01
6.085538e+00	1.684596e+01	-8.710710e-01
6.087082e+00	1.791221e+01	-9.249856e-01
6.111493e+00	1.905443e+01	-9.708421e-01
6.179070e+00	1.990640e+01	-3.525705e-01
5.178093e+00	8.058605e-02	-3.529076e-01
5.113683e+00	9.940802e-01	-8.678086e-01
5.092661e+00	2.097127e+00	-8.351872e-01
5.091766e+00	3.156865e+00	-7.924127e-01
5.092618e+00	4.210646e+00	-7.663454e-01
5.093393e+00	5.263446e+00	-7.504753e-01
5.093940e+00	6.316035e+00	-7.405849e-01
5.094304e+00	7.368590e+00	-7.344284e-01
5.094535e+00	8.421138e+00	-7.307787e-01
5.094694e+00	9.473653e+00	-7.290768e-01
5.094684e+00	1.052634e+01	-7.291207e-01
5.094574e+00	1.157881e+01	-7.306118e-01
5.094370e+00	1.263141e+01	-7.341747e-01
5.093980e+00	1.368395e+01	-7.404541e-01
5.093455e+00	1.473653e+01	-7.502213e-01
5.092738e+00	1.578931e+01	-7.657633e-01
5.092035e+00	1.684305e+01	-7.909362e-01
5.093189e+00	1.790252e+01	-8.318352e-01
5.113365e+00	1.900641e+01	-8.696251e-01
5.177616e+00	1.992011e+01	-3.563941e-01
4.176748e+00	6.831055e-02	-3.565818e-01
4.117151e+00	1.030792e+00	-7.582132e-01
4.101035e+00	2.104238e+00	-7.360300e-01
4.100484e+00	3.158859e+00	-7.069802e-01
4.101155e+00	4.211398e+00	-6.894638e-01
4.101725e+00	5.263785e+00	-6.788369e-01
4.102114e+00	6.316206e+00	-6.722088e-01
4.102366e+00	7.368684e+00	-6.680596e-01
4.102521e+00	8.421191e+00	-6.655754e-01
4.102644e+00	9.473659e+00	-6.644301e-01
4.102643e+00	1.052632e+01	-6.644641e-01
4.102555e+00	1.157879e+01	-6.653980e-01
4.102417e+00	1.263130e+01	-6.677797e-01
4.102193e+00	1.368375e+01	-6.718787e-01
4.101829e+00	1.473621e+01	-6.784145e-01
4.101266e+00	1.578857e+01	-6.889552e-01
4.100713e+00	1.684107e+01	-7.057951e-01
4.101474e+00	1.789555e+01	-7.334378e-01
4.116905e+00	1.896955e+01	-7.596482e-01
4.176362e+00	1.993203e+01	-3.593991e-01
3.176201e+00	5.773712e-02	-3.570154e-01
3.124267e+00	1.054990e+00	-6.378109e-01
3.113752e+00	2.108458e+00	-6.280189e-01
3.113499e+00	3.159931e+00	-6.121782e-01
3.113918e+00	4.211780e+00	-6.025587e-01
3.114241e+00	5.263959e+00	-5.966955e-01
3.114445e+00	6.316300e+00	-5.930126e-01
3.114572e+00	7.368735e+00	-5.906864e-01
3.114624e+00	8.421231e+00	-5.893803e-01
3.114688e+00	9.473659e+00	-5.888963e-01
3.114716e+00	1.052631e+01	-5.888115e-01
3.114663e+00	1.157877e+01	-5.892561e-01
3.114597e+00	1.263125e+01	-5.905969e-01
3.114503e+00	1.368368e+01	-5.927372e-01
3.114315e+00	1.473602e+01	-5.963291e-01
3.114004e+00	1.578819e+01	-6.021535e-01
3.113671e+00	1.684001e+01	-6.113186e-01
3.114078e+00	1.789144e+01	-6.262385e-01
3.124102e+00	1.894526e+01	-6.389050e-01
3.175922e+00	1.994236e+01	-3.591129e-01
2.178718e+00	4.762280e-02	-3.464183e-01
2.141063e+00	1.065618e+00	-5.001514e-01
2.136863e+00	2.110117e+00	-5.015442e-01
2.136760e+00	3.160337e+00	-4.968217e-01
2.136865e+00	4.211926e+00	-4.936904e-01
2.136936e+00	5.264022e+00	-4.917121e-01
2.136972e+00	6.316334e+00	-4.904485e-01
2.136997e+00	7.368748e+00	-4.896337e-01
2.137003e+00	8.421233e+00	-4.891892e-01
2.137035e+00	9.473683e+00	-4.890433e-01
2.137041e+00	1.052631e+01	-4.889987e-01
2.137009e+00	1.157876e+01	-4.891297e-01
2.137009e+00	1.263123e+01	-4.895827e-01
2.137001e+00	1.368365e+01	-4.903454e-01
2.136976e+00	1.473595e+01	-4.915548e-01
2.136925e+00	1.578805e+01	-4.934336e-01
2.136865e+00	1.683962e+01	-4.963137e-01
2.137046e+00	1.788985e+01	-5.005978e-01
2.141003e+00	1.893459e+01	-5.009282e-01
2.178571e+00	1.995231e+01	-3.477132e-01
1.201057e+00	0.000000e+00	-3.090170e-01
1.201057e+00	1.052632e+00	-3.090170e-01
1.201057e+00	2.105263e+00	-3.090170e-01
1.201057e+00	3.157895e+00	-3.090170e-01
1.201057e+00	4.210526e+00	-3.090170e-01
1.201057e+00	5.263158e+00	-3.090170e-01
1.201057e+00	6.315789e+00	-3.090170e-01
1.201057e+00	7.368421e+00	-3.090170e-01
1.201057e+00	8.421053e+00	-3.090170e-01
1.201057e+00	9.473684e+00	-3.090170e-01
1.201057e+00	1.052632e+01	-3.090170e-01
1.201057e+00	1.157895e+01	-3.090170e-01
1.201057e+00	1.263158e+01	-3.090170e-01
1.201057e+00	1.368421e+01	-3.090170e-01
1.201057e+00	1.473684e+01	-3.090170e-01
1.201057e+00	1.578947e+01	-3.090170e-01
1.201057e+00	1.684211e+01	-3.090170e-01
1.201057e+00	1.789474e+01	-3.090170e-01
1.201057e+00	1.894737e+01	-3.090170e-01
1.201057e+00	2.000000e+01	-3.090170e-01
9.510565e-01	0.000000e+00	-3.090170e-01
9.510565e-01	1.052632e+00	-3.090170e-01
9.510565e-01	2.105263e+00	-3.090170e-01
9.510565e-01	3.157895e+00	-3.090170e-01
9.510565e-01	4.210526e+00	-3.090170e-01
9.510565e-01	5.263158e+00	-3.090170e-01
9.510565e-01	6.315789e+00	-3.090170e-01
9.510565e-01	7.368421e+00	-3.090170e-01
9.510565e-01	8.421053e+00	-3.090170e-01
9.510565e-01	9.473684e+00	-3.090170e-01
9.510565e-01	1.052632e+01	-3.090170e-01
9.510565e-01	1.157895e+01	-3.090170e-01
9.510565e-01	1.263158e+01	-3.090170e-01
9.510565e-01	1.368421e+01	-3.090170e-01
9.510565e-01	1.473684e+01	-3.090170e-01
9.510565e-01	1.578947e+01	-3.090170e-01
9.510565e-01	1.684211e+01	-3.090170e-01
9.510565e-01	1.789474e+01	-3.090170e-01
9.510565e-01	1.894737e+01	-3.090170e-01
9.510565e-01	2.000000e+01	-3.090170e-01

CELLS 380 1900
4 20 0 1 21 
4 21 1 2 22 
4 22 2 3 23 
4 23 3 4 24 
4 24 4 5 25 
4 25 5 6 26 
4 26 6 7 27 
4 27 7 8 28 
4 28 8 9 29 
4 29 9 10 30 
4 30 10 11 31 
4 31 11 12 32 
4 32 12 13 33 
4 33 13 14 34 
4 34 14 15 35 
4 35 15 16 36 
4 36 16 17 37 
4 37 17 18 38 
4 38 18 19 39 
4 40 20 21 41 
4 41 21 22 42 
4 42 22 23 43 
4 43 23 24 44 
4 44 24 25 45 
4 45 25 26 46 
4 46 26 27 47 
4 47 27 28 48 
4 48 28 29 49 
4 49 29 30 50 
4 50 30 31 51 
4 51 31 32 52 
4 52 32 33 53 
4 53 33 34 54 
4 54 34 35 55 
4 55 35 36 56 
4 56 36 37 57 
4 57 37 38 58 
4 58 38 39 59 
4 60 40 41 61 
4 61 41 42 62 
4 62 42 43 63 
4 63 43 44 64 
4 64 44 45 65 
4 65 45 46 66 
4 66 46 47 67 
4 67 47 48 68 
4 68 48 49 69 
4 69 49 50 70 
4 70 50 51 71 
4 71 51 52 72 
4 72 52 53 73 
4 73 53 54 74 
4 74 54 55 75 
4 75 55 56 76 
4 76 56 57 77 
4 77 57 58 78 
4 78 58 59 79 
4 80 60 61 81 
4 81 61 62 82 
4 82 62 63 83 
4 83 63 64 84 
4 84 64 65 85 
4 85 65 66 86 
4 86 66 67 87 
4 87 67 68 88 
4 88 68 69 89 
4 89 69 70 90 
4 90 70 71 91 
4 91 71 72 92 
4 92 72 73 93 
4 93 73 74 94 
4 94 74 75 95 
4 95 75 76 96 
4 96 76 77 97 
4 97 77 78 98 
4 98 78 79 99 
4 100 80 81 101 
4 101 81 82 102 
4 102 82 83 103 
4 103 83 84 104 
4 104 84 85 105 
4 105 85 86 106 
4 106 86 87 107 
4 107 87 88 108 
4 108 88 89 109 
4 109 89 90 110 
4 110 90 91 111 
4 111 91 92 112 
4 112 92 93 113 
4 113 93 94 114 
4 114 94 95 115 
4 115 95 96 116 
4 116 96 97 117 
4 117 97 98 118 
4 118 98 99 119 
4 120 100 101 121 
4 121 101 102 122 
4 122 102 103 123 
4 123 103 104 124 
4 124 104 105 125 
4 125 105 106 126 
4 126 106 107 127 
4 127 107 108 128 
4 128 108 109 129 
4 129 109 110 130 
4 130 110 111 131 
4 131 111 112 132 
4 132 112 113 133 
4 133 113 114 134 
4 134 114 115 135 
4 135 115 116 136 
4 136 116 117 137 
4 137 117 118 138 
4 138 118 119 139 
4 140 120 121 141 
4 141 121 122 142 
4 142 122 123 143 
4 143 123 124 144 
4 144 124 125 145 
4 145 125 126 146 
4 146 126 127 147 
4 147 127 128 148 
4 148 128 129 149 
4 149 129 130 150 
4 150 130 131 151 
4 151 131 132 152 
4 152 132 133 153 
4 153 133 134 154 
4 154 134 135 155 
4 155 135 136 156 
4 156 136 137 157 
4 157 137 138 158 
4 158 138 139 159 
4 160 140 141 161 
4 161 141 142 162 
4 162 142 143 163 
4 163 143 144 164 
4 164 144 145 165 
4 165 145 146 166 
4 166 146 147 167 
4 167 147 148 168 
4 168 148 149 169 
4 169 149 150 170 
4 170 150 151 171 
4 171 151 152 172 
4 172 152 153 173 
4 173 153 154 174 
4 174 154 155 175 
4 175 155 156 176 
4 176 156 157 177 
4 177 157 158 178 
4 178 158 159 179 
4 180 160 161 181 
4 181 161 162 182 
4 182 162 163 183 
4 183 163 164 184 
4 184 164 165 185 
4 185 165 166 186 
4 186 166 167 187 
4 187 167 168 188 
4 188 168 169 189 
4 189 169 170 190 
4 190 170 171 191 
4 191 171 172 192 
4 192 172 173 193 
4 193 173 174 194 
4 194 174 175 195 
4 195 175 176 196 
4 196 176 177 197 
4 197 177 178 198 
4 198 178 179 199 
4 200 180 181 201 
4 201 181 182 202 
4 202 182 183 203 
4 203 183 184 204 
4 204 184 185 205 
4 205 185 186 206 
4 206 186 187 207 
4 207 187 188 208 
4 208 188 189 209 
4 209 189 190 210 
4 210 190 191 211 
4 211 191 192 212 
4 212 192 193 213 
4 213 193 194 214 
4 214 194 195 215 
4 215 195 196 216 
4 216 196 197 217 
4 217 197 198 218 
4 218 198 199 219 
4 220 200 201 221 
4 221 201 202 222 
4 222 202 203 223 
4 223 203 204 224 
4 224 204 205 225 
4 225 205 206 226 
4 226 206 207 227 
4 227 207 208 228 
4 228 208 209 229 
4 229 209 210 230 
4 230 210 211 231 
4 231 211 212 232 
4 232 212 213 233 
4 233 213 214 234 
4 234 214 215 235 
4 235 215 216 236 
4 236 216 217 237 
4 237 217 218 238 
4 238 218 219 239 
4 240 220 221 241 
4 241 221 222 242 
4 242 222 223 243 
4 243 223 224 244 
4 244 224 225 245 
4 245 225 226 246 
4 246 226 227 247 
4 247 227 228 248 
4 248 228 229 249 
4 249 229 230 250 
4 250 230 231 251 
4 251 231 232 252 
4 252 232 233 253 
4 253 233 234 254 
4 254 234 235 255 
4 255 235 236 256 
4 256 236 237 257 
4 257 237 238 258 
4 258 238 239 259 
4 260 240 241 261 
4 261 241 242 262 
4 262 242 243 263 
4 263 243 244 264 
4 264 244 245 265 
4 265 245 246 266 
4 266 246 247 267 
4 267 247 248 268 
4 268 248 249 269 
4 269 249 250 270 
4 270 250 251 271 
4 271 251 252 272 
4 272 252 253 273 
4 273 253 254 274 
4 274 254 255 275 
4 275 255 256 276 
4 276 256 257 277 
4 277 257 258 278 
4 278 258 259 279 
4 280 260 261 281 
4 281 261 262 282 
4 282 262 263 283 
4 283 263 264 284 
4 284 264 265 285 
4 285 265 266 286 
4 286 266 267 287 
4 287 267 268 288 
4 288 268 269 289 
4 289 269 270 290 
4 290 270 271 291 
4 291 271 272 292 
4 292 272 273 293 
4 293 273 274 294 
4 294 274 275 295 
4 295 275 276 296 
4 296 276 277 297 
4 297 277 278 298 
4 298 278 279 299 
4 300 280 281 301 
4 301 281 282 302 
4 302 282 283 303 
4 303 283 284 304 
4 304 284 285 305 
4 305 285 286 306 
4 306 286 287 307 
4 307 287 288 308 
4 308 288 289 309 
4 309 289 290 310 
4 310 290 291 311 
4 311 291 292 312 
4 312 292 293 313 
4 313 293 294 314 
4 314 294 295 315 
4 315 295 296 316 
4 316 296 297 317 
4 317 297 298 318 
4 318 298 299 319 
4 320 300 301 321 
4 321 301 302 322 
4 322 302 303 323 
4 323 303 304 324 
4 324 304 305 325 
4 325 305 306 326 
4 326 306 307 327 
4 327 307 308 328 
4 328 308 309 329 
4 329 309 310 330 
4 330 310 311 331 
4 331 311 312 332 
4 332 312 313 333 
4 333 313 314 334 
4 334 314 315 335 
4 335 315 316 336 
4 336 316 317 337 
4 337 317 318 338 
4 338 318 319 339 
4 340 320 321 341 
4 341 321 322 342 
4 342 322 323 343 
4 343 323 324 344 
4 344 324 325 345 
4 345 325 326 346 
4 346 326 327 347 
4 347 327 328 348 
4 348 328 329 349 
4 349 329 330 350 
4 350 330 331 351 
4 351 331 332 352 
4 352 332 333 353 
4 353 333 334 354 
4 354 334 335 355 
4 355 335 336 356 
4 356 336 337 357 
4 357 337 338 358 
4 358 338 339 359 
4 360 340 341 361 
4 361 341 342 362 
4 362 342 343 363 
4 363 343 344 364 
4 364 344 345 365 
4 365 345 346 366 
4 366 346 347 367 
4 367 347 348 368 
4 368 348 349 369 
4 369 349 350 370 
4 370 350 351 371 
4 371 351 352 372 
4 372 352 353 373 
4 373 353 354 374 
4 374 354 355 375 
4 375 355 356 376 
4 376 356 357 377 
4 377 357 358 378 
4 378 358 359 379 
4 380 360 361 381 
4 381 361 362 382 
4 382 362 363 383 
4 383 363 364 384 
4 384 364 365 385 
4 385 365 366 386 
4 386 366 367 387 
4 387 367 368 388 
4 388 368 369 389 
4 389 369 370 390 
4 390 370 371 391 
4 391 371 372 392 
4 392 372 373 393 
4 393 373 374 394 
4 394 374 375 395 
4 395 375 376 396 
4 396 376 377 397 
4 397 377 378 398 
4 398 378 379 399 
4 400 380 381 401 
4 401 381 382 402 
4 402 382 383 403 
4 403 383 384 404 
4 404 384 385 405 
4 405 385 386 406 
4 406 386 387 407 
4 407 387 388 408 
4 408 388 389 409 
4 409 389 390 410 
4 410 390 391 411 
4 411 391 392 412 
4 412 392 393 413 
4 413 393 394 414 
4 414 394 395 415 
4 415 395 396 416 
4 416 396 397 417 
4 417 397 398 418 
4 418 398 399 419 

CELL_TYPES 380
9
9
9
9
9
9
9
9
9
9
9
9
9
9
9
9
9
9
9
9
9
9
9
9
9
9
9
9
9
9
9
9
9
9
9
9
9
9
9
9
9
9
9
9
9
9
9
9
9
9
9
9
9
9
9
9
9
9
9
9
9
9
9
9
9
9
9
9
9
9
9
9
9
9
9
9
9
9
9
9
9
9
9
9
9
9
9
9
9
9
9
9
9
9
9
9
9
9
9
9
9
9
9
9
9
9
9
9
9
9
9
9
9
9
9
9
9
9
9
9
9
9
9
9
9
9
9
9
9
9
9
9
9
9
9
9
9
9
9
9
9
9
9
9
9
9
9
9
9
9
9
9
9
9
9
9
9
9
9
9
9
9
9
9
9
9
9
9
9
9
9
9
9
9
9
9
9
9
9
9
9
9
9
9
9
9
9
9
9
9
9
9
9
9
9
9
9
9
9
9
9
9
9
9
9
9
9
9
9
9
9
9
9
9
9
9
9
9
9
9
9
9
9
9
9
9
9
9
9
9
9
9
9
9
9
9
9
9
9
9
9
9
9
9
9
9
9
9
9
9
9
9
9
9
9
9
9
9
9
9
9
9
9
9
9
9
9
9
9
9
9
9
9
9
9
9
9
9
9
9
9
9
9
9
9
9
9
9
9
9
9
9
9
9
9
9
9
9
9
9
9
9
9
9
9
9
9
9
9
9
9
9
9
9
9
9
9
9
9
9
9
9
9
9
9
9
9
9
9
9
9
9
9
9
9
9
9
9
9
9
9
9
9
9
9
9
9
9
9
9
9
9
9
9
9
9
9
9
9
9
9
9
9
9
9
9
9
9
9
9
9
9
9
9
9
9
9
9
9
9

CELL_DATA 380
SCALARS Mu double 1
LOOKUP_TABLE default
-0.388429
-0.434839
-0.445113
-0.448285
-0.449531
-0.450112
-0.450415
-0.45058
-0.450664
-0.450691
-0.450664
-0.45058
-0.450415
-0.450112
-0.449531
-0.448285
-0.445113
-0.434839
-0.388429
-0.510131
-0.594683
-0.616974
-0.624665
-0.627855
-0.629376
-0.630171
-0.630603
-0.630824
-0.630893
-0.630827
-0.630608
-0.630178
-0.629383
-0.627864
-0.624669
-0.616953
-0.594531
-0.509768
-0.565402
-0.676259
-0.708906
-0.721304
-0.726769
-0.729481
-0.73093
-0.731726
-0.732133
-0.732261
-0.732142
-0.731746
-0.730963
-0.729527
-0.726831
-0.721339
-0.708845
-0.676044
-0.567553
-0.5965
-0.724128
-0.764294
-0.780705
-0.788374
-0.792329
-0.794491
-0.79569
-0.796305
-0.796497
-0.796315
-0.795713
-0.794527
-0.792381
-0.788441
-0.780711
-0.764093
-0.72369
-0.599882
-0.616157
-0.754595
-0.800147
-0.819703
-0.829262
-0.834366
-0.837218
-0.838823
-0.839649
-0.839907
-0.839656
-0.838838
-0.837242
-0.834395
-0.829287
-0.81961
-0.799729
-0.753863
-0.620006
-0.629462
-0.77515
-0.824573
-0.846525
-0.857613
-0.863703
-0.867176
-0.869157
-0.870184
-0.870502
-0.870184
-0.869157
-0.867173
-0.863686
-0.85756
-0.846289
-0.823906
-0.774108
-0.633433
-0.63891
-0.789621
-0.841854
-0.865629
-0.87793
-0.884838
-0.888843
-0.891155
-0.892362
-0.892735
-0.892353
-0.891135
-0.888804
-0.884767
-0.877784
-0.865235
-0.840944
-0.78829
-0.642855
-0.645861
-0.800146
-0.854446
-0.879611
-0.892871
-0.900442
-0.904899
-0.907495
-0.908859
-0.909278
-0.908838
-0.907451
-0.904819
-0.900312
-0.892624
-0.879062
-0.853314
-0.798557
-0.649722
-0.651118
-0.808004
-0.863847
-0.890074
-0.904089
-0.912208
-0.917035
-0.91987
-0.921366
-0.921824
-0.921333
-0.919799
-0.916913
-0.912002
-0.903739
-0.889378
-0.86252
-0.80619
-0.654877
-0.655184
-0.813999
-0.871014
-0.898055
-0.91267
-0.921219
-0.926358
-0.929393
-0.931
-0.93149
-0.930954
-0.929291
-0.926181
-0.920941
-0.912171
-0.897221
-0.869514
-0.811993
-0.658841
-0.658388
-0.818659
-0.87657
-0.904239
-0.919324
-0.928202
-0.933353
-0.936781
-0.938511
-0.939032
-0.938454
-0.936687
-0.933422
-0.927882
-0.918774
-0.903285
-0.874921
-0.816489
-0.661948
-0.660949
-0.822338
-0.88094
-0.909098
-0.924554
-0.933726
-0.939242
-0.942613
-0.944431
-0.944972
-0.944365
-0.94251
-0.939127
-0.933362
-0.923934
-0.908042
-0.879166
-0.820031
-0.664423
-0.663021
-0.825283
-0.884419
-0.91296
-0.928706
-0.938104
-0.943837
-0.947298
-0.94915
-0.949712
-0.94908
-0.947156
-0.943615
-0.937678
-0.92802
-0.911817
-0.882541
-0.82286
-0.666419
-0.664715
-0.827667
-0.887216
-0.916056
-0.932031
-0.941591
-0.947475
-0.951026
-0.95292
-0.953498
-0.952849
-0.950851
-0.947181
-0.941111
-0.931284
-0.91484
-0.885252
-0.825147
-0.668047
-0.666097
-0.829594
-0.889464
-0.918544
-0.934709
-0.944423
-0.950403
-0.954048
-0.955985
-0.956559
-0.955888
-0.953846
-0.950085
-0.943903
-0.933924
-0.917287
-0.887452
-0.827017
-0.669388
-0.667253
-0.831199
-0.891318
-0.920587
-0.936901
-0.946741
-0.952803
-0.956494
-0.958367
-0.959029
-0.958341
-0.955882
-0.952377
-0.946158
-0.93607
-0.919281
-0.889251
-0.828559
-0.670503
-0.668225
-0.832528
-0.892849
-0.922268
-0.938724
-0.948632
-0.95476
-0.958469
-0.960483
-0.961076
-0.960326
-0.958144
-0.954299
-0.947591
-0.937793
-0.920911
-0.890737
-0.829835
-0.671435
-0.669047
-0.833641
-0.894119
-0.923653
-0.940183
-0.950182
-0.956367
-0.960143
-0.962458
-0.963208
-0.962042
-0.959854
-0.955938
-0.949468
-0.93926
-0.922276
-0.89198
-0.830914
-0.672233
-0.669767
-0.834672
-0.895229
-0.924909
-0.941505
-0.951463
-0.957689
-0.96148
-0.963593
-0.96431
-0.963546
-0.961351
-0.957315
-0.950829
-0.940496
-0.923416
-0.893019
-0.831825
-0.672916

