# vtk DataFile Version 2.0
OUTPUT by 3D-VPM
ASCII
DATASET UNSTRUCTURED_GRID
POINTS 1020 double
4.900902e+01	9.776297e-01	-2.319356e+00
4.985624e+01	1.246586e+00	-1.709380e+00
4.937212e+01	2.473315e+00	-1.958624e+00
4.918531e+01	3.462011e+00	-1.475681e+00
4.937682e+01	4.414994e+00	-1.245331e+00
4.936545e+01	5.412472e+00	-1.203284e+00
4.932705e+01	6.414419e+00	-1.124062e+00
4.932077e+01	7.429669e+00	-1.070312e+00
4.931404e+01	8.454567e+00	-1.042738e+00
4.930983e+01	9.484285e+00	-1.029118e+00
4.930984e+01	1.051570e+01	-1.029123e+00
4.931406e+01	1.154541e+01	-1.042752e+00
4.932080e+01	1.257029e+01	-1.070324e+00
4.932709e+01	1.358551e+01	-1.124047e+00
4.936552e+01	1.458742e+01	-1.203205e+00
4.937697e+01	1.558483e+01	-1.245178e+00
4.918577e+01	1.653792e+01	-1.475268e+00
4.937323e+01	1.752653e+01	-1.958205e+00
4.986553e+01	1.875855e+01	-1.703610e+00
4.900125e+01	1.901036e+01	-2.321309e+00
4.883476e+01	7.376198e-01	-1.556691e+00
4.995217e+01	2.433563e-01	-1.171975e+00
4.971974e+01	2.033316e+00	-8.590822e-01
4.987616e+01	2.999222e+00	-4.772400e-01
5.003686e+01	4.135682e+00	-2.520556e-01
4.996520e+01	5.225245e+00	-1.236740e-01
4.993449e+01	6.285034e+00	-2.938803e-02
4.991747e+01	7.348669e+00	2.908250e-02
4.990506e+01	8.410095e+00	6.250928e-02
4.989936e+01	9.470038e+00	7.813306e-02
4.989935e+01	1.052993e+01	7.813647e-02
4.990503e+01	1.158987e+01	6.252131e-02
4.991743e+01	1.265128e+01	2.911281e-02
4.993444e+01	1.371488e+01	-2.932346e-02
4.996520e+01	1.477463e+01	-1.235660e-01
5.003698e+01	1.586412e+01	-2.519191e-01
4.987668e+01	1.700065e+01	-4.769385e-01
4.971894e+01	1.796690e+01	-8.589929e-01
4.995368e+01	1.975633e+01	-1.169760e+00
4.884460e+01	1.926884e+01	-1.553637e+00
4.761898e+01	3.747968e-01	-1.893469e+00
4.811112e+01	5.878103e-02	-8.003269e-01
4.900392e+01	1.305311e+00	-3.252419e+00
4.943067e+01	3.016862e+00	-2.987589e+00
4.961200e+01	4.147517e+00	-2.715232e+00
4.969330e+01	5.240560e+00	-2.559890e+00
4.974043e+01	6.311482e+00	-2.435884e+00
4.976598e+01	7.367567e+00	-2.354389e+00
4.977914e+01	8.421035e+00	-2.306582e+00
4.978489e+01	9.473669e+00	-2.284104e+00
4.978489e+01	1.052625e+01	-2.284120e+00
4.977915e+01	1.157887e+01	-2.306634e+00
4.976598e+01	1.263231e+01	-2.354486e+00
4.974039e+01	1.368834e+01	-2.436053e+00
4.969323e+01	1.475912e+01	-2.560186e+00
4.961203e+01	1.585190e+01	-2.715615e+00
4.943137e+01	1.698225e+01	-2.987399e+00
4.900522e+01	1.869254e+01	-3.251846e+00
4.811457e+01	1.993622e+01	-8.007134e-01
4.762171e+01	1.962817e+01	-1.892442e+00
4.661750e+01	5.527709e-01	-1.676375e+00
4.723906e+01	-4.795841e-02	-6.208405e-01
4.733247e+01	8.473997e-01	-3.401837e+00
4.750575e+01	2.803685e+00	-3.495394e+00
4.765708e+01	4.106501e+00	-3.318487e+00
4.774069e+01	5.232060e+00	-3.172570e+00
4.778649e+01	6.308855e+00	-3.069885e+00
4.781260e+01	7.368874e+00	-3.001554e+00
4.782673e+01	8.422655e+00	-2.960277e+00
4.783304e+01	9.474281e+00	-2.940943e+00
4.783305e+01	1.052559e+01	-2.940993e+00
4.782679e+01	1.157720e+01	-2.960440e+00
4.781271e+01	1.263095e+01	-3.001861e+00
4.778666e+01	1.369089e+01	-3.070388e+00
4.774104e+01	1.476753e+01	-3.173426e+00
4.765782e+01	1.589278e+01	-3.319487e+00
4.750723e+01	1.719462e+01	-3.495654e+00
4.733430e+01	1.914753e+01	-3.403177e+00
4.724532e+01	2.005605e+01	-6.168692e-01
4.662153e+01	1.945352e+01	-1.671168e+00
4.574434e+01	4.400282e-01	-1.388522e+00
4.620909e+01	-3.234106e-01	-4.293915e-01
4.612859e+01	6.220139e-01	-3.292894e+00
4.618408e+01	2.668439e+00	-3.495740e+00
4.627437e+01	4.039113e+00	-3.332553e+00
4.633591e+01	5.200574e+00	-3.183184e+00
4.637318e+01	6.293112e+00	-3.075443e+00
4.639499e+01	7.360821e+00	-3.003451e+00
4.640705e+01	8.418876e+00	-2.959763e+00
4.641249e+01	9.473163e+00	-2.939242e+00
4.641250e+01	1.052667e+01	-2.939310e+00
4.640709e+01	1.158093e+01	-2.959984e+00
4.639506e+01	1.263892e+01	-3.003872e+00
4.637329e+01	1.370652e+01	-3.076136e+00
4.633618e+01	1.479885e+01	-3.184366e+00
4.627500e+01	1.595987e+01	-3.333826e+00
4.618522e+01	1.732888e+01	-3.495549e+00
4.612963e+01	1.936988e+01	-3.295493e+00
4.621221e+01	2.033426e+01	-4.245071e-01
4.574846e+01	1.957066e+01	-1.380837e+00
4.482915e+01	3.618782e-01	-1.337188e+00
4.515753e+01	-2.841819e-01	-2.838165e-01
4.505450e+01	5.254198e-01	-3.180165e+00
4.506046e+01	2.592520e+00	-3.409955e+00
4.511448e+01	3.993528e+00	-3.244684e+00
4.515814e+01	5.174540e+00	-3.088909e+00
4.518755e+01	6.278468e+00	-2.975724e+00
4.520591e+01	7.352747e+00	-2.899834e+00
4.521647e+01	8.414841e+00	-2.853696e+00
4.522134e+01	9.471932e+00	-2.831992e+00
4.522134e+01	1.052787e+01	-2.832064e+00
4.521648e+01	1.158493e+01	-2.853929e+00
4.520593e+01	1.264695e+01	-2.900271e+00
4.518758e+01	1.372109e+01	-2.976412e+00
4.515827e+01	1.482478e+01	-3.090035e+00
4.511486e+01	1.600526e+01	-3.245590e+00
4.506118e+01	1.740404e+01	-3.408581e+00
4.505478e+01	1.946484e+01	-3.182272e+00
4.515992e+01	2.029253e+01	-2.769821e-01
4.483254e+01	1.964905e+01	-1.330315e+00
4.391744e+01	4.277235e-01	-1.274159e+00
4.416570e+01	-2.407350e-01	-1.801290e-01
4.402224e+01	4.772014e-01	-3.063066e+00
4.401364e+01	2.552483e+00	-3.305732e+00
4.404685e+01	3.965381e+00	-3.135246e+00
4.407767e+01	5.155841e+00	-2.973742e+00
4.410031e+01	6.266604e+00	-2.856200e+00
4.411533e+01	7.345627e+00	-2.777251e+00
4.412434e+01	8.411074e+00	-2.729208e+00
4.412860e+01	9.470753e+00	-2.706585e+00
4.412860e+01	1.052903e+01	-2.706654e+00
4.412434e+01	1.158868e+01	-2.729426e+00
4.411532e+01	1.265405e+01	-2.777643e+00
4.410029e+01	1.373293e+01	-2.856799e+00
4.407771e+01	1.484345e+01	-2.974641e+00
4.404708e+01	1.603331e+01	-3.135517e+00
4.401416e+01	1.744359e+01	-3.303007e+00
4.402239e+01	1.951210e+01	-3.064167e+00
4.416805e+01	2.025035e+01	-1.726036e-01
4.392050e+01	1.958148e+01	-1.265547e+00
4.299552e+01	4.557415e-01	-1.181954e+00
4.317229e+01	-2.351765e-01	-1.070517e-01
4.301681e+01	4.618577e-01	-2.956033e+00
4.299902e+01	2.534117e+00	-3.202456e+00
4.301970e+01	3.949654e+00	-3.026939e+00
4.304155e+01	5.143619e+00	-2.861168e+00
4.305874e+01	6.257883e+00	-2.740533e+00
4.307073e+01	7.339938e+00	-2.659428e+00
4.307819e+01	8.407898e+00	-2.610009e+00
4.308179e+01	9.469734e+00	-2.586715e+00
4.308179e+01	1.053004e+01	-2.586774e+00
4.307818e+01	1.159185e+01	-2.610191e+00
4.307071e+01	1.265973e+01	-2.659738e+00
4.305871e+01	1.374166e+01	-2.741041e+00
4.304156e+01	1.485567e+01	-2.861824e+00
4.301988e+01	1.604899e+01	-3.026549e+00
4.299952e+01	1.746163e+01	-3.198534e+00
4.301710e+01	1.952671e+01	-2.956250e+00
4.317365e+01	2.024603e+01	-9.919869e-02
4.299807e+01	1.955404e+01	-1.171634e+00
4.205507e+01	4.708116e-01	-1.120265e+00
4.217528e+01	-2.392239e-01	-6.251567e-02
4.202213e+01	4.717620e-01	-2.867895e+00
4.199827e+01	2.530484e+00	-3.106050e+00
4.201074e+01	3.942724e+00	-2.926167e+00
4.202630e+01	5.136582e+00	-2.757672e+00
4.203927e+01	6.252079e+00	-2.635195e+00
4.204870e+01	7.335805e+00	-2.552740e+00
4.205472e+01	8.405464e+00	-2.502418e+00
4.205769e+01	9.468934e+00	-2.478669e+00
4.205768e+01	1.053085e+01	-2.478711e+00
4.205470e+01	1.159429e+01	-2.502537e+00
4.204867e+01	1.266388e+01	-2.552941e+00
4.203924e+01	1.374747e+01	-2.635517e+00
4.202631e+01	1.486273e+01	-2.758021e+00
4.201093e+01	1.605590e+01	-2.925202e+00
4.199881e+01	1.746505e+01	-3.101169e+00
4.202255e+01	1.951623e+01	-2.867289e+00
4.217584e+01	2.025077e+01	-5.465383e-02
4.205692e+01	1.953917e+01	-1.109676e+00
4.110068e+01	4.926892e-01	-1.067776e+00
4.117908e+01	-2.562036e-01	-3.885787e-02
4.102996e+01	4.989288e-01	-2.795505e+00
4.100295e+01	2.537141e+00	-3.017534e+00
4.100996e+01	3.942025e+00	-2.834029e+00
4.102106e+01	5.133477e+00	-2.664156e+00
4.103088e+01	6.248699e+00	-2.540990e+00
4.103821e+01	7.333104e+00	-2.457917e+00
4.104298e+01	8.403780e+00	-2.406998e+00
4.104538e+01	9.468365e+00	-2.382947e+00
4.104537e+01	1.053142e+01	-2.382951e+00
4.104297e+01	1.159599e+01	-2.406956e+00
4.103816e+01	1.266659e+01	-2.457712e+00
4.103081e+01	1.375083e+01	-2.540808e+00
4.102107e+01	1.486581e+01	-2.663780e+00
4.101016e+01	1.605654e+01	-2.832244e+00
4.100353e+01	1.745825e+01	-3.011880e+00
4.103049e+01	1.948866e+01	-2.794069e+00
4.117907e+01	2.026850e+01	-3.122460e-02
4.110191e+01	1.951722e+01	-1.056853e+00
4.013515e+01	5.118426e-01	-1.018255e+00
4.018185e+01	-2.847172e-01	-3.160826e-02
4.003799e+01	5.381013e-01	-2.735224e+00
4.000931e+01	2.550837e+00	-2.936115e+00
4.001267e+01	3.945686e+00	-2.749764e+00
4.002064e+01	5.133292e+00	-2.579481e+00
4.002807e+01	6.247349e+00	-2.454901e+00
4.003377e+01	7.331662e+00	-2.371776e+00
4.003755e+01	8.402741e+00	-2.322183e+00
4.003947e+01	9.468003e+00	-2.298128e+00
4.003947e+01	1.053180e+01	-2.298079e+00
4.003754e+01	1.159703e+01	-2.322051e+00
4.003375e+01	1.266808e+01	-2.372915e+00
4.002804e+01	1.375225e+01	-2.455926e+00
4.002068e+01	1.486598e+01	-2.578677e+00
4.001291e+01	1.605285e+01	-2.747423e+00
4.000993e+01	1.744447e+01	-2.929831e+00
4.003861e+01	1.944924e+01	-2.732970e+00
4.018134e+01	2.029768e+01	-2.439903e-02
4.013578e+01	1.949828e+01	-1.007135e+00
3.916085e+01	5.281448e-01	-9.731175e-01
3.918335e+01	-3.204767e-01	-3.827527e-02
3.904525e+01	5.857415e-01	-2.684053e+00
3.901582e+01	2.569319e+00	-2.860565e+00
3.901673e+01	3.952361e+00	-2.672076e+00
3.902248e+01	5.135235e+00	-2.502240e+00
3.902819e+01	6.247473e+00	-2.377888e+00
3.903265e+01	7.331133e+00	-2.294998e+00
3.903562e+01	8.402238e+00	-2.246034e+00
3.903714e+01	9.467821e+00	-2.222271e+00
3.903714e+01	1.053198e+01	-2.222201e+00
3.903560e+01	1.159751e+01	-2.246025e+00
3.903261e+01	1.266860e+01	-2.296920e+00
3.902816e+01	1.375221e+01	-2.379560e+00
3.902255e+01	1.486407e+01	-2.501532e+00
3.901699e+01	1.604620e+01	-2.669602e+00
3.901646e+01	1.742597e+01	-2.853819e+00
3.904594e+01	1.940147e+01	-2.681012e+00
3.918247e+01	2.033398e+01	-3.163853e-02
3.916097e+01	1.948230e+01	-9.620334e-01
3.817998e+01	5.424152e-01	-9.311278e-01
3.818393e+01	-3.603490e-01	-5.697216e-02
3.805144e+01	6.392908e-01	-2.639361e+00
3.802186e+01	2.591018e+00	-2.789730e+00
3.802113e+01	3.961069e+00	-2.599777e+00
3.802532e+01	5.138648e+00	-2.431064e+00
3.802975e+01	6.248544e+00	-2.309162e+00
[...]
CELL_DATA 950
SCALARS Mu double 1
LOOKUP_TABLE default
-0.388429
-0.434839
-0.445113
-0.448285
-0.449531
-0.450112
-0.450415
-0.45058
-0.450664
-0.450691
-0.450664
-0.45058
-0.450415
-0.450112
-0.449531
-0.448285
-0.445113
-0.434839
-0.388429
-0.510131
-0.594683
-0.616974
-0.624665
-0.627855
-0.629376
-0.630171
-0.630603
-0.630824
-0.630893
-0.630827
-0.630608
-0.630178
-0.629383
-0.627864
-0.624669
-0.616953
-0.594531
-0.509768
-0.565402
-0.676259
-0.708906
-0.721304
-0.726769
-0.729481
-0.73093
-0.731726
-0.732133
-0.732261
-0.732142
-0.731746
-0.730963
-0.729527
-0.726831
-0.721339
-0.708845
-0.676044
-0.567553
-0.5965
-0.724128
-0.764294
-0.780705
-0.788374
-0.792329
-0.794491
-0.79569
-0.796305
-0.796497
-0.796315
-0.795713
-0.794527
-0.792381
-0.788441
-0.780711
-0.764093
-0.72369
-0.599882
-0.616157
-0.754595
-0.800147
-0.819703
-0.829262
-0.834366
-0.837218
-0.838823
-0.839649
-0.839907
-0.839656
-0.838838
-0.837242
-0.834395
-0.829287
-0.81961
-0.799729
-0.753863
-0.620006
-0.629462
-0.77515
-0.824573
-0.846525
-0.857613
-0.863703
-0.867176
-0.869157
-0.870184
-0.870502
-0.870184
-0.869157
-0.867173
-0.863686
-0.85756
-0.846289
-0.823906
-0.774108
-0.633433
-0.63891
-0.789621
-0.841854
-0.865629
-0.87793
-0.884838
-0.888843
-0.891155
-0.892362
-0.892735
-0.892353
-0.891135
-0.888804
-0.884767
-0.877784
-0.865235
-0.840944
-0.78829
-0.642855
-0.645861
-0.800146
-0.854446
-0.879611
-0.892871
-0.900442
-0.904899
-0.907495
-0.908859
-0.909278
-0.908838
-0.907451
-0.904819
-0.900312
-0.892624
-0.879062
-0.853314
-0.798557
-0.649722
-0.651118
-0.808004
-0.863847
-0.890074
-0.904089
-0.912208
-0.917035
-0.91987
-0.921366
-0.921824
-0.921333
-0.919799
-0.916913
-0.912002
-0.903739
-0.889378
-0.86252
-0.80619
-0.654877
-0.655184
-0.813999
-0.871014
-0.898055
-0.91267
-0.921219
-0.926358
-0.929393
-0.931
-0.93149
-0.930954
-0.929291
-0.926181
-0.920941
-0.912171
-0.897221
-0.869514
-0.811993
-0.658841
-0.658388
-0.818659
-0.87657
-0.904239
-0.919324
-0.928202
-0.933353
-0.936781
-0.938511
-0.939032
-0.938454
-0.936687
-0.933422
-0.927882
-0.918774
-0.903285
-0.874921
-0.816489
-0.661948
-0.660949
-0.822338
-0.88094
-0.909098
-0.924554
-0.933726
-0.939242
-0.942613
-0.944431
-0.944972
-0.944365
-0.94251
-0.939127
-0.933362
-0.923934
-0.908042
-0.879166
-0.820031
-0.664423
-0.663021
-0.825283
-0.884419
-0.91296
-0.928706
-0.938104
-0.943837
-0.947298
-0.94915
-0.949712
-0.94908
-0.947156
-0.943615
-0.937678
-0.92802
-0.911817
-0.882541
-0.82286
-0.666419
-0.664715
-0.827667
-0.887216
-0.916056
-0.932031
-0.941591
-0.947475
-0.951026
-0.95292
-0.953498
-0.952849
-0.950851
-0.947181
-0.941111
-0.931284
-0.91484
-0.885252
-0.825147
-0.668047
-0.666097
-0.829594
-0.889464
-0.918544
-0.934709
-0.944423
-0.950403
-0.954048
-0.955985
-0.956559
-0.955888
-0.953846
-0.950085
-0.943903
-0.933924
-0.917287
-0.887452
-0.827017
-0.669388
-0.667253
-0.831199
-0.891318
-0.920587
-0.936901
-0.946741
-0.952803
-0.956494
-0.958367
-0.959029
-0.958341
-0.955882
-0.952377
-0.946158
-0.93607
-0.919281
-0.889251
-0.828559
-0.670503
-0.668225
-0.832528
-0.892849
-0.922268
-0.938724
-0.948632
-0.95476
-0.958469
-0.960483
-0.961076
-0.960326
-0.958144
-0.954299
-0.947591
-0.937793
-0.920911
-0.890737
-0.829835
-0.671435
-0.669047
-0.833641
-0.894119
-0.923653
-0.940183
-0.950182
-0.956367
-0.960143
-0.962458
-0.963208
-0.962042
-0.959854
-0.955938
-0.949468
-0.93926
-0.922276
-0.89198
-0.830914
-0.672233
-0.669767
-0.834672
-0.895229
-0.924909
-0.941505
-0.951463
-0.957689
-0.96148
-0.963593
-0.96431
-0.963546
-0.961351
-0.957315
-0.950829
-0.940496
-0.923416
-0.893019
-0.831825
-0.672916
-0.670312
-0.835344
-0.896019
-0.925722
-0.942395
-0.952498
-0.958791
-0.962623
-0.964705
-0.965348
-0.964681
-0.962445
-0.958452
-0.951955
-0.941544
-0.924384
-0.893894
-0.832588
-0.673485
-0.670778
-0.835965
-0.896752
-0.926487
-0.943239
-0.953408
-0.959746
-0.963602
-0.965689
-0.966309
-0.965575
-0.963436
-0.959372
-0.952866
-0.942406
-0.9252
-0.894666
-0.833238
-0.673966
-0.671201
-0.836527
-0.897403
-0.927221
-0.943991
-0.954198
-0.960565
-0.964442
-0.966536
-0.96716
-0.966427
-0.964225
-0.960186
-0.953631
-0.94313
-0.925872
-0.895265
-0.833767
-0.674364
-0.671574
-0.837024
-0.897976
-0.927847
-0.944655
-0.954893
-0.961277
-0.965168
-0.967284
-0.96792
-0.96719
-0.964957
-0.96089
-0.954257
-0.943745
-0.926479
-0.895817
-0.834246
-0.674719
-0.671901
-0.837465
-0.898476
-0.928371
-0.945229
-0.955506
-0.961918
-0.965836
-0.967943
-0.9686
-0.967847
-0.965649
-0.961531
-0.954898
-0.944353
-0.927025
-0.896261
-0.834667
-0.67503
-0.672181
-0.837848
-0.89886
-0.928876
-0.945762
-0.956053
-0.96248
-0.966416
-0.968528
-0.96916
-0.968423
-0.96618
-0.96197
-0.955345
-0.944872
-0.92751
-0.896732
-0.835035
-0.675302
-0.672432
-0.838191
-0.899304
-0.929302
-0.946225
-0.956537
-0.962983
-0.966931
-0.969046
-0.969698
-0.968958
-0.966693
-0.962563
-0.955913
-0.945337
-0.927944
-0.897097
-0.835372
-0.675543
-0.67265
-0.838473
-0.899433
-0.929681
-0.946642
-0.956974
-0.963416
-0.967382
-0.969528
-0.970182
-0.969434
-0.967162
-0.963034
-0.95637
-0.945756
-0.928334
-0.897476
-0.835673
-0.675758
-0.672843
-0.838734
-0.899801
-0.930017
-0.94701
-0.957366
-0.963823
-0.96782
-0.969982
-0.970669
-0.969866
-0.967549
-0.963444
-0.956781
-0.946143
-0.928686
-0.89776
-0.835933
-0.675947
-0.673019
-0.838981
-0.900132
-0.930327
-0.947327
-0.957681
-0.964209
-0.968202
-0.970361
-0.971052
-0.970207
-0.967921
-0.963822
-0.957088
-0.946483
-0.928995
-0.898061
-0.836171
-0.676117
-0.673184
-0.839214
-0.900475
-0.930633
-0.947652
-0.958038
-0.964544
-0.968532
-0.9707
-0.971412
-0.970585
-0.968296
-0.964105
-0.957431
-0.946776
-0.929278
-0.898315
-0.836391
-0.676271
-0.673336
-0.839438
-0.900733
-0.930907
-0.947952
-0.958539
-0.96489
-0.96909
-0.971099
-0.971747
-0.971032
-0.968664
-0.964525
-0.957764
-0.947021
-0.929528
-0.898543
-0.836589
-0.676412
-0.673093
-0.832934
-0.900547
-0.931022
-0.948003
-0.95862
-0.965148
-0.969415
-0.971412
-0.972045
-0.971313
-0.969027
-0.965407
-0.958068
-0.947317
-0.929762
-0.898751
-0.83677
-0.676538
-0.673109
-0.838233
-0.900522
-0.931105
-0.948293
-0.958806
-0.965382
-0.969683
-0.971677
-0.972301
-0.971567
-0.969306
-0.965783
-0.95836
-0.947568
-0.929975
-0.898935
-0.83693
-0.676652
-0.673397
-0.839334
-0.900867
-0.931315
-0.948502
-0.959012
-0.965615
-0.970051
-0.972024
-0.97254
-0.971793
-0.969506
-0.96541
-0.958569
-0.947775
-0.930156
-0.899072
-0.83707
-0.676757
-0.673604
-0.839754
-0.901216
-0.931532
-0.948696
-0.959212
-0.965862
-0.970156
-0.972154
-0.972747
-0.971998
-0.969691
-0.965496
-0.958798
-0.947957
-0.930312
-0.899211
-0.837196
-0.676852
-0.673756
-0.839992
-0.901407
-0.931681
-0.948861
-0.959426
-0.966021
-0.970411
-0.972329
-0.972929
-0.972154
-0.969843
-0.965629
-0.958887
-0.948089
-0.930449
-0.899337
-0.83731
-0.676936
-0.673875
-0.840163
-0.901591
-0.931873
-0.949026
-0.959545
-0.966179
-0.970492
-0.972491
-0.973094
-0.972311
-0.970005
-0.965796
-0.959061
-0.948218
-0.930574
-0.899452
-0.83741
-0.677013
-0.673972
-0.840299
-0.90173
-0.932019
-0.949157
-0.959648
-0.966291
-0.970629
-0.972706
-0.973241
-0.972472
-0.970159
-0.965913
-0.959131
-0.948335
-0.93073
-0.899558
-0.837505
-0.677083
-0.674055
-0.840414
-0.901851
-0.932148
-0.949367
-0.959803
-0.966422
-0.970753
-0.972774
-0.973387
-0.972691
-0.970305
-0.966032
-0.95925
-0.948466
-0.930802
-0.899682
-0.837596
-0.677151
-0.67413
-0.840515
-0.901958
-0.932259
-0.94945
-0.959925
-0.966547
-0.97095
-0.972724
-0.973462
-0.972732
-0.970365
-0.96615
-0.959404
-0.948576
-0.930894
-0.899772
-0.837678
-0.677212
-0.674198
-0.840603
-0.90205
-0.932345
-0.94942
-0.960026
-0.966664
-0.970992
-0.972961
-0.973695
-0.972848
-0.970146
-0.966318
-0.959473
-0.948614
-0.930956
-0.899821
-0.837742
-0.677265
-0.674258
-0.84068
-0.902131
-0.932425
-0.949485
-0.960115
-0.966749
-0.971085
-0.973081
-0.973718
-0.972906
-0.970484
-0.966326
-0.959536
-0.948734
-0.93109
-0.899936
-0.83783
-0.677332
-0.67431
-0.84075
-0.902206
-0.932504
-0.949582
-0.96021
-0.967018
-0.971233
-0.973196
-0.973804
-0.973005
-0.970645
-0.966413
-0.959631
-0.948933
-0.93116
-0.900019
-0.837902
-0.677385
-0.674361
-0.840818
-0.902278
-0.932589
-0.949749
-0.960329
-0.966975
-0.971287
-0.973286
-0.973891
-0.973088
-0.970748
-0.966503
-0.959712
-0.948919
-0.931231
-0.90009
-0.837968
-0.677434
-0.674408
-0.84088
-0.902346
-0.932665
-0.949841
-0.960414
-0.967024
-0.97135
-0.973367
-0.974031
-0.97314
-0.970837
-0.966663
-0.959791
-0.948975
-0.931295
-0.900155
-0.838031
-0.67748
-0.67445
-0.840931
-0.902395
-0.932701
-0.949911
-0.960555
-0.967096
-0.971419
-0.973434
-0.974045
-0.973248
-0.970958
-0.966758
-0.959867
-0.949038
-0.931354
-0.900214
-0.838086
-0.677522
-0.674494
-0.840983
-0.902448
-0.932754
-0.949967
-0.960535
-0.967169
-0.971481
-0.973485
-0.974101
-0.973326
-0.971033
-0.966759
-0.959927
-0.949097
-0.931411
-0.900268
-0.838137
-0.677563
-0.674532
-0.841035
-0.902512
-0.932835
-0.950032
-0.96057
-0.96722
-0.971574
-0.973597
-0.974172
-0.973392
-0.971098
-0.966815
-0.959977
-0.949151
-0.931465
-0.90032
-0.838186
-0.677601
-0.674563
-0.841077
-0.902561
-0.932881
-0.949981
-0.960609
-0.967262
-0.971636
-0.973667
-0.974236
-0.973453
-0.971158
-0.966875
-0.960066
-0.949221
-0.931526
-0.90037
-0.838231
-0.677636

