# vtk DataFile Version 2.0
OUTPUT by 3D-VPM
ASCII
DATASET UNSTRUCTURED_GRID
POINTS 1080 double
5.204030e+01	9.654670e-01	-2.423396e+00
5.287379e+01	1.289831e+00	-1.719652e+00
5.239741e+01	2.489867e+00	-2.071420e+00
5.218192e+01	3.483931e+00	-1.594122e+00
5.239521e+01	4.429132e+00	-1.317347e+00
5.239286e+01	5.427179e+00	-1.282707e+00
5.234572e+01	6.425327e+00	-1.201533e+00
5.233962e+01	7.436632e+00	-1.141634e+00
5.233293e+01	8.458484e+00	-1.112814e+00
5.232815e+01	9.485546e+00	-1.098501e+00
5.232816e+01	1.051444e+01	-1.098506e+00
5.233294e+01	1.154150e+01	-1.112827e+00
5.233965e+01	1.256333e+01	-1.141642e+00
5.234577e+01	1.357460e+01	-1.201507e+00
5.239293e+01	1.457271e+01	-1.282608e+00
5.239538e+01	1.557069e+01	-1.317163e+00
5.218238e+01	1.651606e+01	-1.593643e+00
5.239892e+01	1.750990e+01	-2.071131e+00
5.288450e+01	1.871558e+01	-1.710497e+00
5.202787e+01	1.901845e+01	-2.431468e+00
5.171486e+01	9.162326e-01	-1.705706e+00
5.288450e+01	3.160995e-01	-1.096094e+00
5.249455e+01	2.056797e+00	-9.163642e-01
5.269883e+01	3.007986e+00	-4.623469e-01
5.287789e+01	4.144496e+00	-2.098949e-01
5.279236e+01	5.231622e+00	-9.089685e-02
5.275870e+01	6.287217e+00	6.859201e-03
5.274012e+01	7.350065e+00	6.794544e-02
5.272602e+01	8.410895e+00	1.022806e-01
5.271954e+01	9.470275e+00	1.184493e-01
5.271953e+01	1.052970e+01	1.184509e-01
5.272598e+01	1.158907e+01	1.022877e-01
5.274008e+01	1.264988e+01	6.796988e-02
5.275865e+01	1.371271e+01	6.917784e-03
5.279235e+01	1.476827e+01	-9.078761e-02
5.287799e+01	1.585535e+01	-2.097511e-01
5.269927e+01	1.699204e+01	-4.620280e-01
5.249323e+01	1.794387e+01	-9.172972e-01
5.288598e+01	1.968358e+01	-1.093639e+00
5.172749e+01	1.908946e+01	-1.697447e+00
5.062572e+01	3.688273e-01	-1.935630e+00
5.103743e+01	2.866427e-01	-7.775222e-01
5.210817e+01	1.206562e+00	-3.323110e+00
5.259936e+01	3.008470e+00	-3.015038e+00
5.278811e+01	4.129040e+00	-2.709791e+00
5.287320e+01	5.230964e+00	-2.547573e+00
5.292159e+01	6.307612e+00	-2.407946e+00
5.294713e+01	7.365076e+00	-2.316239e+00
5.296011e+01	8.419722e+00	-2.262765e+00
5.296568e+01	9.473273e+00	-2.237493e+00
5.296568e+01	1.052664e+01	-2.237510e+00
5.296011e+01	1.158018e+01	-2.262822e+00
5.294712e+01	1.263479e+01	-2.316348e+00
5.292153e+01	1.369218e+01	-2.408141e+00
5.287310e+01	1.476866e+01	-2.547913e+00
5.278810e+01	1.587026e+01	-2.710251e+00
5.259999e+01	1.699047e+01	-3.014889e+00
5.210970e+01	1.879126e+01	-3.322338e+00
5.104006e+01	1.970617e+01	-7.796207e-01
5.062939e+01	1.963412e+01	-1.934610e+00
4.957489e+01	5.187773e-01	-1.791073e+00
5.020552e+01	1.728611e-01	-6.020670e-01
5.037113e+01	7.005456e-01	-3.480452e+00
5.055893e+01	2.762758e+00	-3.635086e+00
5.073056e+01	4.094919e+00	-3.453138e+00
5.082522e+01	5.228343e+00	-3.300058e+00
5.087706e+01	6.308074e+00	-3.191564e+00
5.090688e+01	7.369076e+00	-3.118840e+00
5.092313e+01	8.422960e+00	-3.074764e+00
5.093038e+01	9.474402e+00	-3.054088e+00
5.093040e+01	1.052546e+01	-3.054139e+00
5.092320e+01	1.157689e+01	-3.074928e+00
5.090701e+01	1.263073e+01	-3.119148e+00
5.087723e+01	1.369165e+01	-3.192070e+00
5.082559e+01	1.477122e+01	-3.300918e+00
5.073136e+01	1.590430e+01	-3.454130e+00
5.056053e+01	1.723536e+01	-3.635317e+00
5.037318e+01	1.929371e+01	-3.482490e+00
5.021173e+01	1.983445e+01	-5.968686e-01
4.957958e+01	1.948630e+01	-1.785498e+00
4.870386e+01	4.198154e-01	-1.472633e+00
4.919609e+01	-1.403967e-01	-3.617612e-01
4.914801e+01	4.482610e-01	-3.355760e+00
4.920342e+01	2.608000e+00	-3.646609e+00
4.930409e+01	4.017202e+00	-3.484690e+00
4.937335e+01	5.192265e+00	-3.329849e+00
4.941543e+01	6.289969e+00	-3.216792e+00
4.944013e+01	7.359722e+00	-3.140760e+00
4.945383e+01	8.418547e+00	-3.094450e+00
4.946002e+01	9.473094e+00	-3.072657e+00
4.946003e+01	1.052672e+01	-3.072727e+00
4.945388e+01	1.158124e+01	-3.094680e+00
4.944021e+01	1.264000e+01	-3.141196e+00
4.941555e+01	1.370963e+01	-3.217509e+00
4.937367e+01	1.480711e+01	-3.331072e+00
4.930480e+01	1.598169e+01	-3.485992e+00
4.920467e+01	1.738898e+01	-3.646415e+00
4.914918e+01	1.954272e+01	-3.359794e+00
4.919921e+01	2.015044e+01	-3.557656e-01
4.870858e+01	1.958914e+01	-1.463848e+00
4.779221e+01	3.052655e-01	-1.402594e+00
4.814508e+01	-8.386846e-02	-2.230183e-01
4.806558e+01	3.411939e-01	-3.238610e+00
4.806571e+01	2.520491e+00	-3.563095e+00
4.812538e+01	3.964578e+00	-3.400831e+00
4.817419e+01	5.162219e+00	-3.239617e+00
4.820720e+01	6.273063e+00	-3.120866e+00
4.822786e+01	7.350378e+00	-3.040705e+00
4.823978e+01	8.413863e+00	-2.991789e+00
4.824527e+01	9.471664e+00	-2.968734e+00
4.824528e+01	1.052812e+01	-2.968809e+00
4.823979e+01	1.158588e+01	-2.992034e+00
4.822790e+01	1.264929e+01	-3.041163e+00
4.820724e+01	1.372645e+01	-3.121585e+00
4.817434e+01	1.483704e+01	-3.240789e+00
4.812582e+01	1.603408e+01	-3.401757e+00
4.806649e+01	1.747562e+01	-3.561690e+00
4.806583e+01	1.964810e+01	-3.242393e+00
4.814757e+01	2.009048e+01	-2.155832e-01
4.779627e+01	1.970458e+01	-1.394640e+00
4.688219e+01	3.790584e-01	-1.353263e+00
4.716198e+01	-3.098709e-02	-1.198217e-01
4.702506e+01	2.844082e-01	-3.114278e+00
4.701229e+01	2.473239e+00	-3.458257e+00
4.704883e+01	3.931735e+00	-3.291262e+00
4.708313e+01	5.140550e+00	-3.123946e+00
4.710844e+01	6.259361e+00	-3.000440e+00
4.712527e+01	7.342163e+00	-2.916921e+00
4.713539e+01	8.409516e+00	-2.865910e+00
4.714017e+01	9.470302e+00	-2.841845e+00
4.714017e+01	1.052946e+01	-2.841917e+00
4.713539e+01	1.159021e+01	-2.866140e+00
4.712527e+01	1.265748e+01	-2.917333e+00
4.710843e+01	1.374013e+01	-3.001068e+00
4.708319e+01	1.485867e+01	-3.124882e+00
4.704910e+01	1.606681e+01	-3.291517e+00
4.701283e+01	1.752231e+01	-3.455445e+00
4.702514e+01	1.970390e+01	-3.117172e+00
4.716469e+01	2.003906e+01	-1.114007e-01
4.688574e+01	1.962849e+01	-1.343971e+00
4.596751e+01	4.171316e-01	-1.251768e+00
4.617237e+01	-2.501832e-02	-3.578571e-02
4.601609e+01	2.622990e-01	-2.998734e+00
4.599463e+01	2.449874e+00	-3.353390e+00
4.601745e+01	3.912832e+00	-3.181380e+00
4.604171e+01	5.126198e+00	-3.009313e+00
4.606085e+01	6.249225e+00	-2.882300e+00
4.607425e+01	7.335580e+00	-2.796331e+00
4.608260e+01	8.405849e+00	-2.743760e+00
4.608663e+01	9.469126e+00	-2.718935e+00
4.608662e+01	1.053063e+01	-2.718997e+00
4.608259e+01	1.159387e+01	-2.743952e+00
4.607423e+01	1.266406e+01	-2.796658e+00
4.606083e+01	1.375027e+01	-2.882833e+00
4.604173e+01	1.487302e+01	-3.009992e+00
4.601765e+01	1.608565e+01	-3.180932e+00
4.599514e+01	1.754530e+01	-3.349321e+00
4.601632e+01	1.972526e+01	-3.000876e+00
4.617403e+01	2.003454e+01	-2.668876e-02
4.597053e+01	1.959073e+01	-1.240287e+00
4.503337e+01	4.311476e-01	-1.186460e+00
4.517637e+01	-2.774726e-02	1.909749e-02
4.502049e+01	2.676445e-01	-2.905615e+00
4.499278e+01	2.442832e+00	-3.255362e+00
4.500659e+01	3.903787e+00	-3.078690e+00
4.502382e+01	5.117686e+00	-2.903391e+00
4.503824e+01	6.242383e+00	-2.774146e+00
4.504873e+01	7.330758e+00	-2.686555e+00
4.505545e+01	8.403023e+00	-2.632911e+00
4.505876e+01	9.468199e+00	-2.607550e+00
4.505876e+01	1.053156e+01	-2.607594e+00
4.505544e+01	1.159670e+01	-2.633037e+00
4.504871e+01	1.266890e+01	-2.686767e+00
4.503820e+01	1.375712e+01	-2.774480e+00
4.502384e+01	1.488155e+01	-2.903741e+00
4.500680e+01	1.609467e+01	-3.077628e+00
4.499333e+01	1.755208e+01	-3.250280e+00
4.502085e+01	1.971932e+01	-2.907034e+00
4.517717e+01	2.003802e+01	2.840922e-02
4.503563e+01	1.957702e+01	-1.174656e+00
4.408451e+01	4.556461e-01	-1.135206e+00
4.418153e+01	-4.521600e-02	5.458792e-02
4.402795e+01	2.916226e-01	-2.831067e+00
4.399727e+01	2.447372e+00	-3.165608e+00
4.400507e+01	3.901768e+00	-2.984756e+00
4.401734e+01	5.113613e+00	-2.807568e+00
4.402822e+01	6.238277e+00	-2.677285e+00
4.403636e+01	7.327555e+00	-2.588834e+00
4.404166e+01	8.401044e+00	-2.534431e+00
4.404433e+01	9.467533e+00	-2.508690e+00
4.404432e+01	1.053224e+01	-2.508694e+00
4.404165e+01	1.159870e+01	-2.534385e+00
4.403630e+01	1.267211e+01	-2.588609e+00
4.402815e+01	1.376120e+01	-2.677078e+00
4.401735e+01	1.488559e+01	-2.807142e+00
4.400529e+01	1.609662e+01	-2.982816e+00
4.399788e+01	1.754736e+01	-3.159703e+00
4.402843e+01	1.969490e+01	-2.831707e+00
4.418172e+01	2.005640e+01	6.389777e-02
4.408609e+01	1.955234e+01	-1.123042e+00
4.312356e+01	4.777911e-01	-1.086144e+00
4.318541e+01	-7.687681e-02	7.554152e-02
4.303601e+01	3.286287e-01	-2.770798e+00
4.300383e+01	2.459924e+00	-3.083403e+00
4.300762e+01	3.904708e+00	-2.898976e+00
4.301640e+01	5.112851e+00	-2.720868e+00
4.302458e+01	6.236472e+00	-2.588734e+00
4.303089e+01	7.325772e+00	-2.500013e+00
4.303509e+01	8.399793e+00	-2.446909e+00
4.303722e+01	9.467100e+00	-2.421104e+00
4.303722e+01	1.053268e+01	-2.421052e+00
4.303508e+01	1.159995e+01	-2.446766e+00
4.303087e+01	1.267394e+01	-2.501234e+00
4.302456e+01	1.376309e+01	-2.589826e+00
4.301644e+01	1.488634e+01	-2.719983e+00
4.300787e+01	1.609363e+01	-2.896437e+00
4.300449e+01	1.753469e+01	-3.076824e+00
4.303660e+01	1.965760e+01	-2.770639e+00
4.318506e+01	2.008893e+01	8.462945e-02
4.312450e+01	1.953038e+01	-1.073643e+00
4.215285e+01	4.966215e-01	-1.042074e+00
4.218775e+01	-1.180033e-01	8.360543e-02
4.204349e+01	3.749735e-01	-2.721515e+00
4.201069e+01	2.477993e+00	-3.007481e+00
4.201177e+01	3.911105e+00	-2.820081e+00
4.201808e+01	5.114516e+00	-2.641926e+00
4.202434e+01	6.236337e+00	-2.509681e+00
4.202926e+01	7.325029e+00	-2.420985e+00
4.203255e+01	8.399150e+00	-2.368424e+00
4.203423e+01	9.466870e+00	-2.342871e+00
4.203423e+01	1.053291e+01	-2.342797e+00
4.203253e+01	1.160057e+01	-2.368414e+00
4.202922e+01	1.267468e+01	-2.423051e+00
4.202432e+01	1.376332e+01	-2.511471e+00
4.201815e+01	1.488471e+01	-2.641142e+00
4.201205e+01	1.608725e+01	-2.817393e+00
4.201137e+01	1.751657e+01	-3.000400e+00
4.204416e+01	1.961108e+01	-2.720563e+00
4.218695e+01	2.013080e+01	9.227863e-02
4.215320e+01	1.951188e+01	-1.029484e+00
4.117477e+01	5.137013e-01	-1.001659e+00
4.118902e+01	-1.653832e-01	8.022124e-02
4.104994e+01	4.279759e-01	-2.680167e+00
4.101711e+01	2.499834e+00	-2.936623e+00
4.101637e+01	3.919859e+00	-2.746862e+00
4.102094e+01	5.117867e+00	-2.569355e+00
4.102579e+01	6.237284e+00	-2.439376e+00
[...]
CELL_DATA 1007
SCALARS Mu double 1
LOOKUP_TABLE default
-0.388429
-0.434839
-0.445113
-0.448285
-0.449531
-0.450112
-0.450415
-0.45058
-0.450664
-0.450691
-0.450664
-0.45058
-0.450415
-0.450112
-0.449531
-0.448285
-0.445113
-0.434839
-0.388429
-0.510131
-0.594683
-0.616974
-0.624665
-0.627855
-0.629376
-0.630171
-0.630603
-0.630824
-0.630893
-0.630827
-0.630608
-0.630178
-0.629383
-0.627864
-0.624669
-0.616953
-0.594531
-0.509768
-0.565402
-0.676259
-0.708906
-0.721304
-0.726769
-0.729481
-0.73093
-0.731726
-0.732133
-0.732261
-0.732142
-0.731746
-0.730963
-0.729527
-0.726831
-0.721339
-0.708845
-0.676044
-0.567553
-0.5965
-0.724128
-0.764294
-0.780705
-0.788374
-0.792329
-0.794491
-0.79569
-0.796305
-0.796497
-0.796315
-0.795713
-0.794527
-0.792381
-0.788441
-0.780711
-0.764093
-0.72369
-0.599882
-0.616157
-0.754595
-0.800147
-0.819703
-0.829262
-0.834366
-0.837218
-0.838823
-0.839649
-0.839907
-0.839656
-0.838838
-0.837242
-0.834395
-0.829287
-0.81961
-0.799729
-0.753863
-0.620006
-0.629462
-0.77515
-0.824573
-0.846525
-0.857613
-0.863703
-0.867176
-0.869157
-0.870184
-0.870502
-0.870184
-0.869157
-0.867173
-0.863686
-0.85756
-0.846289
-0.823906
-0.774108
-0.633433
-0.63891
-0.789621
-0.841854
-0.865629
-0.87793
-0.884838
-0.888843
-0.891155
-0.892362
-0.892735
-0.892353
-0.891135
-0.888804
-0.884767
-0.877784
-0.865235
-0.840944
-0.78829
-0.642855
-0.645861
-0.800146
-0.854446
-0.879611
-0.892871
-0.900442
-0.904899
-0.907495
-0.908859
-0.909278
-0.908838
-0.907451
-0.904819
-0.900312
-0.892624
-0.879062
-0.853314
-0.798557
-0.649722
-0.651118
-0.808004
-0.863847
-0.890074
-0.904089
-0.912208
-0.917035
-0.91987
-0.921366
-0.921824
-0.921333
-0.919799
-0.916913
-0.912002
-0.903739
-0.889378
-0.86252
-0.80619
-0.654877
-0.655184
-0.813999
-0.871014
-0.898055
-0.91267
-0.921219
-0.926358
-0.929393
-0.931
-0.93149
-0.930954
-0.929291
-0.926181
-0.920941
-0.912171
-0.897221
-0.869514
-0.811993
-0.658841
-0.658388
-0.818659
-0.87657
-0.904239
-0.919324
-0.928202
-0.933353
-0.936781
-0.938511
-0.939032
-0.938454
-0.936687
-0.933422
-0.927882
-0.918774
-0.903285
-0.874921
-0.816489
-0.661948
-0.660949
-0.822338
-0.88094
-0.909098
-0.924554
-0.933726
-0.939242
-0.942613
-0.944431
-0.944972
-0.944365
-0.94251
-0.939127
-0.933362
-0.923934
-0.908042
-0.879166
-0.820031
-0.664423
-0.663021
-0.825283
-0.884419
-0.91296
-0.928706
-0.938104
-0.943837
-0.947298
-0.94915
-0.949712
-0.94908
-0.947156
-0.943615
-0.937678
-0.92802
-0.911817
-0.882541
-0.82286
-0.666419
-0.664715
-0.827667
-0.887216
-0.916056
-0.932031
-0.941591
-0.947475
-0.951026
-0.95292
-0.953498
-0.952849
-0.950851
-0.947181
-0.941111
-0.931284
-0.91484
-0.885252
-0.825147
-0.668047
-0.666097
-0.829594
-0.889464
-0.918544
-0.934709
-0.944423
-0.950403
-0.954048
-0.955985
-0.956559
-0.955888
-0.953846
-0.950085
-0.943903
-0.933924
-0.917287
-0.887452
-0.827017
-0.669388
-0.667253
-0.831199
-0.891318
-0.920587
-0.936901
-0.946741
-0.952803
-0.956494
-0.958367
-0.959029
-0.958341
-0.955882
-0.952377
-0.946158
-0.93607
-0.919281
-0.889251
-0.828559
-0.670503
-0.668225
-0.832528
-0.892849
-0.922268
-0.938724
-0.948632
-0.95476
-0.958469
-0.960483
-0.961076
-0.960326
-0.958144
-0.954299
-0.947591
-0.937793
-0.920911
-0.890737
-0.829835
-0.671435
-0.669047
-0.833641
-0.894119
-0.923653
-0.940183
-0.950182
-0.956367
-0.960143
-0.962458
-0.963208
-0.962042
-0.959854
-0.955938
-0.949468
-0.93926
-0.922276
-0.89198
-0.830914
-0.672233
-0.669767
-0.834672
-0.895229
-0.924909
-0.941505
-0.951463
-0.957689
-0.96148
-0.963593
-0.96431
-0.963546
-0.961351
-0.957315
-0.950829
-0.940496
-0.923416
-0.893019
-0.831825
-0.672916
-0.670312
-0.835344
-0.896019
-0.925722
-0.942395
-0.952498
-0.958791
-0.962623
-0.964705
-0.965348
-0.964681
-0.962445
-0.958452
-0.951955
-0.941544
-0.924384
-0.893894
-0.832588
-0.673485
-0.670778
-0.835965
-0.896752
-0.926487
-0.943239
-0.953408
-0.959746
-0.963602
-0.965689
-0.966309
-0.965575
-0.963436
-0.959372
-0.952866
-0.942406
-0.9252
-0.894666
-0.833238
-0.673966
-0.671201
-0.836527
-0.897403
-0.927221
-0.943991
-0.954198
-0.960565
-0.964442
-0.966536
-0.96716
-0.966427
-0.964225
-0.960186
-0.953631
-0.94313
-0.925872
-0.895265
-0.833767
-0.674364
-0.671574
-0.837024
-0.897976
-0.927847
-0.944655
-0.954893
-0.961277
-0.965168
-0.967284
-0.96792
-0.96719
-0.964957
-0.96089
-0.954257
-0.943745
-0.926479
-0.895817
-0.834246
-0.674719
-0.671901
-0.837465
-0.898476
-0.928371
-0.945229
-0.955506
-0.961918
-0.965836
-0.967943
-0.9686
-0.967847
-0.965649
-0.961531
-0.954898
-0.944353
-0.927025
-0.896261
-0.834667
-0.67503
-0.672181
-0.837848
-0.89886
-0.928876
-0.945762
-0.956053
-0.96248
-0.966416
-0.968528
-0.96916
-0.968423
-0.96618
-0.96197
-0.955345
-0.944872
-0.92751
-0.896732
-0.835035
-0.675302
-0.672432
-0.838191
-0.899304
-0.929302
-0.946225
-0.956537
-0.962983
-0.966931
-0.969046
-0.969698
-0.968958
-0.966693
-0.962563
-0.955913
-0.945337
-0.927944
-0.897097
-0.835372
-0.675543
-0.67265
-0.838473
-0.899433
-0.929681
-0.946642
-0.956974
-0.963416
-0.967382
-0.969528
-0.970182
-0.969434
-0.967162
-0.963034
-0.95637
-0.945756
-0.928334
-0.897476
-0.835673
-0.675758
-0.672843
-0.838734
-0.899801
-0.930017
-0.94701
-0.957366
-0.963823
-0.96782
-0.969982
-0.970669
-0.969866
-0.967549
-0.963444
-0.956781
-0.946143
-0.928686
-0.89776
-0.835933
-0.675947
-0.673019
-0.838981
-0.900132
-0.930327
-0.947327
-0.957681
-0.964209
-0.968202
-0.970361
-0.971052
-0.970207
-0.967921
-0.963822
-0.957088
-0.946483
-0.928995
-0.898061
-0.836171
-0.676117
-0.673184
-0.839214
-0.900475
-0.930633
-0.947652
-0.958038
-0.964544
-0.968532
-0.9707
-0.971412
-0.970585
-0.968296
-0.964105
-0.957431
-0.946776
-0.929278
-0.898315
-0.836391
-0.676271
-0.673336
-0.839438
-0.900733
-0.930907
-0.947952
-0.958539
-0.96489
-0.96909
-0.971099
-0.971747
-0.971032
-0.968664
-0.964525
-0.957764
-0.947021
-0.929528
-0.898543
-0.836589
-0.676412
-0.673093
-0.832934
-0.900547
-0.931022
-0.948003
-0.95862
-0.965148
-0.969415
-0.971412
-0.972045
-0.971313
-0.969027
-0.965407
-0.958068
-0.947317
-0.929762
-0.898751
-0.83677
-0.676538
-0.673109
-0.838233
-0.900522
-0.931105
-0.948293
-0.958806
-0.965382
-0.969683
-0.971677
-0.972301
-0.971567
-0.969306
-0.965783
-0.95836
-0.947568
-0.929975
-0.898935
-0.83693
-0.676652
-0.673397
-0.839334
-0.900867
-0.931315
-0.948502
-0.959012
-0.965615
-0.970051
-0.972024
-0.97254
-0.971793
-0.969506
-0.96541
-0.958569
-0.947775
-0.930156
-0.899072
-0.83707
-0.676757
-0.673604
-0.839754
-0.901216
-0.931532
-0.948696
-0.959212
-0.965862
-0.970156
-0.972154
-0.972747
-0.971998
-0.969691
-0.965496
-0.958798
-0.947957
-0.930312
-0.899211
-0.837196
-0.676852
-0.673756
-0.839992
-0.901407
-0.931681
-0.948861
-0.959426
-0.966021
-0.970411
-0.972329
-0.972929
-0.972154
-0.969843
-0.965629
-0.958887
-0.948089
-0.930449
-0.899337
-0.83731
-0.676936
-0.673875
-0.840163
-0.901591
-0.931873
-0.949026
-0.959545
-0.966179
-0.970492
-0.972491
-0.973094
-0.972311
-0.970005
-0.965796
-0.959061
-0.948218
-0.930574
-0.899452
-0.83741
-0.677013
-0.673972
-0.840299
-0.90173
-0.932019
-0.949157
-0.959648
-0.966291
-0.970629
-0.972706
-0.973241
-0.972472
-0.970159
-0.965913
-0.959131
-0.948335
-0.93073
-0.899558
-0.837505
-0.677083
-0.674055
-0.840414
-0.901851
-0.932148
-0.949367
-0.959803
-0.966422
-0.970753
-0.972774
-0.973387
-0.972691
-0.970305
-0.966032
-0.95925
-0.948466
-0.930802
-0.899682
-0.837596
-0.677151
-0.67413
-0.840515
-0.901958
-0.932259
-0.94945
-0.959925
-0.966547
-0.97095
-0.972724
-0.973462
-0.972732
-0.970365
-0.96615
-0.959404
-0.948576
-0.930894
-0.899772
-0.837678
-0.677212
-0.674198
-0.840603
-0.90205
-0.932345
-0.94942
-0.960026
-0.966664
-0.970992
-0.972961
-0.973695
-0.972848
-0.970146
-0.966318
-0.959473
-0.948614
-0.930956
-0.899821
-0.837742
-0.677265
-0.674258
-0.84068
-0.902131
-0.932425
-0.949485
-0.960115
-0.966749
-0.971085
-0.973081
-0.973718
-0.972906
-0.970484
-0.966326
-0.959536
-0.948734
-0.93109
-0.899936
-0.83783
-0.677332
-0.67431
-0.84075
-0.902206
-0.932504
-0.949582
-0.96021
-0.967018
-0.971233
-0.973196
-0.973804
-0.973005
-0.970645
-0.966413
-0.959631
-0.948933
-0.93116
-0.900019
-0.837902
-0.677385
-0.674361
-0.840818
-0.902278
-0.932589
-0.949749
-0.960329
-0.966975
-0.971287
-0.973286
-0.973891
-0.973088
-0.970748
-0.966503
-0.959712
-0.948919
-0.931231
-0.90009
-0.837968
-0.677434
-0.674408
-0.84088
-0.902346
-0.932665
-0.949841
-0.960414
-0.967024
-0.97135
-0.973367
-0.974031
-0.97314
-0.970837
-0.966663
-0.959791
-0.948975
-0.931295
-0.900155
-0.838031
-0.67748
-0.67445
-0.840931
-0.902395
-0.932701
-0.949911
-0.960555
-0.967096
-0.971419
-0.973434
-0.974045
-0.973248
-0.970958
-0.966758
-0.959867
-0.949038
-0.931354
-0.900214
-0.838086
-0.677522
-0.674494
-0.840983
-0.902448
-0.932754
-0.949967
-0.960535
-0.967169
-0.971481
-0.973485
-0.974101
-0.973326
-0.971033
-0.966759
-0.959927
-0.949097
-0.931411
-0.900268
-0.838137
-0.677563
-0.674532
-0.841035
-0.902512
-0.932835
-0.950032
-0.96057
-0.96722
-0.971574
-0.973597
-0.974172
-0.973392
-0.971098
-0.966815
-0.959977
-0.949151
-0.931465
-0.90032
-0.838186
-0.677601
-0.674563
-0.841077
-0.902561
-0.932881
-0.949981
-0.960609
-0.967262
-0.971636
-0.973667
-0.974236
-0.973453
-0.971158
-0.966875
-0.960066
-0.949221
-0.931526
-0.90037
-0.838231
-0.677636
-0.674597
-0.841121
-0.902607
-0.932929
-0.950109
-0.960653
-0.967309
-0.971687
-0.973721
-0.974284
-0.973456
-0.97113
-0.966912
-0.960116
-0.949275
-0.931577
-0.900417
-0.838273
-0.677668
-0.674628
-0.841162
-0.90265
-0.932977
-0.95017
-0.960703
-0.967357
-0.971735
-0.973766
-0.974328
-0.973492
-0.971168
-0.967092
-0.960134
-0.949308
-0.931614
-0.900459
-0.838313
-0.677699
-0.674656
-0.8412
-0.902692
-0.933023
-0.950252
-0.960752
-0.967403
-0.971781
-0.973811
-0.974371
-0.973531
-0.971212
-0.967153
-0.960184
-0.949349
-0.931655
-0.900498
-0.83835
-0.677728

