# vtk DataFile Version 2.0
OUTPUT by 3D-VPM
ASCII
DATASET UNSTRUCTURED_GRID
POINTS 1320 double
6.397497e+01	1.152879e+00	-2.799631e+00
6.483519e+01	1.477326e+00	-1.627970e+00
6.451212e+01	2.548077e+00	-2.496231e+00
6.422059e+01	3.548438e+00	-2.039291e+00
6.446333e+01	4.470490e+00	-1.540081e+00
6.453695e+01	5.480341e+00	-1.530224e+00
6.445620e+01	6.469664e+00	-1.465019e+00
6.444553e+01	7.465187e+00	-1.369613e+00
6.444488e+01	8.474908e+00	-1.335787e+00
6.443788e+01	9.490896e+00	-1.320449e+00
6.443789e+01	1.050909e+01	-1.320456e+00
6.444490e+01	1.152507e+01	-1.335805e+00
6.444556e+01	1.253476e+01	-1.369622e+00
6.445625e+01	1.353024e+01	-1.464975e+00
6.453704e+01	1.451950e+01	-1.530095e+00
6.446360e+01	1.552936e+01	-1.539750e+00
6.422089e+01	1.645180e+01	-2.039339e+00
6.451686e+01	1.745175e+01	-2.496807e+00
6.484554e+01	1.853032e+01	-1.602537e+00
6.391484e+01	1.887909e+01	-2.847357e+00
6.336240e+01	1.194399e+00	-2.654574e+00
6.453556e+01	6.673165e-01	-8.916746e-01
6.369869e+01	2.258111e+00	-1.741086e+00
6.394923e+01	3.135152e+00	-6.826787e-01
6.419105e+01	4.241433e+00	-3.076282e-01
6.407246e+01	5.299755e+00	-2.780048e-01
6.403086e+01	6.321818e+00	-1.589615e-01
6.400878e+01	7.373026e+00	-8.706590e-02
6.398951e+01	8.423935e+00	-5.286874e-02
6.398047e+01	9.474283e+00	-3.546988e-02
6.398046e+01	1.052567e+01	-3.547701e-02
6.398949e+01	1.157602e+01	-5.288689e-02
6.400875e+01	1.262691e+01	-8.707753e-02
6.403081e+01	1.367810e+01	-1.589590e-01
6.407244e+01	1.470015e+01	-2.779664e-01
6.419113e+01	1.575848e+01	-3.076056e-01
6.394943e+01	1.686502e+01	-6.829249e-01
6.370131e+01	1.774106e+01	-1.749916e+00
6.453805e+01	1.933397e+01	-8.858695e-01
6.338223e+01	1.872913e+01	-2.660243e+00
6.268825e+01	5.031548e-01	-1.962911e+00
6.260636e+01	1.215697e+00	-1.172439e+00
6.445474e+01	7.524944e-01	-3.331558e+00
6.523109e+01	2.954193e+00	-2.783463e+00
6.538713e+01	3.983205e+00	-2.392182e+00
6.550819e+01	5.160478e+00	-2.243043e+00
6.553313e+01	6.275806e+00	-2.022631e+00
6.554118e+01	7.341706e+00	-1.887155e+00
6.554489e+01	8.407413e+00	-1.811200e+00
6.554453e+01	9.469623e+00	-1.773741e+00
6.554454e+01	1.053026e+01	-1.773771e+00
6.554490e+01	1.159244e+01	-1.811304e+00
6.554120e+01	1.265809e+01	-1.887373e+00
6.553312e+01	1.372387e+01	-2.023049e+00
6.550814e+01	1.483891e+01	-2.243784e+00
6.538729e+01	1.601549e+01	-2.393341e+00
6.523186e+01	1.704374e+01	-2.784699e+00
6.445306e+01	1.924623e+01	-3.322987e+00
6.259907e+01	1.877268e+01	-1.190178e+00
6.269949e+01	1.950497e+01	-1.956627e+00
6.145877e+01	3.536607e-01	-2.118585e+00
6.192218e+01	1.078008e+00	-9.834089e-01
6.259203e+01	1.032507e-01	-3.579132e+00
6.279350e+01	2.572256e+00	-4.136355e+00
6.305211e+01	4.040703e+00	-3.939755e+00
6.319509e+01	5.208953e+00	-3.756764e+00
6.327277e+01	6.302761e+00	-3.624686e+00
6.331937e+01	7.369244e+00	-3.533185e+00
6.334538e+01	8.424009e+00	-3.476923e+00
6.335704e+01	9.474851e+00	-3.450415e+00
6.335706e+01	1.052498e+01	-3.450468e+00
6.334545e+01	1.157580e+01	-3.477096e+00
6.331950e+01	1.263052e+01	-3.533510e+00
6.327295e+01	1.369691e+01	-3.625227e+00
6.319550e+01	1.479056e+01	-3.757685e+00
6.305307e+01	1.595856e+01	-3.940777e+00
6.279570e+01	1.742595e+01	-4.136223e+00
6.259604e+01	1.988745e+01	-3.584722e+00
6.192632e+01	1.892438e+01	-9.745538e-01
6.146852e+01	1.964661e+01	-2.115532e+00
6.057334e+01	3.161685e-01	-1.783853e+00
6.103313e+01	6.836913e-01	-4.579498e-01
6.127721e+01	-2.516144e-01	-3.408432e+00
6.129943e+01	2.342290e+00	-4.196291e+00
6.143809e+01	3.918492e+00	-4.055075e+00
6.154085e+01	5.153988e+00	-3.883550e+00
6.160442e+01	6.275076e+00	-3.751644e+00
6.164235e+01	7.354350e+00	-3.660600e+00
6.166375e+01	8.416877e+00	-3.604308e+00
6.167346e+01	9.472733e+00	-3.577610e+00
6.167348e+01	1.052703e+01	-3.577692e+00
6.166381e+01	1.158285e+01	-3.604575e+00
6.164248e+01	1.264531e+01	-3.661108e+00
6.160462e+01	1.372444e+01	-3.752477e+00
6.154135e+01	1.484528e+01	-3.884964e+00
6.143923e+01	1.608019e+01	-4.056543e+00
6.130141e+01	1.765367e+01	-4.196123e+00
6.127900e+01	2.023959e+01	-3.420717e+00
6.103535e+01	1.932224e+01	-4.495675e-01
6.058108e+01	1.968594e+01	-1.774972e+00
5.973271e+01	9.732310e-02	-1.518900e+00
5.999885e+01	7.820690e-01	-4.557614e-01
6.015254e+01	-3.962083e-01	-3.291989e+00
6.010005e+01	2.209706e+00	-4.123539e+00
6.017930e+01	3.835716e+00	-3.991960e+00
6.024996e+01	5.105927e+00	-3.816740e+00
6.029898e+01	6.247833e+00	-3.679549e+00
6.033013e+01	7.339104e+00	-3.584240e+00
6.034828e+01	8.409140e+00	-3.525161e+00
6.035667e+01	9.470356e+00	-3.497089e+00
6.035668e+01	1.052935e+01	-3.497182e+00
6.034831e+01	1.159053e+01	-3.525460e+00
6.033020e+01	1.266046e+01	-3.584796e+00
6.029909e+01	1.375154e+01	-3.680414e+00
6.025029e+01	1.489312e+01	-3.818139e+00
6.018009e+01	1.616250e+01	-3.993051e+00
6.010120e+01	1.778473e+01	-4.122256e+00
6.015244e+01	2.038253e+01	-3.304858e+00
6.000070e+01	1.921748e+01	-4.511606e-01
5.974171e+01	1.990581e+01	-1.509779e+00
5.879697e+01	1.047409e-01	-1.547702e+00
5.908183e+01	8.514748e-01	-3.939129e-01
5.906084e+01	-4.842634e-01	-3.141167e+00
5.901523e+01	2.133177e+00	-4.016049e+00
5.906328e+01	3.782312e+00	-3.884425e+00
5.911231e+01	5.070759e+00	-3.703096e+00
5.914934e+01	6.225629e+00	-3.560326e+00
5.917432e+01	7.325776e+00	-3.460864e+00
5.918947e+01	8.402067e+00	-3.399144e+00
5.919663e+01	9.468135e+00	-3.369789e+00
5.919664e+01	1.053154e+01	-3.369879e+00
5.918948e+01	1.159756e+01	-3.399429e+00
5.917434e+01	1.267374e+01	-3.461375e+00
5.914937e+01	1.377368e+01	-3.561093e+00
5.911248e+01	1.492817e+01	-3.704224e+00
5.906376e+01	1.621564e+01	-3.884734e+00
5.901590e+01	1.786038e+01	-4.013245e+00
5.906049e+01	2.046964e+01	-3.153508e+00
5.908544e+01	1.914985e+01	-3.861009e-01
5.880423e+01	1.989678e+01	-1.539981e+00
5.787004e+01	2.091812e-01	-1.433480e+00
5.812680e+01	8.680296e-01	-2.565440e-01
5.802514e+01	-5.289260e-01	-2.971667e+00
5.798148e+01	2.087770e+00	-3.903526e+00
5.801223e+01	3.748825e+00	-3.769578e+00
5.804672e+01	5.046481e+00	-3.582585e+00
5.807444e+01	6.208862e+00	-3.435116e+00
5.809408e+01	7.315000e+00	-3.332259e+00
5.810640e+01	8.396087e+00	-3.268355e+00
5.811236e+01	9.466218e+00	-3.237937e+00
5.811236e+01	1.053344e+01	-3.238016e+00
5.810640e+01	1.160353e+01	-3.268598e+00
5.809407e+01	1.268450e+01	-3.332667e+00
5.807444e+01	1.379043e+01	-3.435772e+00
5.804681e+01	1.495242e+01	-3.583402e+00
5.801256e+01	1.624900e+01	-3.769032e+00
5.798202e+01	1.790521e+01	-3.899289e+00
5.802503e+01	2.051385e+01	-2.984102e+00
5.812927e+01	1.913486e+01	-2.461066e-01
5.787618e+01	1.979103e+01	-1.422363e+00
5.694557e+01	2.197263e-01	-1.321130e+00
5.714246e+01	8.826865e-01	-1.716899e-01
5.702266e+01	-5.370958e-01	-2.842810e+00
5.697291e+01	2.063907e+00	-3.797169e+00
5.699207e+01	3.729404e+00	-3.659886e+00
5.701648e+01	5.030839e+00	-3.468333e+00
5.703715e+01	6.197061e+00	-3.317362e+00
5.705235e+01	7.306910e+00	-3.211930e+00
5.706216e+01	8.391405e+00	-3.146337e+00
5.706699e+01	9.464688e+00	-3.115083e+00
5.706699e+01	1.053497e+01	-3.115139e+00
5.706215e+01	1.160821e+01	-3.146498e+00
5.705233e+01	1.269260e+01	-3.212196e+00
5.703712e+01	1.380223e+01	-3.317770e+00
5.701655e+01	1.496807e+01	-3.468742e+00
5.699238e+01	1.626836e+01	-3.658577e+00
5.697349e+01	1.792864e+01	-3.791745e+00
5.702269e+01	2.052162e+01	-2.855123e+00
5.714394e+01	1.912071e+01	-1.604395e-01
5.695111e+01	1.978180e+01	-1.308412e+00
5.600074e+01	2.527774e-01	-1.283502e+00
5.616095e+01	8.825759e-01	-9.932677e-02
5.602574e+01	-5.237843e-01	-2.747352e+00
5.597574e+01	2.056664e+00	-3.700867e+00
5.598675e+01	3.720339e+00	-3.559130e+00
5.600398e+01	5.021857e+00	-3.364107e+00
5.601938e+01	6.189402e+00	-3.210866e+00
5.603103e+01	7.301288e+00	-3.103675e+00
5.603867e+01	8.388021e+00	-3.036706e+00
5.604250e+01	9.463559e+00	-3.004776e+00
5.604250e+01	1.053611e+01	-3.004782e+00
5.603865e+01	1.161162e+01	-3.036646e+00
5.603094e+01	1.269823e+01	-3.103379e+00
5.601927e+01	1.380985e+01	-3.210578e+00
5.600399e+01	1.497700e+01	-3.363535e+00
5.598704e+01	1.627731e+01	-3.556722e+00
5.597639e+01	1.793556e+01	-3.694452e+00
5.602591e+01	2.050794e+01	-2.759192e+00
5.616194e+01	1.912177e+01	-8.680536e-02
5.600437e+01	1.974885e+01	-1.270545e+00
5.505508e+01	3.034011e-01	-1.244859e+00
5.517400e+01	8.641550e-01	-2.795759e-02
5.503240e+01	-4.960211e-01	-2.675771e+00
5.498285e+01	2.061550e+00	-3.614466e+00
5.498828e+01	3.718904e+00	-3.467559e+00
5.500037e+01	5.017971e+00	-3.269823e+00
5.501172e+01	6.185281e+00	-3.113066e+00
5.502060e+01	7.297834e+00	-3.004755e+00
5.502663e+01	8.385750e+00	-2.938988e+00
5.502964e+01	9.462788e+00	-2.906762e+00
5.502964e+01	1.053689e+01	-2.906696e+00
5.502660e+01	1.161388e+01	-2.938806e+00
5.502062e+01	1.270175e+01	-3.006311e+00
5.501173e+01	1.381410e+01	-3.114436e+00
5.500042e+01	1.498085e+01	-3.268667e+00
5.498860e+01	1.627865e+01	-3.464385e+00
5.498357e+01	1.793042e+01	-3.607213e+00
5.503275e+01	2.047985e+01	-2.686966e+00
5.517430e+01	1.914127e+01	-1.427916e-02
5.505648e+01	1.969691e+01	-1.231272e+00
5.410506e+01	3.343400e-01	-1.205879e+00
5.418221e+01	8.319386e-01	3.526504e-02
5.404034e+01	-4.582795e-01	-2.625723e+00
5.399112e+01	2.075176e+00	-3.536524e+00
5.399274e+01	3.722999e+00	-3.384099e+00
5.400118e+01	5.017919e+00	-3.184424e+00
5.400965e+01	6.183757e+00	-3.026222e+00
5.401644e+01	7.296015e+00	-2.917100e+00
5.402109e+01	8.384419e+00	-2.851526e+00
5.402344e+01	9.462326e+00	-2.819389e+00
5.402344e+01	1.053735e+01	-2.819294e+00
5.402106e+01	1.161517e+01	-2.851512e+00
5.401644e+01	1.270356e+01	-2.919736e+00
5.400967e+01	1.381575e+01	-3.028483e+00
5.400128e+01	1.498096e+01	-3.183385e+00
5.399309e+01	1.627456e+01	-3.380703e+00
5.399190e+01	1.791662e+01	-3.528624e+00
5.404084e+01	2.044180e+01	-2.636209e+00
5.418186e+01	1.917454e+01	4.961164e-02
5.410595e+01	1.966550e+01	-1.191884e+00
5.314344e+01	3.568747e-01	-1.173139e+00
5.318858e+01	7.886707e-01	9.111930e-02
5.304735e+01	-4.132909e-01	-2.592072e+00
5.299918e+01	2.095105e+00	-3.465493e+00
5.299822e+01	3.731011e+00	-3.307489e+00
5.300409e+01	5.020602e+00	-3.106536e+00
5.301049e+01	6.183965e+00	-2.949821e+00
[...]
CELL_DATA 1235
SCALARS Mu double 1
LOOKUP_TABLE default
-0.388429
-0.434839
-0.445113
-0.448285
-0.449531
-0.450112
-0.450415
-0.45058
-0.450664
-0.450691
-0.450664
-0.45058
-0.450415
-0.450112
-0.449531
-0.448285
-0.445113
-0.434839
-0.388429
-0.510131
-0.594683
-0.616974
-0.624665
-0.627855
-0.629376
-0.630171
-0.630603
-0.630824
-0.630893
-0.630827
-0.630608
-0.630178
-0.629383
-0.627864
-0.624669
-0.616953
-0.594531
-0.509768
-0.565402
-0.676259
-0.708906
-0.721304
-0.726769
-0.729481
-0.73093
-0.731726
-0.732133
-0.732261
-0.732142
-0.731746
-0.730963
-0.729527
-0.726831
-0.721339
-0.708845
-0.676044
-0.567553
-0.5965
-0.724128
-0.764294
-0.780705
-0.788374
-0.792329
-0.794491
-0.79569
-0.796305
-0.796497
-0.796315
-0.795713
-0.794527
-0.792381
-0.788441
-0.780711
-0.764093
-0.72369
-0.599882
-0.616157
-0.754595
-0.800147
-0.819703
-0.829262
-0.834366
-0.837218
-0.838823
-0.839649
-0.839907
-0.839656
-0.838838
-0.837242
-0.834395
-0.829287
-0.81961
-0.799729
-0.753863
-0.620006
-0.629462
-0.77515
-0.824573
-0.846525
-0.857613
-0.863703
-0.867176
-0.869157
-0.870184
-0.870502
-0.870184
-0.869157
-0.867173
-0.863686
-0.85756
-0.846289
-0.823906
-0.774108
-0.633433
-0.63891
-0.789621
-0.841854
-0.865629
-0.87793
-0.884838
-0.888843
-0.891155
-0.892362
-0.892735
-0.892353
-0.891135
-0.888804
-0.884767
-0.877784
-0.865235
-0.840944
-0.78829
-0.642855
-0.645861
-0.800146
-0.854446
-0.879611
-0.892871
-0.900442
-0.904899
-0.907495
-0.908859
-0.909278
-0.908838
-0.907451
-0.904819
-0.900312
-0.892624
-0.879062
-0.853314
-0.798557
-0.649722
-0.651118
-0.808004
-0.863847
-0.890074
-0.904089
-0.912208
-0.917035
-0.91987
-0.921366
-0.921824
-0.921333
-0.919799
-0.916913
-0.912002
-0.903739
-0.889378
-0.86252
-0.80619
-0.654877
-0.655184
-0.813999
-0.871014
-0.898055
-0.91267
-0.921219
-0.926358
-0.929393
-0.931
-0.93149
-0.930954
-0.929291
-0.926181
-0.920941
-0.912171
-0.897221
-0.869514
-0.811993
-0.658841
-0.658388
-0.818659
-0.87657
-0.904239
-0.919324
-0.928202
-0.933353
-0.936781
-0.938511
-0.939032
-0.938454
-0.936687
-0.933422
-0.927882
-0.918774
-0.903285
-0.874921
-0.816489
-0.661948
-0.660949
-0.822338
-0.88094
-0.909098
-0.924554
-0.933726
-0.939242
-0.942613
-0.944431
-0.944972
-0.944365
-0.94251
-0.939127
-0.933362
-0.923934
-0.908042
-0.879166
-0.820031
-0.664423
-0.663021
-0.825283
-0.884419
-0.91296
-0.928706
-0.938104
-0.943837
-0.947298
-0.94915
-0.949712
-0.94908
-0.947156
-0.943615
-0.937678
-0.92802
-0.911817
-0.882541
-0.82286
-0.666419
-0.664715
-0.827667
-0.887216
-0.916056
-0.932031
-0.941591
-0.947475
-0.951026
-0.95292
-0.953498
-0.952849
-0.950851
-0.947181
-0.941111
-0.931284
-0.91484
-0.885252
-0.825147
-0.668047
-0.666097
-0.829594
-0.889464
-0.918544
-0.934709
-0.944423
-0.950403
-0.954048
-0.955985
-0.956559
-0.955888
-0.953846
-0.950085
-0.943903
-0.933924
-0.917287
-0.887452
-0.827017
-0.669388
-0.667253
-0.831199
-0.891318
-0.920587
-0.936901
-0.946741
-0.952803
-0.956494
-0.958367
-0.959029
-0.958341
-0.955882
-0.952377
-0.946158
-0.93607
-0.919281
-0.889251
-0.828559
-0.670503
-0.668225
-0.832528
-0.892849
-0.922268
-0.938724
-0.948632
-0.95476
-0.958469
-0.960483
-0.961076
-0.960326
-0.958144
-0.954299
-0.947591
-0.937793
-0.920911
-0.890737
-0.829835
-0.671435
-0.669047
-0.833641
-0.894119
-0.923653
-0.940183
-0.950182
-0.956367
-0.960143
-0.962458
-0.963208
-0.962042
-0.959854
-0.955938
-0.949468
-0.93926
-0.922276
-0.89198
-0.830914
-0.672233
-0.669767
-0.834672
-0.895229
-0.924909
-0.941505
-0.951463
-0.957689
-0.96148
-0.963593
-0.96431
-0.963546
-0.961351
-0.957315
-0.950829
-0.940496
-0.923416
-0.893019
-0.831825
-0.672916
-0.670312
-0.835344
-0.896019
-0.925722
-0.942395
-0.952498
-0.958791
-0.962623
-0.964705
-0.965348
-0.964681
-0.962445
-0.958452
-0.951955
-0.941544
-0.924384
-0.893894
-0.832588
-0.673485
-0.670778
-0.835965
-0.896752
-0.926487
-0.943239
-0.953408
-0.959746
-0.963602
-0.965689
-0.966309
-0.965575
-0.963436
-0.959372
-0.952866
-0.942406
-0.9252
-0.894666
-0.833238
-0.673966
-0.671201
-0.836527
-0.897403
-0.927221
-0.943991
-0.954198
-0.960565
-0.964442
-0.966536
-0.96716
-0.966427
-0.964225
-0.960186
-0.953631
-0.94313
-0.925872
-0.895265
-0.833767
-0.674364
-0.671574
-0.837024
-0.897976
-0.927847
-0.944655
-0.954893
-0.961277
-0.965168
-0.967284
-0.96792
-0.96719
-0.964957
-0.96089
-0.954257
-0.943745
-0.926479
-0.895817
-0.834246
-0.674719
-0.671901
-0.837465
-0.898476
-0.928371
-0.945229
-0.955506
-0.961918
-0.965836
-0.967943
-0.9686
-0.967847
-0.965649
-0.961531
-0.954898
-0.944353
-0.927025
-0.896261
-0.834667
-0.67503
-0.672181
-0.837848
-0.89886
-0.928876
-0.945762
-0.956053
-0.96248
-0.966416
-0.968528
-0.96916
-0.968423
-0.96618
-0.96197
-0.955345
-0.944872
-0.92751
-0.896732
-0.835035
-0.675302
-0.672432
-0.838191
-0.899304
-0.929302
-0.946225
-0.956537
-0.962983
-0.966931
-0.969046
-0.969698
-0.968958
-0.966693
-0.962563
-0.955913
-0.945337
-0.927944
-0.897097
-0.835372
-0.675543
-0.67265
-0.838473
-0.899433
-0.929681
-0.946642
-0.956974
-0.963416
-0.967382
-0.969528
-0.970182
-0.969434
-0.967162
-0.963034
-0.95637
-0.945756
-0.928334
-0.897476
-0.835673
-0.675758
-0.672843
-0.838734
-0.899801
-0.930017
-0.94701
-0.957366
-0.963823
-0.96782
-0.969982
-0.970669
-0.969866
-0.967549
-0.963444
-0.956781
-0.946143
-0.928686
-0.89776
-0.835933
-0.675947
-0.673019
-0.838981
-0.900132
-0.930327
-0.947327
-0.957681
-0.964209
-0.968202
-0.970361
-0.971052
-0.970207
-0.967921
-0.963822
-0.957088
-0.946483
-0.928995
-0.898061
-0.836171
-0.676117
-0.673184
-0.839214
-0.900475
-0.930633
-0.947652
-0.958038
-0.964544
-0.968532
-0.9707
-0.971412
-0.970585
-0.968296
-0.964105
-0.957431
-0.946776
-0.929278
-0.898315
-0.836391
-0.676271
-0.673336
-0.839438
-0.900733
-0.930907
-0.947952
-0.958539
-0.96489
-0.96909
-0.971099
-0.971747
-0.971032
-0.968664
-0.964525
-0.957764
-0.947021
-0.929528
-0.898543
-0.836589
-0.676412
-0.673093
-0.832934
-0.900547
-0.931022
-0.948003
-0.95862
-0.965148
-0.969415
-0.971412
-0.972045
-0.971313
-0.969027
-0.965407
-0.958068
-0.947317
-0.929762
-0.898751
-0.83677
-0.676538
-0.673109
-0.838233
-0.900522
-0.931105
-0.948293
-0.958806
-0.965382
-0.969683
-0.971677
-0.972301
-0.971567
-0.969306
-0.965783
-0.95836
-0.947568
-0.929975
-0.898935
-0.83693
-0.676652
-0.673397
-0.839334
-0.900867
-0.931315
-0.948502
-0.959012
-0.965615
-0.970051
-0.972024
-0.97254
-0.971793
-0.969506
-0.96541
-0.958569
-0.947775
-0.930156
-0.899072
-0.83707
-0.676757
-0.673604
-0.839754
-0.901216
-0.931532
-0.948696
-0.959212
-0.965862
-0.970156
-0.972154
-0.972747
-0.971998
-0.969691
-0.965496
-0.958798
-0.947957
-0.930312
-0.899211
-0.837196
-0.676852
-0.673756
-0.839992
-0.901407
-0.931681
-0.948861
-0.959426
-0.966021
-0.970411
-0.972329
-0.972929
-0.972154
-0.969843
-0.965629
-0.958887
-0.948089
-0.930449
-0.899337
-0.83731
-0.676936
-0.673875
-0.840163
-0.901591
-0.931873
-0.949026
-0.959545
-0.966179
-0.970492
-0.972491
-0.973094
-0.972311
-0.970005
-0.965796
-0.959061
-0.948218
-0.930574
-0.899452
-0.83741
-0.677013
-0.673972
-0.840299
-0.90173
-0.932019
-0.949157
-0.959648
-0.966291
-0.970629
-0.972706
-0.973241
-0.972472
-0.970159
-0.965913
-0.959131
-0.948335
-0.93073
-0.899558
-0.837505
-0.677083
-0.674055
-0.840414
-0.901851
-0.932148
-0.949367
-0.959803
-0.966422
-0.970753
-0.972774
-0.973387
-0.972691
-0.970305
-0.966032
-0.95925
-0.948466
-0.930802
-0.899682
-0.837596
-0.677151
-0.67413
-0.840515
-0.901958
-0.932259
-0.94945
-0.959925
-0.966547
-0.97095
-0.972724
-0.973462
-0.972732
-0.970365
-0.96615
-0.959404
-0.948576
-0.930894
-0.899772
-0.837678
-0.677212
-0.674198
-0.840603
-0.90205
-0.932345
-0.94942
-0.960026
-0.966664
-0.970992
-0.972961
-0.973695
-0.972848
-0.970146
-0.966318
-0.959473
-0.948614
-0.930956
-0.899821
-0.837742
-0.677265
-0.674258
-0.84068
-0.902131
-0.932425
-0.949485
-0.960115
-0.966749
-0.971085
-0.973081
-0.973718
-0.972906
-0.970484
-0.966326
-0.959536
-0.948734
-0.93109
-0.899936
-0.83783
-0.677332
-0.67431
-0.84075
-0.902206
-0.932504
-0.949582
-0.96021
-0.967018
-0.971233
-0.973196
-0.973804
-0.973005
-0.970645
-0.966413
-0.959631
-0.948933
-0.93116
-0.900019
-0.837902
-0.677385
-0.674361
-0.840818
-0.902278
-0.932589
-0.949749
-0.960329
-0.966975
-0.971287
-0.973286
-0.973891
-0.973088
-0.970748
-0.966503
-0.959712
-0.948919
-0.931231
-0.90009
-0.837968
-0.677434
-0.674408
-0.84088
-0.902346
-0.932665
-0.949841
-0.960414
-0.967024
-0.97135
-0.973367
-0.974031
-0.97314
-0.970837
-0.966663
-0.959791
-0.948975
-0.931295
-0.900155
-0.838031
-0.67748
-0.67445
-0.840931
-0.902395
-0.932701
-0.949911
-0.960555
-0.967096
-0.971419
-0.973434
-0.974045
-0.973248
-0.970958
-0.966758
-0.959867
-0.949038
-0.931354
-0.900214
-0.838086
-0.677522
-0.674494
-0.840983
-0.902448
-0.932754
-0.949967
-0.960535
-0.967169
-0.971481
-0.973485
-0.974101
-0.973326
-0.971033
-0.966759
-0.959927
-0.949097
-0.931411
-0.900268
-0.838137
-0.677563
-0.674532
-0.841035
-0.902512
-0.932835
-0.950032
-0.96057
-0.96722
-0.971574
-0.973597
-0.974172
-0.973392
-0.971098
-0.966815
-0.959977
-0.949151
-0.931465
-0.90032
-0.838186
-0.677601
-0.674563
-0.841077
-0.902561
-0.932881
-0.949981
-0.960609
-0.967262
-0.971636
-0.973667
-0.974236
-0.973453
-0.971158
-0.966875
-0.960066
-0.949221
-0.931526
-0.90037
-0.838231
-0.677636
-0.674597
-0.841121
-0.902607
-0.932929
-0.950109
-0.960653
-0.967309
-0.971687
-0.973721
-0.974284
-0.973456
-0.97113
-0.966912
-0.960116
-0.949275
-0.931577
-0.900417
-0.838273
-0.677668
-0.674628
-0.841162
-0.90265
-0.932977
-0.95017
-0.960703
-0.967357
-0.971735
-0.973766
-0.974328
-0.973492
-0.971168
-0.967092
-0.960134
-0.949308
-0.931614
-0.900459
-0.838313
-0.677699
-0.674656
-0.8412
-0.902692
-0.933023
-0.950252
-0.960752
-0.967403
-0.971781
-0.973811
-0.974371
-0.973531
-0.971212
-0.967153
-0.960184
-0.949349
-0.931655
-0.900498
-0.83835
-0.677728
-0.674684
-0.841236
-0.902732
-0.933066
-0.950302
-0.960796
-0.967442
-0.971794
-0.973849
-0.974408
-0.973574
-0.971267
-0.967281
-0.960261
-0.949395
-0.931694
-0.900536
-0.838385
-0.677755
-0.67471
-0.84127
-0.90277
-0.933108
-0.950345
-0.960838
-0.967482
-0.971834
-0.973904
-0.974506
-0.973629
-0.97135
-0.967322
-0.960292
-0.949434
-0.931732
-0.900572
-0.838419
-0.677781
-0.674735
-0.841302
-0.902806
-0.933151
-0.950391
-0.960933
-0.967553
-0.971876
-0.973897
-0.974498
-0.973663
-0.97135
-0.967205
-0.960267
-0.949464
-0.931766
-0.900606
-0.83845
-0.677805
-0.674759
-0.841335
-0.902839
-0.933187
-0.950428
-0.960939
-0.967594
-0.971912
-0.973932
-0.974602
-0.973733
-0.971418
-0.967176
-0.960304
-0.949493
-0.931798
-0.900637
-0.838479
-0.677828
-0.674781
-0.841364
-0.90287
-0.933216
-0.950411
-0.960962
-0.967628
-0.971945
-0.973957
-0.974573
-0.973748
-0.971466
-0.967192
-0.960335
-0.949592
-0.931833
-0.900668
-0.838507
-0.67785
-0.674804
-0.84139
-0.902899
-0.933245
-0.950432
-0.96099
-0.967662
-0.972023
-0.973995
-0.974628
-0.973778
-0.971495
-0.96722
-0.960368
-0.949636
-0.931868
-0.900698
-0.838534
-0.677869
-0.674824
-0.841417
-0.902924
-0.933269
-0.950456
-0.961015
-0.96769
-0.97206
-0.97402
-0.97463
-0.973798
-0.971486
-0.967243
-0.960397
-0.949669
-0.931899
-0.900726
-0.838559
-0.677889
-0.674839
-0.841437
-0.902946
-0.933288
-0.950481
-0.961041
-0.967719
-0.972119
-0.974049
-0.974651
-0.973817
-0.971502
-0.967263
-0.960396
-0.949697
-0.931927
-0.900752
-0.838583
-0.677907
-0.674856
-0.841458
-0.90297
-0.933315
-0.950521
-0.961071
-0.96775
-0.972159
-0.974092
-0.974728
-0.973845
-0.971524
-0.967276
-0.960413
-0.949721
-0.931953
-0.900777
-0.838606
-0.677925
-0.674876
-0.841481
-0.902995
-0.93334
-0.95055
-0.961098
-0.967774
-0.97216
-0.974122
-0.974765
-0.973875
-0.971551
-0.967298
-0.960435
-0.949745
-0.931976
-0.9008
-0.838627
-0.677942
-0.67489
-0.841502
-0.903017
-0.933365
-0.950565
-0.961167
-0.967803
-0.972182
-0.974148
-0.974794
-0.973902
-0.971577
-0.967322
-0.960459
-0.949779
-0.932001
-0.900822
-0.838648
-0.677958
-0.674906
-0.841521
-0.903038
-0.933388
-0.950589
-0.961201
-0.967837
-0.972208
-0.974173
-0.974819
-0.973926
-0.9716
-0.967343
-0.960476
-0.949733
-0.932018
-0.900842
-0.838667
-0.677973

