# vtk DataFile Version 2.0
OUTPUT by 3D-VPM
ASCII
DATASET UNSTRUCTURED_GRID
POINTS 660 double
3.143969e+01	7.386915e-01	-4.942061e-01
3.176201e+01	1.121469e+00	-1.088826e+00
3.139826e+01	2.308662e+00	-1.056943e+00
3.140277e+01	3.297536e+00	-7.308635e-01
3.143767e+01	4.302803e+00	-6.535399e-01
3.141707e+01	5.322815e+00	-6.002695e-01
3.140492e+01	6.353621e+00	-5.556862e-01
3.139797e+01	7.391618e+00	-5.279310e-01
3.139349e+01	8.433651e+00	-5.112963e-01
3.139141e+01	9.477621e+00	-5.033664e-01
3.139140e+01	1.052236e+01	-5.033697e-01
3.139348e+01	1.156633e+01	-5.113056e-01
3.139797e+01	1.260836e+01	-5.279424e-01
3.140492e+01	1.364634e+01	-5.556896e-01
3.141709e+01	1.467712e+01	-6.002500e-01
3.143773e+01	1.569711e+01	-6.534746e-01
3.140300e+01	1.670237e+01	-7.307177e-01
3.139875e+01	1.769124e+01	-1.056485e+00
3.176271e+01	1.887911e+01	-1.088360e+00
3.144005e+01	1.926223e+01	-4.914441e-01
3.113890e+01	2.539210e-01	-1.068725e+00
3.194044e+01	2.319061e-01	-1.716620e+00
3.234222e+01	2.045056e+00	-1.483094e+00
3.241108e+01	3.096824e+00	-1.148670e+00
3.245496e+01	4.178967e+00	-1.013294e+00
3.245488e+01	5.247158e+00	-9.045614e-01
3.245108e+01	6.305080e+00	-8.358795e-01
3.244777e+01	7.361474e+00	-7.943441e-01
3.244541e+01	8.417107e+00	-7.703359e-01
3.244430e+01	9.472323e+00	-7.592546e-01
3.244429e+01	1.052766e+01	-7.592486e-01
3.244540e+01	1.158287e+01	-7.703182e-01
3.244776e+01	1.263849e+01	-7.943139e-01
3.245108e+01	1.369487e+01	-8.358342e-01
3.245490e+01	1.475275e+01	-9.045235e-01
3.245504e+01	1.582086e+01	-1.013296e+00
3.241134e+01	1.690291e+01	-1.148701e+00
3.234274e+01	1.795472e+01	-1.482485e+00
3.194159e+01	1.976714e+01	-1.715406e+00
3.113854e+01	1.974409e+01	-1.070141e+00
2.987799e+01	4.625210e-01	-1.173547e+00
3.026443e+01	-4.098448e-01	-1.690861e+00
3.046073e+01	1.751946e+00	-2.579518e+00
3.060749e+01	3.083973e+00	-2.430890e+00
3.068933e+01	4.195284e+00	-2.290387e+00
3.072850e+01	5.262226e+00	-2.195374e+00
3.074910e+01	6.318102e+00	-2.132696e+00
3.076012e+01	7.370658e+00	-2.092860e+00
3.076581e+01	8.422445e+00	-2.069404e+00
3.076834e+01	9.474073e+00	-2.058540e+00
3.076834e+01	1.052590e+01	-2.058554e+00
3.076582e+01	1.157752e+01	-2.069450e+00
3.076014e+01	1.262930e+01	-2.092941e+00
3.074912e+01	1.368183e+01	-2.132824e+00
3.072854e+01	1.473765e+01	-2.195597e+00
3.068947e+01	1.580450e+01	-2.290677e+00
3.060799e+01	1.691568e+01	-2.430966e+00
3.046108e+01	1.824729e+01	-2.578781e+00
3.026836e+01	2.041168e+01	-1.691137e+00
2.987797e+01	1.954057e+01	-1.175453e+00
2.893311e+01	4.682062e-01	-9.189882e-01
2.918102e+01	-5.476604e-01	-1.489605e+00
2.916136e+01	1.592889e+00	-2.646266e+00
2.923149e+01	3.017443e+00	-2.540042e+00
2.928705e+01	4.170802e+00	-2.402255e+00
2.931850e+01	5.252789e+00	-2.302944e+00
2.933566e+01	6.314256e+00	-2.237013e+00
2.934502e+01	7.369198e+00	-2.194868e+00
2.934993e+01	8.421958e+00	-2.169927e+00
2.935213e+01	9.473959e+00	-2.158374e+00
2.935213e+01	1.052599e+01	-2.158415e+00
2.934996e+01	1.157798e+01	-2.170059e+00
2.934507e+01	1.263073e+01	-2.195118e+00
2.933573e+01	1.368563e+01	-2.237424e+00
2.931864e+01	1.474704e+01	-2.303639e+00
2.928732e+01	1.582891e+01	-2.403088e+00
2.923207e+01	1.698199e+01	-2.540229e+00
2.916173e+01	1.840512e+01	-2.644776e+00
2.918577e+01	2.055632e+01	-1.491972e+00
2.893406e+01	1.954139e+01	-9.206053e-01
2.799906e+01	4.231159e-01	-8.199869e-01
2.813748e+01	-5.983913e-01	-1.396287e+00
2.806373e+01	1.519345e+00	-2.578828e+00
2.809429e+01	2.977883e+00	-2.480268e+00
2.813056e+01	4.150868e+00	-2.337976e+00
2.815475e+01	5.243021e+00	-2.233808e+00
2.816931e+01	6.309464e+00	-2.164201e+00
2.817774e+01	7.366885e+00	-2.119521e+00
2.818235e+01	8.420927e+00	-2.093010e+00
2.818444e+01	9.473662e+00	-2.080707e+00
2.818444e+01	1.052627e+01	-2.080754e+00
2.818235e+01	1.157899e+01	-2.093163e+00
2.817776e+01	1.263301e+01	-2.119814e+00
2.816933e+01	1.369038e+01	-2.164688e+00
2.815480e+01	1.475676e+01	-2.234638e+00
2.813073e+01	1.584879e+01	-2.338880e+00
2.809473e+01	1.702131e+01	-2.479906e+00
2.806400e+01	1.847713e+01	-2.576056e+00
2.813939e+01	2.060953e+01	-1.399532e+00
2.799979e+01	1.958923e+01	-8.237999e-01
2.705272e+01	4.392543e-01	-7.605015e-01
2.711904e+01	-5.933715e-01	-1.307845e+00
2.703491e+01	1.494252e+00	-2.485938e+00
2.704578e+01	2.958165e+00	-2.384951e+00
2.706919e+01	4.137970e+00	-2.238534e+00
2.708722e+01	5.235233e+00	-2.131069e+00
2.709915e+01	6.304979e+00	-2.059082e+00
2.710653e+01	7.364421e+00	-2.012745e+00
2.711075e+01	8.419711e+00	-1.985198e+00
2.711271e+01	9.473294e+00	-1.972393e+00
2.711271e+01	1.052662e+01	-1.972439e+00
2.711074e+01	1.158020e+01	-1.985348e+00
2.710652e+01	1.263546e+01	-2.013028e+00
2.709913e+01	1.369485e+01	-2.059538e+00
2.708721e+01	1.476453e+01	-2.131823e+00
2.706927e+01	1.586166e+01	-2.239161e+00
2.704612e+01	1.704084e+01	-2.383694e+00
2.703518e+01	1.850130e+01	-2.481736e+00
2.711971e+01	2.060513e+01	-1.310307e+00
2.705320e+01	1.957296e+01	-7.639294e-01
2.609681e+01	4.557024e-01	-6.932203e-01
2.611945e+01	-5.667791e-01	-1.253302e+00
2.603062e+01	1.495523e+00	-2.392763e+00
2.603121e+01	2.951727e+00	-2.286438e+00
2.604622e+01	4.131162e+00	-2.137473e+00
2.605944e+01	5.229990e+00	-2.028298e+00
2.606889e+01	6.301433e+00	-1.955078e+00
2.607509e+01	7.362236e+00	-1.907837e+00
2.607878e+01	8.418545e+00	-1.879711e+00
2.608054e+01	9.472929e+00	-1.866617e+00
2.608054e+01	1.052699e+01	-1.866658e+00
2.607877e+01	1.158136e+01	-1.879843e+00
2.607507e+01	1.263764e+01	-1.908080e+00
2.606886e+01	1.369840e+01	-1.955461e+00
2.605940e+01	1.476977e+01	-2.028891e+00
2.604627e+01	1.586847e+01	-2.137692e+00
2.603152e+01	1.704717e+01	-2.284278e+00
2.603101e+01	1.849949e+01	-2.387244e+00
2.611954e+01	2.057858e+01	-1.255778e+00
2.609708e+01	1.955691e+01	-6.958052e-01
2.512970e+01	4.619174e-01	-6.353573e-01
2.512360e+01	-5.304129e-01	-1.231428e+00
2.503494e+01	1.513220e+00	-2.305721e+00
2.502958e+01	2.953967e+00	-2.192934e+00
2.503911e+01	4.128992e+00	-2.043086e+00
2.504873e+01	5.227137e+00	-1.933634e+00
2.505607e+01	6.299048e+00	-1.860186e+00
2.506111e+01	7.360576e+00	-1.812713e+00
2.506421e+01	8.417593e+00	-1.784395e+00
2.506574e+01	9.472621e+00	-1.771193e+00
2.506573e+01	1.052730e+01	-1.771227e+00
2.506420e+01	1.158231e+01	-1.784501e+00
2.506109e+01	1.263931e+01	-1.812900e+00
2.505603e+01	1.370080e+01	-1.860502e+00
2.504869e+01	1.477264e+01	-1.934068e+00
2.503916e+01	1.587064e+01	-2.042903e+00
2.502992e+01	1.704487e+01	-2.190020e+00
2.503548e+01	1.848148e+01	-2.299119e+00
2.512324e+01	2.054194e+01	-1.234173e+00
2.512969e+01	1.955085e+01	-6.377774e-01
2.415335e+01	4.630450e-01	-5.849475e-01
2.412743e+01	-4.867704e-01	-1.231848e+00
2.404141e+01	1.541333e+00	-2.225267e+00
2.403264e+01	2.961800e+00	-2.105762e+00
2.403856e+01	4.130119e+00	-1.956440e+00
2.404557e+01	5.226234e+00	-1.847956e+00
2.405122e+01	6.297762e+00	-1.775172e+00
2.405524e+01	7.359506e+00	-1.728035e+00
2.405779e+01	8.416922e+00	-1.699856e+00
2.405906e+01	9.472396e+00	-1.686699e+00
2.405906e+01	1.052752e+01	-1.686722e+00
2.405778e+01	1.158299e+01	-1.699923e+00
2.405522e+01	1.264039e+01	-1.728152e+00
2.405119e+01	1.370209e+01	-1.775373e+00
2.404555e+01	1.477356e+01	-1.848199e+00
2.403864e+01	1.586953e+01	-1.955916e+00
2.403302e+01	1.703702e+01	-2.102276e+00
2.404207e+01	1.845322e+01	-2.217805e+00
2.412678e+01	2.049784e+01	-1.234924e+00
2.415308e+01	1.954958e+01	-5.873896e-01
2.317005e+01	4.590182e-01	-5.396073e-01
2.313024e+01	-4.364973e-01	-1.247035e+00
2.304767e+01	1.575766e+00	-2.150135e+00
2.303708e+01	2.973114e+00	-2.024322e+00
2.304064e+01	4.133470e+00	-1.876697e+00
2.304580e+01	5.226782e+00	-1.770189e+00
2.305015e+01	6.297390e+00	-1.698844e+00
2.305333e+01	7.358980e+00	-1.652531e+00
2.305537e+01	8.416536e+00	-1.624717e+00
2.305642e+01	9.472259e+00	-1.611714e+00
2.305642e+01	1.052767e+01	-1.611715e+00
2.305537e+01	1.158339e+01	-1.624691e+00
2.305332e+01	1.264092e+01	-1.652421e+00
2.305013e+01	1.370246e+01	-1.698759e+00
2.304580e+01	1.477301e+01	-1.770012e+00
2.304075e+01	1.586618e+01	-1.875699e+00
2.303748e+01	1.702573e+01	-2.020405e+00
2.304843e+01	1.841876e+01	-2.141993e+00
2.312940e+01	2.044699e+01	-1.250483e+00
2.316955e+01	1.955338e+01	-5.422222e-01
2.218160e+01	4.502647e-01	-4.989692e-01
2.213189e+01	-3.795184e-01	-1.271211e+00
2.205302e+01	1.613799e+00	-2.078871e+00
2.204159e+01	2.986467e+00	-1.947564e+00
2.204365e+01	4.138247e+00	-1.802595e+00
2.204750e+01	5.228354e+00	-1.698779e+00
2.205091e+01	6.297746e+00	-1.628591e+00
2.205343e+01	7.358931e+00	-1.583480e+00
2.205503e+01	8.416396e+00	-1.557102e+00
2.205589e+01	9.472200e+00	-1.544435e+00
2.205589e+01	1.052773e+01	-1.544405e+00
2.205503e+01	1.158353e+01	-1.557023e+00
2.205339e+01	1.264100e+01	-1.584082e+00
2.205087e+01	1.370212e+01	-1.629144e+00
2.204753e+01	1.477145e+01	-1.698359e+00
2.204378e+01	1.586141e+01	-1.801289e+00
2.204202e+01	1.701241e+01	-1.943320e+00
2.205385e+01	1.838081e+01	-2.070200e+00
2.213095e+01	2.038936e+01	-1.275025e+00
2.218091e+01	1.956181e+01	-5.018932e-01
2.118941e+01	4.375111e-01	-4.627054e-01
2.113257e+01	-3.156995e-01	-1.299840e+00
2.105736e+01	1.653615e+00	-2.010217e+00
2.104572e+01	3.000889e+00	-1.874448e+00
2.104684e+01	4.143879e+00	-1.732909e+00
2.104979e+01	5.230620e+00	-1.632386e+00
2.105250e+01	6.298638e+00	-1.564321e+00
2.105452e+01	7.359188e+00	-1.520612e+00
2.105579e+01	8.416450e+00	-1.495322e+00
2.105648e+01	9.472212e+00	-1.483161e+00
2.105648e+01	1.052773e+01	-1.483120e+00
2.105579e+01	1.158347e+01	-1.495306e+00
2.105446e+01	1.264073e+01	-1.521617e+00
2.105245e+01	1.370127e+01	-1.565202e+00
2.104983e+01	1.476920e+01	-1.632012e+00
2.104698e+01	1.585581e+01	-1.731539e+00
2.104617e+01	1.699805e+01	-1.869992e+00
2.105824e+01	1.834116e+01	-2.001158e+00
2.113156e+01	2.032484e+01	-1.303980e+00
2.118857e+01	1.957416e+01	-4.660221e-01
2.019452e+01	4.213736e-01	-4.305651e-01
2.013248e+01	-2.451140e-01	-1.329372e+00
2.006080e+01	1.693984e+00	-1.943182e+00
2.004936e+01	3.015723e+00	-1.804107e+00
2.004992e+01	4.149956e+00	-1.666662e+00
2.005226e+01	5.233304e+00	-1.569897e+00
2.005442e+01	6.299824e+00	-1.505193e+00
[...]
CELL_DATA 608
SCALARS Mu double 1
LOOKUP_TABLE default
-0.388429
-0.434839
-0.445113
-0.448285
-0.449531
-0.450112
-0.450415
-0.45058
-0.450664
-0.450691
-0.450664
-0.45058
-0.450415
-0.450112
-0.449531
-0.448285
-0.445113
-0.434839
-0.388429
-0.510131
-0.594683
-0.616974
-0.624665
-0.627855
-0.629376
-0.630171
-0.630603
-0.630824
-0.630893
-0.630827
-0.630608
-0.630178
-0.629383
-0.627864
-0.624669
-0.616953
-0.594531
-0.509768
-0.565402
-0.676259
-0.708906
-0.721304
-0.726769
-0.729481
-0.73093
-0.731726
-0.732133
-0.732261
-0.732142
-0.731746
-0.730963
-0.729527
-0.726831
-0.721339
-0.708845
-0.676044
-0.567553
-0.5965
-0.724128
-0.764294
-0.780705
-0.788374
-0.792329
-0.794491
-0.79569
-0.796305
-0.796497
-0.796315
-0.795713
-0.794527
-0.792381
-0.788441
-0.780711
-0.764093
-0.72369
-0.599882
-0.616157
-0.754595
-0.800147
-0.819703
-0.829262
-0.834366
-0.837218
-0.838823
-0.839649
-0.839907
-0.839656
-0.838838
-0.837242
-0.834395
-0.829287
-0.81961
-0.799729
-0.753863
-0.620006
-0.629462
-0.77515
-0.824573
-0.846525
-0.857613
-0.863703
-0.867176
-0.869157
-0.870184
-0.870502
-0.870184
-0.869157
-0.867173
-0.863686
-0.85756
-0.846289
-0.823906
-0.774108
-0.633433
-0.63891
-0.789621
-0.841854
-0.865629
-0.87793
-0.884838
-0.888843
-0.891155
-0.892362
-0.892735
-0.892353
-0.891135
-0.888804
-0.884767
-0.877784
-0.865235
-0.840944
-0.78829
-0.642855
-0.645861
-0.800146
-0.854446
-0.879611
-0.892871
-0.900442
-0.904899
-0.907495
-0.908859
-0.909278
-0.908838
-0.907451
-0.904819
-0.900312
-0.892624
-0.879062
-0.853314
-0.798557
-0.649722
-0.651118
-0.808004
-0.863847
-0.890074
-0.904089
-0.912208
-0.917035
-0.91987
-0.921366
-0.921824
-0.921333
-0.919799
-0.916913
-0.912002
-0.903739
-0.889378
-0.86252
-0.80619
-0.654877
-0.655184
-0.813999
-0.871014
-0.898055
-0.91267
-0.921219
-0.926358
-0.929393
-0.931
-0.93149
-0.930954
-0.929291
-0.926181
-0.920941
-0.912171
-0.897221
-0.869514
-0.811993
-0.658841
-0.658388
-0.818659
-0.87657
-0.904239
-0.919324
-0.928202
-0.933353
-0.936781
-0.938511
-0.939032
-0.938454
-0.936687
-0.933422
-0.927882
-0.918774
-0.903285
-0.874921
-0.816489
-0.661948
-0.660949
-0.822338
-0.88094
-0.909098
-0.924554
-0.933726
-0.939242
-0.942613
-0.944431
-0.944972
-0.944365
-0.94251
-0.939127
-0.933362
-0.923934
-0.908042
-0.879166
-0.820031
-0.664423
-0.663021
-0.825283
-0.884419
-0.91296
-0.928706
-0.938104
-0.943837
-0.947298
-0.94915
-0.949712
-0.94908
-0.947156
-0.943615
-0.937678
-0.92802
-0.911817
-0.882541
-0.82286
-0.666419
-0.664715
-0.827667
-0.887216
-0.916056
-0.932031
-0.941591
-0.947475
-0.951026
-0.95292
-0.953498
-0.952849
-0.950851
-0.947181
-0.941111
-0.931284
-0.91484
-0.885252
-0.825147
-0.668047
-0.666097
-0.829594
-0.889464
-0.918544
-0.934709
-0.944423
-0.950403
-0.954048
-0.955985
-0.956559
-0.955888
-0.953846
-0.950085
-0.943903
-0.933924
-0.917287
-0.887452
-0.827017
-0.669388
-0.667253
-0.831199
-0.891318
-0.920587
-0.936901
-0.946741
-0.952803
-0.956494
-0.958367
-0.959029
-0.958341
-0.955882
-0.952377
-0.946158
-0.93607
-0.919281
-0.889251
-0.828559
-0.670503
-0.668225
-0.832528
-0.892849
-0.922268
-0.938724
-0.948632
-0.95476
-0.958469
-0.960483
-0.961076
-0.960326
-0.958144
-0.954299
-0.947591
-0.937793
-0.920911
-0.890737
-0.829835
-0.671435
-0.669047
-0.833641
-0.894119
-0.923653
-0.940183
-0.950182
-0.956367
-0.960143
-0.962458
-0.963208
-0.962042
-0.959854
-0.955938
-0.949468
-0.93926
-0.922276
-0.89198
-0.830914
-0.672233
-0.669767
-0.834672
-0.895229
-0.924909
-0.941505
-0.951463
-0.957689
-0.96148
-0.963593
-0.96431
-0.963546
-0.961351
-0.957315
-0.950829
-0.940496
-0.923416
-0.893019
-0.831825
-0.672916
-0.670312
-0.835344
-0.896019
-0.925722
-0.942395
-0.952498
-0.958791
-0.962623
-0.964705
-0.965348
-0.964681
-0.962445
-0.958452
-0.951955
-0.941544
-0.924384
-0.893894
-0.832588
-0.673485
-0.670778
-0.835965
-0.896752
-0.926487
-0.943239
-0.953408
-0.959746
-0.963602
-0.965689
-0.966309
-0.965575
-0.963436
-0.959372
-0.952866
-0.942406
-0.9252
-0.894666
-0.833238
-0.673966
-0.671201
-0.836527
-0.897403
-0.927221
-0.943991
-0.954198
-0.960565
-0.964442
-0.966536
-0.96716
-0.966427
-0.964225
-0.960186
-0.953631
-0.94313
-0.925872
-0.895265
-0.833767
-0.674364
-0.671574
-0.837024
-0.897976
-0.927847
-0.944655
-0.954893
-0.961277
-0.965168
-0.967284
-0.96792
-0.96719
-0.964957
-0.96089
-0.954257
-0.943745
-0.926479
-0.895817
-0.834246
-0.674719
-0.671901
-0.837465
-0.898476
-0.928371
-0.945229
-0.955506
-0.961918
-0.965836
-0.967943
-0.9686
-0.967847
-0.965649
-0.961531
-0.954898
-0.944353
-0.927025
-0.896261
-0.834667
-0.67503
-0.672181
-0.837848
-0.89886
-0.928876
-0.945762
-0.956053
-0.96248
-0.966416
-0.968528
-0.96916
-0.968423
-0.96618
-0.96197
-0.955345
-0.944872
-0.92751
-0.896732
-0.835035
-0.675302
-0.672432
-0.838191
-0.899304
-0.929302
-0.946225
-0.956537
-0.962983
-0.966931
-0.969046
-0.969698
-0.968958
-0.966693
-0.962563
-0.955913
-0.945337
-0.927944
-0.897097
-0.835372
-0.675543
-0.67265
-0.838473
-0.899433
-0.929681
-0.946642
-0.956974
-0.963416
-0.967382
-0.969528
-0.970182
-0.969434
-0.967162
-0.963034
-0.95637
-0.945756
-0.928334
-0.897476
-0.835673
-0.675758
-0.672843
-0.838734
-0.899801
-0.930017
-0.94701
-0.957366
-0.963823
-0.96782
-0.969982
-0.970669
-0.969866
-0.967549
-0.963444
-0.956781
-0.946143
-0.928686
-0.89776
-0.835933
-0.675947
-0.673019
-0.838981
-0.900132
-0.930327
-0.947327
-0.957681
-0.964209
-0.968202
-0.970361
-0.971052
-0.970207
-0.967921
-0.963822
-0.957088
-0.946483
-0.928995
-0.898061
-0.836171
-0.676117
-0.673184
-0.839214
-0.900475
-0.930633
-0.947652
-0.958038
-0.964544
-0.968532
-0.9707
-0.971412
-0.970585
-0.968296
-0.964105
-0.957431
-0.946776
-0.929278
-0.898315
-0.836391
-0.676271
-0.673336
-0.839438
-0.900733
-0.930907
-0.947952
-0.958539
-0.96489
-0.96909
-0.971099
-0.971747
-0.971032
-0.968664
-0.964525
-0.957764
-0.947021
-0.929528
-0.898543
-0.836589
-0.676412

