# vtk DataFile Version 2.0
OUTPUT by 3D-VPM
ASCII
DATASET UNSTRUCTURED_GRID
POINTS 80 double
3.175686e+00	3.902938e-02	-3.388807e-01
3.146052e+00	1.060707e+00	-4.120448e-01
3.145168e+00	2.107930e+00	-3.981845e-01
3.146114e+00	3.158962e+00	-3.921231e-01
3.146615e+00	4.211024e+00	-3.893817e-01
3.146890e+00	5.263417e+00	-3.880319e-01
3.147047e+00	6.315933e+00	-3.873139e-01
3.147139e+00	7.368500e+00	-3.869152e-01
3.147189e+00	8.421088e+00	-3.867002e-01
3.147263e+00	9.473631e+00	-3.866107e-01
3.147263e+00	1.052637e+01	-3.866106e-01
3.147189e+00	1.157891e+01	-3.867000e-01
3.147139e+00	1.263150e+01	-3.869150e-01
3.147047e+00	1.368407e+01	-3.873138e-01
3.146890e+00	1.473658e+01	-3.880320e-01
3.146615e+00	1.578898e+01	-3.893826e-01
3.146113e+00	1.684104e+01	-3.921266e-01
3.145169e+00	1.789207e+01	-3.981941e-01
3.146054e+00	1.893929e+01	-4.120625e-01
3.175688e+00	1.996097e+01	-3.388953e-01
2.177898e+00	3.799860e-02	-3.734843e-01
2.145743e+00	1.059504e+00	-4.851478e-01
2.145009e+00	2.107191e+00	-4.837746e-01
2.145602e+00	3.158629e+00	-4.815701e-01
2.145940e+00	4.210851e+00	-4.804107e-01
2.146116e+00	5.263319e+00	-4.798085e-01
2.146213e+00	6.315875e+00	-4.794816e-01
2.146267e+00	7.368468e+00	-4.792992e-01
2.146295e+00	8.421073e+00	-4.792001e-01
2.146351e+00	9.473630e+00	-4.791624e-01
2.146351e+00	1.052637e+01	-4.791628e-01
2.146294e+00	1.157893e+01	-4.792012e-01
2.146267e+00	1.263153e+01	-4.793009e-01
2.146213e+00	1.368412e+01	-4.794835e-01
2.146116e+00	1.473668e+01	-4.798104e-01
2.145939e+00	1.578915e+01	-4.804123e-01
2.145601e+00	1.684137e+01	-4.815709e-01
2.145011e+00	1.789280e+01	-4.837674e-01
2.145756e+00	1.894048e+01	-4.851361e-01
2.177908e+00	1.996203e+01	-3.734903e-01
1.201057e+00	0.000000e+00	-3.090170e-01
1.201057e+00	1.052632e+00	-3.090170e-01
1.201057e+00	2.105263e+00	-3.090170e-01
1.201057e+00	3.157895e+00	-3.090170e-01
1.201057e+00	4.210526e+00	-3.090170e-01
1.201057e+00	5.263158e+00	-3.090170e-01
1.201057e+00	6.315789e+00	-3.090170e-01
1.201057e+00	7.368421e+00	-3.090170e-01
1.201057e+00	8.421053e+00	-3.090170e-01
1.201057e+00	9.473684e+00	-3.090170e-01
1.201057e+00	1.052632e+01	-3.090170e-01
1.201057e+00	1.157895e+01	-3.090170e-01
1.201057e+00	1.263158e+01	-3.090170e-01
1.201057e+00	1.368421e+01	-3.090170e-01
1.201057e+00	1.473684e+01	-3.090170e-01
1.201057e+00	1.578947e+01	-3.090170e-01
1.201057e+00	1.684211e+01	-3.090170e-01
1.201057e+00	1.789474e+01	-3.090170e-01
1.201057e+00	1.894737e+01	-3.090170e-01
1.201057e+00	2.000000e+01	-3.090170e-01
9.510565e-01	0.000000e+00	-3.090170e-01
9.510565e-01	1.052632e+00	-3.090170e-01
9.510565e-01	2.105263e+00	-3.090170e-01
9.510565e-01	3.157895e+00	-3.090170e-01
9.510565e-01	4.210526e+00	-3.090170e-01
9.510565e-01	5.263158e+00	-3.090170e-01
9.510565e-01	6.315789e+00	-3.090170e-01
9.510565e-01	7.368421e+00	-3.090170e-01
9.510565e-01	8.421053e+00	-3.090170e-01
9.510565e-01	9.473684e+00	-3.090170e-01
9.510565e-01	1.052632e+01	-3.090170e-01
9.510565e-01	1.157895e+01	-3.090170e-01
9.510565e-01	1.263158e+01	-3.090170e-01
9.510565e-01	1.368421e+01	-3.090170e-01
9.510565e-01	1.473684e+01	-3.090170e-01
9.510565e-01	1.578947e+01	-3.090170e-01
9.510565e-01	1.684211e+01	-3.090170e-01
9.510565e-01	1.789474e+01	-3.090170e-01
9.510565e-01	1.894737e+01	-3.090170e-01
9.510565e-01	2.000000e+01	-3.090170e-01

CELLS 57 285
4 20 0 1 21 
4 21 1 2 22 
4 22 2 3 23 
4 23 3 4 24 
4 24 4 5 25 
4 25 5 6 26 
4 26 6 7 27 
4 27 7 8 28 
4 28 8 9 29 
4 29 9 10 30 
4 30 10 11 31 
4 31 11 12 32 
4 32 12 13 33 
4 33 13 14 34 
4 34 14 15 35 
4 35 15 16 36 
4 36 16 17 37 
4 37 17 18 38 
4 38 18 19 39 
4 40 20 21 41 
4 41 21 22 42 
4 42 22 23 43 
4 43 23 24 44 
4 44 24 25 45 
4 45 25 26 46 
4 46 26 27 47 
4 47 27 28 48 
4 48 28 29 49 
4 49 29 30 50 
4 50 30 31 51 
4 51 31 32 52 
4 52 32 33 53 
4 53 33 34 54 
4 54 34 35 55 
4 55 35 36 56 
4 56 36 37 57 
4 57 37 38 58 
4 58 38 39 59 
4 60 40 41 61 
4 61 41 42 62 
4 62 42 43 63 
4 63 43 44 64 
4 64 44 45 65 
4 65 45 46 66 
4 66 46 47 67 
4 67 47 48 68 
4 68 48 49 69 
4 69 49 50 70 
4 70 50 51 71 
4 71 51 52 72 
4 72 52 53 73 
4 73 53 54 74 
4 74 54 55 75 
4 75 55 56 76 
4 76 56 57 77 
4 77 57 58 78 
4 78 58 59 79 

CELL_TYPES 57
9
9
9
9
9
9
9
9
9
9
9
9
9
9
9
9
9
9
9
9
9
9
9
9
9
9
9
9
9
9
9
9
9
9
9
9
9
9
9
9
9
9
9
9
9
9
9
9
9
9
9
9
9
9
9
9
9

CELL_DATA 57
SCALARS Mu double 1
LOOKUP_TABLE default
-0.388429
-0.434839
-0.445113
-0.448285
-0.449531
-0.450112
-0.450415
-0.45058
-0.450664
-0.450691
-0.450664
-0.45058
-0.450415
-0.450112
-0.449531
-0.448285
-0.445113
-0.434839
-0.388429
-0.510131
-0.594683
-0.616974
-0.624665
-0.627855
-0.629376
-0.630171
-0.630603
-0.630824
-0.630893
-0.630827
-0.630608
-0.630178
-0.629383
-0.627864
-0.624669
-0.616953
-0.594531
-0.509768

