# vtk DataFile Version 2.0
OUTPUT by 3D-VPM
ASCII
DATASET UNSTRUCTURED_GRID
POINTS 1220 double
5.907446e+01	1.065615e+00	-2.565725e+00
5.988358e+01	1.392391e+00	-1.689740e+00
5.945610e+01	2.523477e+00	-2.319161e+00
5.919468e+01	3.526902e+00	-1.860073e+00
5.943830e+01	4.456172e+00	-1.457219e+00
5.947257e+01	5.459571e+00	-1.439738e+00
5.940413e+01	6.451142e+00	-1.363106e+00
5.939721e+01	7.453210e+00	-1.284795e+00
5.939262e+01	8.467948e+00	-1.253392e+00
5.938649e+01	9.488614e+00	-1.238070e+00
5.938649e+01	1.051138e+01	-1.238075e+00
5.939264e+01	1.153204e+01	-1.253406e+00
5.939724e+01	1.254676e+01	-1.284800e+00
5.940419e+01	1.354878e+01	-1.363063e+00
5.947264e+01	1.454031e+01	-1.439611e+00
5.943853e+01	1.554368e+01	-1.456955e+00
5.919501e+01	1.647328e+01	-1.859692e+00
5.945919e+01	1.747615e+01	-2.319403e+00
5.989471e+01	1.861344e+01	-1.670083e+00
5.903128e+01	1.890577e+01	-2.605124e+00
5.843487e+01	1.201532e+00	-2.279383e+00
5.969488e+01	5.109339e-01	-9.574232e-01
5.898633e+01	2.158558e+00	-1.284702e+00
5.926203e+01	3.065247e+00	-5.379395e-01
5.947931e+01	4.189438e+00	-2.172200e-01
5.936759e+01	5.263061e+00	-1.402445e-01
5.932890e+01	6.302205e+00	-3.238291e-02
5.930759e+01	7.359886e+00	3.485204e-02
5.928989e+01	8.416462e+00	6.991931e-02
5.928174e+01	9.471982e+00	8.698246e-02
5.928172e+01	1.052799e+01	8.697878e-02
5.928986e+01	1.158350e+01	6.991132e-02
5.930754e+01	1.264007e+01	3.485520e-02
5.932884e+01	1.369773e+01	-3.235526e-02
5.936754e+01	1.473686e+01	-1.401688e-01
5.947935e+01	1.581049e+01	-2.171337e-01
5.926222e+01	1.693503e+01	-5.378514e-01
5.898537e+01	1.784231e+01	-1.290183e+00
5.969695e+01	1.948948e+01	-9.535696e-01
5.845012e+01	1.877232e+01	-2.262261e+00
5.767217e+01	4.087131e-01	-1.967833e+00
5.780882e+01	8.377720e-01	-9.057204e-01
5.933146e+01	9.463830e-01	-3.390508e+00
5.999379e+01	2.982624e+00	-2.957633e+00
6.017397e+01	4.059707e+00	-2.582652e+00
6.027104e+01	5.196333e+00	-2.419077e+00
6.031294e+01	6.292504e+00	-2.235542e+00
6.033201e+01	7.354456e+00	-2.117781e+00
6.034121e+01	8.414092e+00	-2.050564e+00
6.034448e+01	9.471589e+00	-2.018160e+00
6.034448e+01	1.052831e+01	-2.018183e+00
6.034121e+01	1.158579e+01	-2.050644e+00
6.033200e+01	1.264538e+01	-2.117943e+00
6.031288e+01	1.370723e+01	-2.235846e+00
6.027091e+01	1.480317e+01	-2.419610e+00
6.017394e+01	1.593926e+01	-2.583474e+00
5.999424e+01	1.701584e+01	-2.958078e+00
5.933308e+01	1.905192e+01	-3.386348e+00
5.780702e+01	1.915064e+01	-9.149571e-01
5.767944e+01	1.959674e+01	-1.966264e+00
5.649759e+01	4.198293e-01	-2.007750e+00
5.706507e+01	7.117100e-01	-7.347158e-01
5.748749e+01	3.484051e-01	-3.582748e+00
5.769178e+01	2.656583e+00	-3.937771e+00
5.791288e+01	4.064601e+00	-3.746913e+00
5.803506e+01	5.217920e+00	-3.576989e+00
5.810181e+01	6.305484e+00	-3.454884e+00
5.814116e+01	7.369359e+00	-3.371496e+00
5.816290e+01	8.423644e+00	-3.320548e+00
5.817263e+01	9.474685e+00	-3.296579e+00
5.817265e+01	1.052516e+01	-3.296630e+00
5.816297e+01	1.157618e+01	-3.320715e+00
5.814128e+01	1.263042e+01	-3.371809e+00
5.810199e+01	1.369421e+01	-3.455398e+00
5.803546e+01	1.478161e+01	-3.577861e+00
5.791379e+01	1.593458e+01	-3.747879e+00
5.769371e+01	1.734129e+01	-3.937837e+00
5.749024e+01	1.964414e+01	-3.586863e+00
5.707054e+01	1.929295e+01	-7.270463e-01
5.650446e+01	1.958216e+01	-2.002666e+00
5.562032e+01	3.634827e-01	-1.659466e+00
5.612201e+01	3.349760e-01	-3.485994e-01
5.621326e+01	3.549086e-02	-3.427190e+00
5.625607e+01	2.457540e+00	-3.977568e+00
5.637957e+01	3.961642e+00	-3.824576e+00
5.646777e+01	5.170833e+00	-3.659112e+00
5.652191e+01	6.281700e+00	-3.534662e+00
5.655401e+01	7.356770e+00	-3.449683e+00
5.657199e+01	8.417641e+00	-3.397471e+00
5.658014e+01	9.472901e+00	-3.372789e+00
5.658015e+01	1.052689e+01	-3.372865e+00
5.657205e+01	1.158212e+01	-3.397720e+00
5.655412e+01	1.264291e+01	-3.450156e+00
5.652208e+01	1.371784e+01	-3.535437e+00
5.646819e+01	1.482847e+01	-3.660430e+00
5.638051e+01	1.603708e+01	-3.825949e+00
5.625765e+01	1.753874e+01	-3.977372e+00
5.621470e+01	1.995350e+01	-3.435486e+00
5.612479e+01	1.967271e+01	-3.407540e-01
5.562659e+01	1.964120e+01	-1.649938e+00
5.473758e+01	1.653042e-01	-1.495679e+00
5.507927e+01	4.281949e-01	-2.670309e-01
5.510733e+01	-9.359678e-02	-3.305642e+00
5.508319e+01	2.343318e+00	-3.900247e+00
5.515498e+01	3.891899e+00	-3.752061e+00
5.521624e+01	5.130719e+00	-3.581170e+00
5.525825e+01	6.259033e+00	-3.450938e+00
5.528476e+01	7.344144e+00	-3.361577e+00
5.530014e+01	8.411264e+00	-3.306554e+00
5.530725e+01	9.470947e+00	-3.280500e+00
5.530725e+01	1.052880e+01	-3.280584e+00
5.530017e+01	1.158844e+01	-3.306829e+00
5.528482e+01	1.265547e+01	-3.362088e+00
5.525832e+01	1.374040e+01	-3.451734e+00
5.521649e+01	1.486841e+01	-3.582460e+00
5.515559e+01	1.610648e+01	-3.753054e+00
5.508413e+01	1.765177e+01	-3.898844e+00
5.510741e+01	2.008086e+01	-3.314242e+00
5.508158e+01	1.957404e+01	-2.601770e-01
5.474445e+01	1.984139e+01	-1.486255e+00
5.381284e+01	2.246081e-01	-1.493849e+00
5.412919e+01	4.978274e-01	-1.812523e-01
5.404030e+01	-1.690115e-01	-3.164021e+00
5.401233e+01	2.278869e+00	-3.793982e+00
5.405607e+01	3.847414e+00	-3.643282e+00
5.409880e+01	5.101530e+00	-3.465946e+00
5.413071e+01	6.240623e+00	-3.330300e+00
5.415211e+01	7.333104e+00	-3.237025e+00
5.416503e+01	8.405413e+00	-3.179540e+00
5.417114e+01	9.469111e+00	-3.152295e+00
5.417114e+01	1.053061e+01	-3.152377e+00
5.416503e+01	1.159426e+01	-3.179801e+00
5.415212e+01	1.266647e+01	-3.237490e+00
5.413072e+01	1.375876e+01	-3.331002e+00
5.409891e+01	1.489752e+01	-3.466982e+00
5.405645e+01	1.615078e+01	-3.643536e+00
5.401292e+01	1.771550e+01	-3.791085e+00
5.404014e+01	2.015531e+01	-3.172001e+00
5.413257e+01	1.950622e+01	-1.723792e-01
5.381820e+01	1.977961e+01	-1.484693e+00
5.290036e+01	3.041835e-01	-1.377456e+00
5.315584e+01	5.077683e-01	-6.818232e-02
5.301863e+01	-2.055008e-01	-3.020501e+00
5.298603e+01	2.242854e+00	-3.684944e+00
5.301371e+01	3.820355e+00	-3.530305e+00
5.304383e+01	5.081683e+00	-3.347460e+00
5.306782e+01	6.226829e+00	-3.207505e+00
5.308472e+01	7.324210e+00	-3.111175e+00
5.309529e+01	8.400471e+00	-3.051742e+00
5.310040e+01	9.467527e+00	-3.023549e+00
5.310040e+01	1.053218e+01	-3.023620e+00
5.309529e+01	1.159919e+01	-3.051962e+00
5.308471e+01	1.267535e+01	-3.111547e+00
5.306780e+01	1.377255e+01	-3.208104e+00
5.304388e+01	1.491736e+01	-3.348208e+00
5.301398e+01	1.617775e+01	-3.529767e+00
5.298655e+01	1.775102e+01	-3.680674e+00
5.301866e+01	2.019115e+01	-3.028141e+00
5.315811e+01	1.949795e+01	-5.752733e-02
5.290455e+01	1.969913e+01	-1.365153e+00
5.197554e+01	3.174932e-01	-1.293485e+00
5.216470e+01	5.139702e-01	7.118498e-03
5.201990e+01	-2.094994e-01	-2.909568e+00
5.198075e+01	2.226500e+00	-3.582484e+00
5.199776e+01	3.805619e+00	-3.423445e+00
5.201909e+01	5.069267e+00	-3.236433e+00
5.203705e+01	6.217267e+00	-3.093438e+00
5.205019e+01	7.317592e+00	-2.994900e+00
5.205865e+01	8.396624e+00	-2.934019e+00
5.206281e+01	9.466268e+00	-2.905110e+00
5.206281e+01	1.053344e+01	-2.905161e+00
5.205864e+01	1.160304e+01	-2.934165e+00
5.205017e+01	1.268198e+01	-2.995141e+00
5.203701e+01	1.378212e+01	-3.093811e+00
5.201913e+01	1.492979e+01	-3.236806e+00
5.199802e+01	1.619245e+01	-3.422204e+00
5.198133e+01	1.776701e+01	-3.577089e+00
5.202009e+01	2.019458e+01	-2.916782e+00
5.216599e+01	1.949244e+01	1.847589e-02
5.197859e+01	1.968647e+01	-1.280386e+00
5.103893e+01	3.492683e-01	-1.248496e+00
5.117554e+01	5.038872e-01	6.647320e-02
5.102562e+01	-1.927620e-01	-2.825404e+00
5.098450e+01	2.224769e+00	-3.489318e+00
5.099418e+01	3.799837e+00	-3.325497e+00
5.100929e+01	5.062545e+00	-3.135563e+00
5.102275e+01	6.211228e+00	-2.990771e+00
5.103288e+01	7.313066e+00	-2.890832e+00
5.103949e+01	8.393875e+00	-2.828824e+00
5.104282e+01	9.465348e+00	-2.799360e+00
5.104282e+01	1.053437e+01	-2.799364e+00
5.103948e+01	1.160582e+01	-2.828770e+00
5.103280e+01	1.268651e+01	-2.890564e+00
5.102265e+01	1.378813e+01	-2.990513e+00
5.100930e+01	1.493647e+01	-3.135040e+00
5.099445e+01	1.619813e+01	-3.323246e+00
5.098515e+01	1.776847e+01	-3.482996e+00
5.102596e+01	2.017739e+01	-2.832007e+00
5.117620e+01	1.950359e+01	7.851965e-02
5.104115e+01	1.965398e+01	-1.235243e+00
5.009063e+01	3.804197e-01	-1.201446e+00
5.018372e+01	4.756449e-01	1.178286e-01
5.003318e+01	-1.616904e-01	-2.761255e+00
4.999144e+01	2.233446e+00	-3.404970e+00
4.999620e+01	3.800526e+00	-3.236316e+00
5.000690e+01	5.060132e+00	-3.044351e+00
5.001690e+01	6.208178e+00	-2.896713e+00
5.002468e+01	7.310376e+00	-2.796000e+00
5.002991e+01	8.392067e+00	-2.735233e+00
5.003254e+01	9.464730e+00	-2.705567e+00
5.003255e+01	1.053500e+01	-2.705506e+00
5.002990e+01	1.160762e+01	-2.735066e+00
5.002468e+01	1.268927e+01	-2.797416e+00
5.001690e+01	1.379129e+01	-2.897966e+00
5.000694e+01	1.493885e+01	-3.043296e+00
4.999650e+01	1.619737e+01	-3.233368e+00
4.999215e+01	1.775959e+01	-3.397875e+00
5.003367e+01	2.014597e+01	-2.767154e+00
5.018372e+01	1.953298e+01	1.303274e-01
5.009220e+01	1.962270e+01	-1.187547e+00
4.912994e+01	4.034360e-01	-1.159670e+00
4.918913e+01	4.346858e-01	1.595513e-01
4.904087e+01	-1.201965e-01	-2.713573e+00
4.899909e+01	2.249466e+00	-3.328055e+00
4.900054e+01	3.805821e+00	-3.154731e+00
4.900811e+01	5.060923e+00	-2.961584e+00
4.901566e+01	6.207309e+00	-2.813049e+00
4.902166e+01	7.309054e+00	-2.711870e+00
4.902573e+01	8.391050e+00	-2.651440e+00
4.902780e+01	9.464373e+00	-2.621932e+00
4.902779e+01	1.053535e+01	-2.621845e+00
4.902571e+01	1.160860e+01	-2.651428e+00
4.902165e+01	1.269059e+01	-2.714270e+00
4.901566e+01	1.379227e+01	-2.815113e+00
4.900820e+01	1.493811e+01	-2.960640e+00
4.900087e+01	1.619208e+01	-3.151592e+00
4.899985e+01	1.774344e+01	-3.320372e+00
4.904147e+01	2.010421e+01	-2.718719e+00
4.918858e+01	1.957498e+01	1.721820e-01
4.913084e+01	1.959998e+01	-1.145403e+00
4.815953e+01	4.242205e-01	-1.123475e+00
4.819304e+01	3.840076e-01	1.923933e-01
4.804764e+01	-7.105260e-02	-2.678153e+00
4.800641e+01	2.270663e+00	-3.257173e+00
4.800564e+01	3.814328e+00	-3.079499e+00
4.801101e+01	5.063973e+00	-2.885870e+00
4.801679e+01	6.207877e+00	-2.739150e+00
[...]
CELL_DATA 1140
SCALARS Mu double 1
LOOKUP_TABLE default
-0.388429
-0.434839
-0.445113
-0.448285
-0.449531
-0.450112
-0.450415
-0.45058
-0.450664
-0.450691
-0.450664
-0.45058
-0.450415
-0.450112
-0.449531
-0.448285
-0.445113
-0.434839
-0.388429
-0.510131
-0.594683
-0.616974
-0.624665
-0.627855
-0.629376
-0.630171
-0.630603
-0.630824
-0.630893
-0.630827
-0.630608
-0.630178
-0.629383
-0.627864
-0.624669
-0.616953
-0.594531
-0.509768
-0.565402
-0.676259
-0.708906
-0.721304
-0.726769
-0.729481
-0.73093
-0.731726
-0.732133
-0.732261
-0.732142
-0.731746
-0.730963
-0.729527
-0.726831
-0.721339
-0.708845
-0.676044
-0.567553
-0.5965
-0.724128
-0.764294
-0.780705
-0.788374
-0.792329
-0.794491
-0.79569
-0.796305
-0.796497
-0.796315
-0.795713
-0.794527
-0.792381
-0.788441
-0.780711
-0.764093
-0.72369
-0.599882
-0.616157
-0.754595
-0.800147
-0.819703
-0.829262
-0.834366
-0.837218
-0.838823
-0.839649
-0.839907
-0.839656
-0.838838
-0.837242
-0.834395
-0.829287
-0.81961
-0.799729
-0.753863
-0.620006
-0.629462
-0.77515
-0.824573
-0.846525
-0.857613
-0.863703
-0.867176
-0.869157
-0.870184
-0.870502
-0.870184
-0.869157
-0.867173
-0.863686
-0.85756
-0.846289
-0.823906
-0.774108
-0.633433
-0.63891
-0.789621
-0.841854
-0.865629
-0.87793
-0.884838
-0.888843
-0.891155
-0.892362
-0.892735
-0.892353
-0.891135
-0.888804
-0.884767
-0.877784
-0.865235
-0.840944
-0.78829
-0.642855
-0.645861
-0.800146
-0.854446
-0.879611
-0.892871
-0.900442
-0.904899
-0.907495
-0.908859
-0.909278
-0.908838
-0.907451
-0.904819
-0.900312
-0.892624
-0.879062
-0.853314
-0.798557
-0.649722
-0.651118
-0.808004
-0.863847
-0.890074
-0.904089
-0.912208
-0.917035
-0.91987
-0.921366
-0.921824
-0.921333
-0.919799
-0.916913
-0.912002
-0.903739
-0.889378
-0.86252
-0.80619
-0.654877
-0.655184
-0.813999
-0.871014
-0.898055
-0.91267
-0.921219
-0.926358
-0.929393
-0.931
-0.93149
-0.930954
-0.929291
-0.926181
-0.920941
-0.912171
-0.897221
-0.869514
-0.811993
-0.658841
-0.658388
-0.818659
-0.87657
-0.904239
-0.919324
-0.928202
-0.933353
-0.936781
-0.938511
-0.939032
-0.938454
-0.936687
-0.933422
-0.927882
-0.918774
-0.903285
-0.874921
-0.816489
-0.661948
-0.660949
-0.822338
-0.88094
-0.909098
-0.924554
-0.933726
-0.939242
-0.942613
-0.944431
-0.944972
-0.944365
-0.94251
-0.939127
-0.933362
-0.923934
-0.908042
-0.879166
-0.820031
-0.664423
-0.663021
-0.825283
-0.884419
-0.91296
-0.928706
-0.938104
-0.943837
-0.947298
-0.94915
-0.949712
-0.94908
-0.947156
-0.943615
-0.937678
-0.92802
-0.911817
-0.882541
-0.82286
-0.666419
-0.664715
-0.827667
-0.887216
-0.916056
-0.932031
-0.941591
-0.947475
-0.951026
-0.95292
-0.953498
-0.952849
-0.950851
-0.947181
-0.941111
-0.931284
-0.91484
-0.885252
-0.825147
-0.668047
-0.666097
-0.829594
-0.889464
-0.918544
-0.934709
-0.944423
-0.950403
-0.954048
-0.955985
-0.956559
-0.955888
-0.953846
-0.950085
-0.943903
-0.933924
-0.917287
-0.887452
-0.827017
-0.669388
-0.667253
-0.831199
-0.891318
-0.920587
-0.936901
-0.946741
-0.952803
-0.956494
-0.958367
-0.959029
-0.958341
-0.955882
-0.952377
-0.946158
-0.93607
-0.919281
-0.889251
-0.828559
-0.670503
-0.668225
-0.832528
-0.892849
-0.922268
-0.938724
-0.948632
-0.95476
-0.958469
-0.960483
-0.961076
-0.960326
-0.958144
-0.954299
-0.947591
-0.937793
-0.920911
-0.890737
-0.829835
-0.671435
-0.669047
-0.833641
-0.894119
-0.923653
-0.940183
-0.950182
-0.956367
-0.960143
-0.962458
-0.963208
-0.962042
-0.959854
-0.955938
-0.949468
-0.93926
-0.922276
-0.89198
-0.830914
-0.672233
-0.669767
-0.834672
-0.895229
-0.924909
-0.941505
-0.951463
-0.957689
-0.96148
-0.963593
-0.96431
-0.963546
-0.961351
-0.957315
-0.950829
-0.940496
-0.923416
-0.893019
-0.831825
-0.672916
-0.670312
-0.835344
-0.896019
-0.925722
-0.942395
-0.952498
-0.958791
-0.962623
-0.964705
-0.965348
-0.964681
-0.962445
-0.958452
-0.951955
-0.941544
-0.924384
-0.893894
-0.832588
-0.673485
-0.670778
-0.835965
-0.896752
-0.926487
-0.943239
-0.953408
-0.959746
-0.963602
-0.965689
-0.966309
-0.965575
-0.963436
-0.959372
-0.952866
-0.942406
-0.9252
-0.894666
-0.833238
-0.673966
-0.671201
-0.836527
-0.897403
-0.927221
-0.943991
-0.954198
-0.960565
-0.964442
-0.966536
-0.96716
-0.966427
-0.964225
-0.960186
-0.953631
-0.94313
-0.925872
-0.895265
-0.833767
-0.674364
-0.671574
-0.837024
-0.897976
-0.927847
-0.944655
-0.954893
-0.961277
-0.965168
-0.967284
-0.96792
-0.96719
-0.964957
-0.96089
-0.954257
-0.943745
-0.926479
-0.895817
-0.834246
-0.674719
-0.671901
-0.837465
-0.898476
-0.928371
-0.945229
-0.955506
-0.961918
-0.965836
-0.967943
-0.9686
-0.967847
-0.965649
-0.961531
-0.954898
-0.944353
-0.927025
-0.896261
-0.834667
-0.67503
-0.672181
-0.837848
-0.89886
-0.928876
-0.945762
-0.956053
-0.96248
-0.966416
-0.968528
-0.96916
-0.968423
-0.96618
-0.96197
-0.955345
-0.944872
-0.92751
-0.896732
-0.835035
-0.675302
-0.672432
-0.838191
-0.899304
-0.929302
-0.946225
-0.956537
-0.962983
-0.966931
-0.969046
-0.969698
-0.968958
-0.966693
-0.962563
-0.955913
-0.945337
-0.927944
-0.897097
-0.835372
-0.675543
-0.67265
-0.838473
-0.899433
-0.929681
-0.946642
-0.956974
-0.963416
-0.967382
-0.969528
-0.970182
-0.969434
-0.967162
-0.963034
-0.95637
-0.945756
-0.928334
-0.897476
-0.835673
-0.675758
-0.672843
-0.838734
-0.899801
-0.930017
-0.94701
-0.957366
-0.963823
-0.96782
-0.969982
-0.970669
-0.969866
-0.967549
-0.963444
-0.956781
-0.946143
-0.928686
-0.89776
-0.835933
-0.675947
-0.673019
-0.838981
-0.900132
-0.930327
-0.947327
-0.957681
-0.964209
-0.968202
-0.970361
-0.971052
-0.970207
-0.967921
-0.963822
-0.957088
-0.946483
-0.928995
-0.898061
-0.836171
-0.676117
-0.673184
-0.839214
-0.900475
-0.930633
-0.947652
-0.958038
-0.964544
-0.968532
-0.9707
-0.971412
-0.970585
-0.968296
-0.964105
-0.957431
-0.946776
-0.929278
-0.898315
-0.836391
-0.676271
-0.673336
-0.839438
-0.900733
-0.930907
-0.947952
-0.958539
-0.96489
-0.96909
-0.971099
-0.971747
-0.971032
-0.968664
-0.964525
-0.957764
-0.947021
-0.929528
-0.898543
-0.836589
-0.676412
-0.673093
-0.832934
-0.900547
-0.931022
-0.948003
-0.95862
-0.965148
-0.969415
-0.971412
-0.972045
-0.971313
-0.969027
-0.965407
-0.958068
-0.947317
-0.929762
-0.898751
-0.83677
-0.676538
-0.673109
-0.838233
-0.900522
-0.931105
-0.948293
-0.958806
-0.965382
-0.969683
-0.971677
-0.972301
-0.971567
-0.969306
-0.965783
-0.95836
-0.947568
-0.929975
-0.898935
-0.83693
-0.676652
-0.673397
-0.839334
-0.900867
-0.931315
-0.948502
-0.959012
-0.965615
-0.970051
-0.972024
-0.97254
-0.971793
-0.969506
-0.96541
-0.958569
-0.947775
-0.930156
-0.899072
-0.83707
-0.676757
-0.673604
-0.839754
-0.901216
-0.931532
-0.948696
-0.959212
-0.965862
-0.970156
-0.972154
-0.972747
-0.971998
-0.969691
-0.965496
-0.958798
-0.947957
-0.930312
-0.899211
-0.837196
-0.676852
-0.673756
-0.839992
-0.901407
-0.931681
-0.948861
-0.959426
-0.966021
-0.970411
-0.972329
-0.972929
-0.972154
-0.969843
-0.965629
-0.958887
-0.948089
-0.930449
-0.899337
-0.83731
-0.676936
-0.673875
-0.840163
-0.901591
-0.931873
-0.949026
-0.959545
-0.966179
-0.970492
-0.972491
-0.973094
-0.972311
-0.970005
-0.965796
-0.959061
-0.948218
-0.930574
-0.899452
-0.83741
-0.677013
-0.673972
-0.840299
-0.90173
-0.932019
-0.949157
-0.959648
-0.966291
-0.970629
-0.972706
-0.973241
-0.972472
-0.970159
-0.965913
-0.959131
-0.948335
-0.93073
-0.899558
-0.837505
-0.677083
-0.674055
-0.840414
-0.901851
-0.932148
-0.949367
-0.959803
-0.966422
-0.970753
-0.972774
-0.973387
-0.972691
-0.970305
-0.966032
-0.95925
-0.948466
-0.930802
-0.899682
-0.837596
-0.677151
-0.67413
-0.840515
-0.901958
-0.932259
-0.94945
-0.959925
-0.966547
-0.97095
-0.972724
-0.973462
-0.972732
-0.970365
-0.96615
-0.959404
-0.948576
-0.930894
-0.899772
-0.837678
-0.677212
-0.674198
-0.840603
-0.90205
-0.932345
-0.94942
-0.960026
-0.966664
-0.970992
-0.972961
-0.973695
-0.972848
-0.970146
-0.966318
-0.959473
-0.948614
-0.930956
-0.899821
-0.837742
-0.677265
-0.674258
-0.84068
-0.902131
-0.932425
-0.949485
-0.960115
-0.966749
-0.971085
-0.973081
-0.973718
-0.972906
-0.970484
-0.966326
-0.959536
-0.948734
-0.93109
-0.899936
-0.83783
-0.677332
-0.67431
-0.84075
-0.902206
-0.932504
-0.949582
-0.96021
-0.967018
-0.971233
-0.973196
-0.973804
-0.973005
-0.970645
-0.966413
-0.959631
-0.948933
-0.93116
-0.900019
-0.837902
-0.677385
-0.674361
-0.840818
-0.902278
-0.932589
-0.949749
-0.960329
-0.966975
-0.971287
-0.973286
-0.973891
-0.973088
-0.970748
-0.966503
-0.959712
-0.948919
-0.931231
-0.90009
-0.837968
-0.677434
-0.674408
-0.84088
-0.902346
-0.932665
-0.949841
-0.960414
-0.967024
-0.97135
-0.973367
-0.974031
-0.97314
-0.970837
-0.966663
-0.959791
-0.948975
-0.931295
-0.900155
-0.838031
-0.67748
-0.67445
-0.840931
-0.902395
-0.932701
-0.949911
-0.960555
-0.967096
-0.971419
-0.973434
-0.974045
-0.973248
-0.970958
-0.966758
-0.959867
-0.949038
-0.931354
-0.900214
-0.838086
-0.677522
-0.674494
-0.840983
-0.902448
-0.932754
-0.949967
-0.960535
-0.967169
-0.971481
-0.973485
-0.974101
-0.973326
-0.971033
-0.966759
-0.959927
-0.949097
-0.931411
-0.900268
-0.838137
-0.677563
-0.674532
-0.841035
-0.902512
-0.932835
-0.950032
-0.96057
-0.96722
-0.971574
-0.973597
-0.974172
-0.973392
-0.971098
-0.966815
-0.959977
-0.949151
-0.931465
-0.90032
-0.838186
-0.677601
-0.674563
-0.841077
-0.902561
-0.932881
-0.949981
-0.960609
-0.967262
-0.971636
-0.973667
-0.974236
-0.973453
-0.971158
-0.966875
-0.960066
-0.949221
-0.931526
-0.90037
-0.838231
-0.677636
-0.674597
-0.841121
-0.902607
-0.932929
-0.950109
-0.960653
-0.967309
-0.971687
-0.973721
-0.974284
-0.973456
-0.97113
-0.966912
-0.960116
-0.949275
-0.931577
-0.900417
-0.838273
-0.677668
-0.674628
-0.841162
-0.90265
-0.932977
-0.95017
-0.960703
-0.967357
-0.971735
-0.973766
-0.974328
-0.973492
-0.971168
-0.967092
-0.960134
-0.949308
-0.931614
-0.900459
-0.838313
-0.677699
-0.674656
-0.8412
-0.902692
-0.933023
-0.950252
-0.960752
-0.967403
-0.971781
-0.973811
-0.974371
-0.973531
-0.971212
-0.967153
-0.960184
-0.949349
-0.931655
-0.900498
-0.83835
-0.677728
-0.674684
-0.841236
-0.902732
-0.933066
-0.950302
-0.960796
-0.967442
-0.971794
-0.973849
-0.974408
-0.973574
-0.971267
-0.967281
-0.960261
-0.949395
-0.931694
-0.900536
-0.838385
-0.677755
-0.67471
-0.84127
-0.90277
-0.933108
-0.950345
-0.960838
-0.967482
-0.971834
-0.973904
-0.974506
-0.973629
-0.97135
-0.967322
-0.960292
-0.949434
-0.931732
-0.900572
-0.838419
-0.677781
-0.674735
-0.841302
-0.902806
-0.933151
-0.950391
-0.960933
-0.967553
-0.971876
-0.973897
-0.974498
-0.973663
-0.97135
-0.967205
-0.960267
-0.949464
-0.931766
-0.900606
-0.83845
-0.677805
-0.674759
-0.841335
-0.902839
-0.933187
-0.950428
-0.960939
-0.967594
-0.971912
-0.973932
-0.974602
-0.973733
-0.971418
-0.967176
-0.960304
-0.949493
-0.931798
-0.900637
-0.838479
-0.677828
-0.674781
-0.841364
-0.90287
-0.933216
-0.950411
-0.960962
-0.967628
-0.971945
-0.973957
-0.974573
-0.973748
-0.971466
-0.967192
-0.960335
-0.949592
-0.931833
-0.900668
-0.838507
-0.67785
-0.674804
-0.84139
-0.902899
-0.933245
-0.950432
-0.96099
-0.967662
-0.972023
-0.973995
-0.974628
-0.973778
-0.971495
-0.96722
-0.960368
-0.949636
-0.931868
-0.900698
-0.838534
-0.677869
-0.674824
-0.841417
-0.902924
-0.933269
-0.950456
-0.961015
-0.96769
-0.97206
-0.97402
-0.97463
-0.973798
-0.971486
-0.967243
-0.960397
-0.949669
-0.931899
-0.900726
-0.838559
-0.677889

