# vtk DataFile Version 2.0
OUTPUT by 3D-VPM
ASCII
DATASET UNSTRUCTURED_GRID
POINTS 880 double
4.197520e+01	1.098792e+00	-1.675986e+00
4.277700e+01	1.153199e+00	-1.617732e+00
4.232301e+01	2.420160e+00	-1.649950e+00
4.221998e+01	3.402192e+00	-1.187622e+00
4.235034e+01	4.375342e+00	-1.042268e+00
4.232997e+01	5.376870e+00	-9.884804e-01
4.230771e+01	6.389398e+00	-9.204196e-01
4.230108e+01	7.413848e+00	-8.784316e-01
4.229523e+01	8.445786e+00	-8.545863e-01
4.229216e+01	9.481476e+00	-8.430122e-01
4.229216e+01	1.051851e+01	-8.430178e-01
4.229524e+01	1.155419e+01	-8.546018e-01
4.230109e+01	1.258611e+01	-8.784490e-01
4.230774e+01	1.361054e+01	-9.204206e-01
4.233002e+01	1.462303e+01	-9.884345e-01
4.235045e+01	1.562451e+01	-1.042150e+00
4.222036e+01	1.659769e+01	-1.187331e+00
4.232371e+01	1.757969e+01	-1.649156e+00
4.278112e+01	1.884976e+01	-1.617194e+00
4.197209e+01	1.889537e+01	-1.664150e+00
4.206375e+01	4.473961e-01	-1.340651e+00
4.305539e+01	1.264224e-01	-1.393228e+00
4.317670e+01	2.020488e+00	-9.465899e-01
4.323128e+01	3.012948e+00	-6.296025e-01
4.334275e+01	4.137158e+00	-4.587397e-01
4.330325e+01	5.224507e+00	-3.253710e-01
4.328133e+01	6.288012e+00	-2.391008e-01
4.326863e+01	7.350612e+00	-1.866739e-01
4.326009e+01	8.411129e+00	-1.562271e-01
4.325614e+01	9.470393e+00	-1.421265e-01
4.325614e+01	1.052958e+01	-1.421200e-01
4.326007e+01	1.158884e+01	-1.562071e-01
4.326860e+01	1.264934e+01	-1.866353e-01
4.328130e+01	1.371190e+01	-2.390322e-01
4.330327e+01	1.477535e+01	-3.252826e-01
4.334290e+01	1.586260e+01	-4.586575e-01
4.323184e+01	1.698673e+01	-6.294629e-01
4.317690e+01	1.797925e+01	-9.457601e-01
4.305680e+01	1.987297e+01	-1.391591e+00
4.206802e+01	1.955537e+01	-1.344182e+00
4.067546e+01	4.413135e-01	-1.701902e+00
4.122556e+01	-3.788103e-01	-1.039861e+00
4.176754e+01	1.503527e+00	-3.027918e+00
4.206538e+01	3.037324e+00	-2.835880e+00
4.221363e+01	4.173919e+00	-2.630212e+00
4.228224e+01	5.253935e+00	-2.497861e+00
4.232110e+01	6.316230e+00	-2.403386e+00
4.234256e+01	7.370253e+00	-2.341893e+00
4.235377e+01	8.422396e+00	-2.305570e+00
4.235874e+01	9.474074e+00	-2.288619e+00
4.235874e+01	1.052586e+01	-2.288633e+00
4.235379e+01	1.157753e+01	-2.305616e+00
4.234257e+01	1.262966e+01	-2.341978e+00
4.232110e+01	1.368363e+01	-2.403525e+00
4.228224e+01	1.474583e+01	-2.498105e+00
4.221376e+01	1.582567e+01	-2.630519e+00
4.206613e+01	1.696203e+01	-2.835806e+00
4.176851e+01	1.849493e+01	-3.027516e+00
4.122992e+01	2.037804e+01	-1.038775e+00
4.067679e+01	1.956249e+01	-1.701718e+00
3.973711e+01	5.832202e-01	-1.373702e+00
4.025678e+01	-4.701218e-01	-8.390280e-01
4.025839e+01	1.167960e+00	-3.156784e+00
4.038961e+01	2.892059e+00	-3.146584e+00
4.049742e+01	4.131789e+00	-2.983646e+00
4.055759e+01	5.239924e+00	-2.855030e+00
4.059059e+01	6.310511e+00	-2.766176e+00
4.060903e+01	7.368539e+00	-2.707961e+00
4.061888e+01	8.422080e+00	-2.673055e+00
4.062327e+01	9.474051e+00	-2.656768e+00
4.062329e+01	1.052585e+01	-2.656817e+00
4.061893e+01	1.157781e+01	-2.673213e+00
4.060912e+01	1.263132e+01	-2.708257e+00
4.059073e+01	1.368928e+01	-2.766663e+00
4.055787e+01	1.475974e+01	-2.855857e+00
4.049799e+01	1.586764e+01	-2.984637e+00
4.039075e+01	1.710669e+01	-3.146894e+00
4.025957e+01	1.882842e+01	-3.156851e+00
4.026289e+01	2.047915e+01	-8.378366e-01
3.973979e+01	1.942550e+01	-1.370293e+00
3.884482e+01	4.711321e-01	-1.177992e+00
3.920179e+01	-6.416383e-01	-7.259742e-01
3.909640e+01	1.006079e+00	-3.079079e+00
3.914468e+01	2.800319e+00	-3.122782e+00
3.921120e+01	4.086442e+00	-2.962025e+00
3.925604e+01	5.218351e+00	-2.827758e+00
3.928313e+01	6.299796e+00	-2.733608e+00
3.929890e+01	7.363171e+00	-2.671630e+00
3.930756e+01	8.419597e+00	-2.634333e+00
3.931147e+01	9.473321e+00	-2.616894e+00
3.931148e+01	1.052654e+01	-2.616955e+00
3.930759e+01	1.158025e+01	-2.634533e+00
3.929895e+01	1.263663e+01	-2.672011e+00
3.928321e+01	1.369991e+01	-2.734238e+00
3.925622e+01	1.478120e+01	-2.828835e+00
3.921164e+01	1.591279e+01	-2.963206e+00
3.914554e+01	1.719778e+01	-3.122584e+00
3.909710e+01	1.898785e+01	-3.079015e+00
3.920469e+01	2.065367e+01	-7.241362e-01
3.884753e+01	1.954230e+01	-1.174377e+00
3.792200e+01	4.548231e-01	-1.135361e+00
3.815793e+01	-6.319705e-01	-5.920109e-01
3.803988e+01	9.367666e-01	-2.977570e+00
3.805210e+01	2.749949e+00	-3.032634e+00
3.809298e+01	4.055970e+00	-2.867119e+00
3.812537e+01	5.200777e+00	-2.727020e+00
3.814703e+01	6.289867e+00	-2.628348e+00
3.816049e+01	7.357713e+00	-2.563205e+00
3.816821e+01	8.416882e+00	-2.523936e+00
3.817178e+01	9.472495e+00	-2.505545e+00
3.817178e+01	1.052735e+01	-2.505608e+00
3.816822e+01	1.158294e+01	-2.524141e+00
3.816050e+01	1.264205e+01	-2.563591e+00
3.814704e+01	1.370979e+01	-2.628962e+00
3.812543e+01	1.479871e+01	-2.728031e+00
3.809324e+01	1.594314e+01	-2.867967e+00
3.805267e+01	1.724765e+01	-3.031342e+00
3.804017e+01	1.905574e+01	-2.976509e+00
3.815980e+01	2.064336e+01	-5.880392e-01
3.792414e+01	1.955809e+01	-1.132002e+00
3.699573e+01	4.970846e-01	-1.059448e+00
3.715635e+01	-6.070138e-01	-5.009930e-01
3.702170e+01	9.092306e-01	-2.874161e+00
3.701910e+01	2.725438e+00	-2.930140e+00
3.704458e+01	4.037758e+00	-2.759376e+00
3.706775e+01	5.188320e+00	-2.614798e+00
3.708461e+01	6.281847e+00	-2.512869e+00
3.709574e+01	7.352871e+00	-2.445453e+00
3.710240e+01	8.414317e+00	-2.404767e+00
3.710555e+01	9.471691e+00	-2.385691e+00
3.710555e+01	1.052814e+01	-2.385750e+00
3.710239e+01	1.158549e+01	-2.404955e+00
3.709573e+01	1.264688e+01	-2.445794e+00
3.708458e+01	1.371780e+01	-2.513400e+00
3.706775e+01	1.481114e+01	-2.615608e+00
3.704473e+01	1.596130e+01	-2.759678e+00
3.701955e+01	1.727184e+01	-2.927654e+00
3.702196e+01	1.908242e+01	-2.871873e+00
3.715779e+01	2.061918e+01	-4.967791e-01
3.699762e+01	1.951537e+01	-1.054206e+00
3.605528e+01	5.141633e-01	-9.849636e-01
3.615926e+01	-5.980972e-01	-4.522101e-01
3.602184e+01	9.092852e-01	-2.780181e+00
3.601043e+01	2.717230e+00	-2.830471e+00
3.602628e+01	4.028538e+00	-2.655554e+00
3.604284e+01	5.180500e+00	-2.508091e+00
3.605576e+01	6.276068e+00	-2.404132e+00
3.606472e+01	7.349041e+00	-2.335288e+00
3.607027e+01	8.412164e+00	-2.293679e+00
3.607296e+01	9.470999e+00	-2.274147e+00
3.607296e+01	1.052883e+01	-2.274198e+00
3.607026e+01	1.158764e+01	-2.293835e+00
3.606470e+01	1.265071e+01	-2.335559e+00
3.605572e+01	1.372358e+01	-2.404582e+00
3.604283e+01	1.481897e+01	-2.508692e+00
3.602640e+01	1.597050e+01	-2.655298e+00
3.601087e+01	1.727985e+01	-2.826948e+00
3.602224e+01	1.908174e+01	-2.776805e+00
3.615989e+01	2.061092e+01	-4.481917e-01
3.605671e+01	1.949891e+01	-9.788856e-01
3.510007e+01	5.283636e-01	-9.270810e-01
3.516173e+01	-5.956925e-01	-4.329208e-01
3.502844e+01	9.290584e-01	-2.698753e+00
3.501165e+01	2.719990e+00	-2.737613e+00
3.502117e+01	4.025735e+00	-2.559732e+00
3.503303e+01	5.176436e+00	-2.410895e+00
3.504285e+01	6.272395e+00	-2.306053e+00
3.504994e+01	7.346334e+00	-2.236513e+00
3.505445e+01	8.410547e+00	-2.194407e+00
3.505668e+01	9.470465e+00	-2.174615e+00
3.505668e+01	1.052937e+01	-2.174651e+00
3.505444e+01	1.158926e+01	-2.194510e+00
3.504991e+01	1.265343e+01	-2.236691e+00
3.504281e+01	1.372726e+01	-2.306346e+00
3.503302e+01	1.482305e+01	-2.411237e+00
3.502130e+01	1.597330e+01	-2.558996e+00
3.501212e+01	1.727697e+01	-2.733271e+00
3.502896e+01	1.906152e+01	-2.694418e+00
3.516173e+01	2.060884e+01	-4.292573e-01
3.510098e+01	1.948479e+01	-9.208113e-01
3.413356e+01	5.424193e-01	-8.738535e-01
3.416420e+01	-5.993605e-01	-4.363366e-01
3.403629e+01	9.621382e-01	-2.627817e+00
3.401646e+01	2.730161e+00	-2.651833e+00
3.402178e+01	4.027428e+00	-2.472094e+00
3.403031e+01	5.175215e+00	-2.323152e+00
3.403778e+01	6.270477e+00	-2.218455e+00
3.404334e+01	7.344665e+00	-2.148869e+00
3.404693e+01	8.409472e+00	-2.106546e+00
3.404875e+01	9.470098e+00	-2.086633e+00
3.404874e+01	1.052974e+01	-2.086637e+00
3.404692e+01	1.159035e+01	-2.106515e+00
3.404330e+01	1.265510e+01	-2.148711e+00
3.403774e+01	1.372917e+01	-2.218331e+00
3.403031e+01	1.482426e+01	-2.322889e+00
3.402194e+01	1.597158e+01	-2.470674e+00
3.401697e+01	1.726674e+01	-2.646843e+00
3.403691e+01	1.902817e+01	-2.622609e+00
3.416376e+01	2.061274e+01	-4.332189e-01
3.413398e+01	1.947078e+01	-8.674616e-01
3.315827e+01	5.529506e-01	-8.241524e-01
3.316578e+01	-6.068570e-01	-4.575444e-01
3.304369e+01	1.004154e+00	-2.564835e+00
3.302222e+01	2.745244e+00	-2.572213e+00
3.302474e+01	4.032208e+00	-2.391594e+00
3.303092e+01	5.176083e+00	-2.243453e+00
3.303663e+01	6.270018e+00	-2.138363e+00
3.304097e+01	7.343910e+00	-2.069229e+00
3.304382e+01	8.408865e+00	-2.028287e+00
3.304528e+01	9.469881e+00	-2.008506e+00
3.304528e+01	1.052997e+01	-2.008466e+00
3.304381e+01	1.159096e+01	-2.028180e+00
3.304094e+01	1.265590e+01	-2.070171e+00
3.303659e+01	1.372968e+01	-2.139228e+00
3.303094e+01	1.482339e+01	-2.242836e+00
3.302493e+01	1.596679e+01	-2.389717e+00
3.302275e+01	1.725164e+01	-2.566705e+00
3.304438e+01	1.898602e+01	-2.558831e+00
3.316499e+01	2.062036e+01	-4.550849e-01
3.315827e+01	1.946040e+01	-8.178778e-01
3.217635e+01	5.602973e-01	-7.778617e-01
3.216637e+01	-6.151032e-01	-4.926786e-01
3.205006e+01	1.052106e+00	-2.507586e+00
3.202785e+01	2.763522e+00	-2.497602e+00
3.202851e+01	4.039066e+00	-2.316920e+00
3.203302e+01	5.178454e+00	-2.170358e+00
3.203745e+01	6.270621e+00	-2.066263e+00
3.204087e+01	7.343803e+00	-1.997839e+00
3.204312e+01	8.408646e+00	-1.957718e+00
3.204428e+01	9.469796e+00	-1.938320e+00
3.204428e+01	1.053006e+01	-1.938263e+00
3.204310e+01	1.159117e+01	-1.957713e+00
3.204082e+01	1.265600e+01	-1.999420e+00
3.203740e+01	1.372914e+01	-2.067654e+00
3.203307e+01	1.482106e+01	-2.169821e+00
3.202871e+01	1.595997e+01	-2.314941e+00
3.202839e+01	1.723340e+01	-2.491723e+00
3.205082e+01	1.893806e+01	-2.500870e+00
3.216533e+01	2.062860e+01	-4.909331e-01
3.217598e+01	1.945321e+01	-7.719022e-01
3.118949e+01	5.646943e-01	-7.342850e-01
3.116618e+01	-6.216396e-01	-5.388006e-01
3.105532e+01	1.103873e+00	-2.454267e+00
3.103296e+01	2.783807e+00	-2.426973e+00
3.103240e+01	4.047271e+00	-2.246946e+00
3.103573e+01	5.181839e+00	-2.102568e+00
3.103920e+01	6.271891e+00	-2.001316e+00
[...]
CELL_DATA 817
SCALARS Mu double 1
LOOKUP_TABLE default
-0.388429
-0.434839
-0.445113
-0.448285
-0.449531
-0.450112
-0.450415
-0.45058
-0.450664
-0.450691
-0.450664
-0.45058
-0.450415
-0.450112
-0.449531
-0.448285
-0.445113
-0.434839
-0.388429
-0.510131
-0.594683
-0.616974
-0.624665
-0.627855
-0.629376
-0.630171
-0.630603
-0.630824
-0.630893
-0.630827
-0.630608
-0.630178
-0.629383
-0.627864
-0.624669
-0.616953
-0.594531
-0.509768
-0.565402
-0.676259
-0.708906
-0.721304
-0.726769
-0.729481
-0.73093
-0.731726
-0.732133
-0.732261
-0.732142
-0.731746
-0.730963
-0.729527
-0.726831
-0.721339
-0.708845
-0.676044
-0.567553
-0.5965
-0.724128
-0.764294
-0.780705
-0.788374
-0.792329
-0.794491
-0.79569
-0.796305
-0.796497
-0.796315
-0.795713
-0.794527
-0.792381
-0.788441
-0.780711
-0.764093
-0.72369
-0.599882
-0.616157
-0.754595
-0.800147
-0.819703
-0.829262
-0.834366
-0.837218
-0.838823
-0.839649
-0.839907
-0.839656
-0.838838
-0.837242
-0.834395
-0.829287
-0.81961
-0.799729
-0.753863
-0.620006
-0.629462
-0.77515
-0.824573
-0.846525
-0.857613
-0.863703
-0.867176
-0.869157
-0.870184
-0.870502
-0.870184
-0.869157
-0.867173
-0.863686
-0.85756
-0.846289
-0.823906
-0.774108
-0.633433
-0.63891
-0.789621
-0.841854
-0.865629
-0.87793
-0.884838
-0.888843
-0.891155
-0.892362
-0.892735
-0.892353
-0.891135
-0.888804
-0.884767
-0.877784
-0.865235
-0.840944
-0.78829
-0.642855
-0.645861
-0.800146
-0.854446
-0.879611
-0.892871
-0.900442
-0.904899
-0.907495
-0.908859
-0.909278
-0.908838
-0.907451
-0.904819
-0.900312
-0.892624
-0.879062
-0.853314
-0.798557
-0.649722
-0.651118
-0.808004
-0.863847
-0.890074
-0.904089
-0.912208
-0.917035
-0.91987
-0.921366
-0.921824
-0.921333
-0.919799
-0.916913
-0.912002
-0.903739
-0.889378
-0.86252
-0.80619
-0.654877
-0.655184
-0.813999
-0.871014
-0.898055
-0.91267
-0.921219
-0.926358
-0.929393
-0.931
-0.93149
-0.930954
-0.929291
-0.926181
-0.920941
-0.912171
-0.897221
-0.869514
-0.811993
-0.658841
-0.658388
-0.818659
-0.87657
-0.904239
-0.919324
-0.928202
-0.933353
-0.936781
-0.938511
-0.939032
-0.938454
-0.936687
-0.933422
-0.927882
-0.918774
-0.903285
-0.874921
-0.816489
-0.661948
-0.660949
-0.822338
-0.88094
-0.909098
-0.924554
-0.933726
-0.939242
-0.942613
-0.944431
-0.944972
-0.944365
-0.94251
-0.939127
-0.933362
-0.923934
-0.908042
-0.879166
-0.820031
-0.664423
-0.663021
-0.825283
-0.884419
-0.91296
-0.928706
-0.938104
-0.943837
-0.947298
-0.94915
-0.949712
-0.94908
-0.947156
-0.943615
-0.937678
-0.92802
-0.911817
-0.882541
-0.82286
-0.666419
-0.664715
-0.827667
-0.887216
-0.916056
-0.932031
-0.941591
-0.947475
-0.951026
-0.95292
-0.953498
-0.952849
-0.950851
-0.947181
-0.941111
-0.931284
-0.91484
-0.885252
-0.825147
-0.668047
-0.666097
-0.829594
-0.889464
-0.918544
-0.934709
-0.944423
-0.950403
-0.954048
-0.955985
-0.956559
-0.955888
-0.953846
-0.950085
-0.943903
-0.933924
-0.917287
-0.887452
-0.827017
-0.669388
-0.667253
-0.831199
-0.891318
-0.920587
-0.936901
-0.946741
-0.952803
-0.956494
-0.958367
-0.959029
-0.958341
-0.955882
-0.952377
-0.946158
-0.93607
-0.919281
-0.889251
-0.828559
-0.670503
-0.668225
-0.832528
-0.892849
-0.922268
-0.938724
-0.948632
-0.95476
-0.958469
-0.960483
-0.961076
-0.960326
-0.958144
-0.954299
-0.947591
-0.937793
-0.920911
-0.890737
-0.829835
-0.671435
-0.669047
-0.833641
-0.894119
-0.923653
-0.940183
-0.950182
-0.956367
-0.960143
-0.962458
-0.963208
-0.962042
-0.959854
-0.955938
-0.949468
-0.93926
-0.922276
-0.89198
-0.830914
-0.672233
-0.669767
-0.834672
-0.895229
-0.924909
-0.941505
-0.951463
-0.957689
-0.96148
-0.963593
-0.96431
-0.963546
-0.961351
-0.957315
-0.950829
-0.940496
-0.923416
-0.893019
-0.831825
-0.672916
-0.670312
-0.835344
-0.896019
-0.925722
-0.942395
-0.952498
-0.958791
-0.962623
-0.964705
-0.965348
-0.964681
-0.962445
-0.958452
-0.951955
-0.941544
-0.924384
-0.893894
-0.832588
-0.673485
-0.670778
-0.835965
-0.896752
-0.926487
-0.943239
-0.953408
-0.959746
-0.963602
-0.965689
-0.966309
-0.965575
-0.963436
-0.959372
-0.952866
-0.942406
-0.9252
-0.894666
-0.833238
-0.673966
-0.671201
-0.836527
-0.897403
-0.927221
-0.943991
-0.954198
-0.960565
-0.964442
-0.966536
-0.96716
-0.966427
-0.964225
-0.960186
-0.953631
-0.94313
-0.925872
-0.895265
-0.833767
-0.674364
-0.671574
-0.837024
-0.897976
-0.927847
-0.944655
-0.954893
-0.961277
-0.965168
-0.967284
-0.96792
-0.96719
-0.964957
-0.96089
-0.954257
-0.943745
-0.926479
-0.895817
-0.834246
-0.674719
-0.671901
-0.837465
-0.898476
-0.928371
-0.945229
-0.955506
-0.961918
-0.965836
-0.967943
-0.9686
-0.967847
-0.965649
-0.961531
-0.954898
-0.944353
-0.927025
-0.896261
-0.834667
-0.67503
-0.672181
-0.837848
-0.89886
-0.928876
-0.945762
-0.956053
-0.96248
-0.966416
-0.968528
-0.96916
-0.968423
-0.96618
-0.96197
-0.955345
-0.944872
-0.92751
-0.896732
-0.835035
-0.675302
-0.672432
-0.838191
-0.899304
-0.929302
-0.946225
-0.956537
-0.962983
-0.966931
-0.969046
-0.969698
-0.968958
-0.966693
-0.962563
-0.955913
-0.945337
-0.927944
-0.897097
-0.835372
-0.675543
-0.67265
-0.838473
-0.899433
-0.929681
-0.946642
-0.956974
-0.963416
-0.967382
-0.969528
-0.970182
-0.969434
-0.967162
-0.963034
-0.95637
-0.945756
-0.928334
-0.897476
-0.835673
-0.675758
-0.672843
-0.838734
-0.899801
-0.930017
-0.94701
-0.957366
-0.963823
-0.96782
-0.969982
-0.970669
-0.969866
-0.967549
-0.963444
-0.956781
-0.946143
-0.928686
-0.89776
-0.835933
-0.675947
-0.673019
-0.838981
-0.900132
-0.930327
-0.947327
-0.957681
-0.964209
-0.968202
-0.970361
-0.971052
-0.970207
-0.967921
-0.963822
-0.957088
-0.946483
-0.928995
-0.898061
-0.836171
-0.676117
-0.673184
-0.839214
-0.900475
-0.930633
-0.947652
-0.958038
-0.964544
-0.968532
-0.9707
-0.971412
-0.970585
-0.968296
-0.964105
-0.957431
-0.946776
-0.929278
-0.898315
-0.836391
-0.676271
-0.673336
-0.839438
-0.900733
-0.930907
-0.947952
-0.958539
-0.96489
-0.96909
-0.971099
-0.971747
-0.971032
-0.968664
-0.964525
-0.957764
-0.947021
-0.929528
-0.898543
-0.836589
-0.676412
-0.673093
-0.832934
-0.900547
-0.931022
-0.948003
-0.95862
-0.965148
-0.969415
-0.971412
-0.972045
-0.971313
-0.969027
-0.965407
-0.958068
-0.947317
-0.929762
-0.898751
-0.83677
-0.676538
-0.673109
-0.838233
-0.900522
-0.931105
-0.948293
-0.958806
-0.965382
-0.969683
-0.971677
-0.972301
-0.971567
-0.969306
-0.965783
-0.95836
-0.947568
-0.929975
-0.898935
-0.83693
-0.676652
-0.673397
-0.839334
-0.900867
-0.931315
-0.948502
-0.959012
-0.965615
-0.970051
-0.972024
-0.97254
-0.971793
-0.969506
-0.96541
-0.958569
-0.947775
-0.930156
-0.899072
-0.83707
-0.676757
-0.673604
-0.839754
-0.901216
-0.931532
-0.948696
-0.959212
-0.965862
-0.970156
-0.972154
-0.972747
-0.971998
-0.969691
-0.965496
-0.958798
-0.947957
-0.930312
-0.899211
-0.837196
-0.676852
-0.673756
-0.839992
-0.901407
-0.931681
-0.948861
-0.959426
-0.966021
-0.970411
-0.972329
-0.972929
-0.972154
-0.969843
-0.965629
-0.958887
-0.948089
-0.930449
-0.899337
-0.83731
-0.676936
-0.673875
-0.840163
-0.901591
-0.931873
-0.949026
-0.959545
-0.966179
-0.970492
-0.972491
-0.973094
-0.972311
-0.970005
-0.965796
-0.959061
-0.948218
-0.930574
-0.899452
-0.83741
-0.677013
-0.673972
-0.840299
-0.90173
-0.932019
-0.949157
-0.959648
-0.966291
-0.970629
-0.972706
-0.973241
-0.972472
-0.970159
-0.965913
-0.959131
-0.948335
-0.93073
-0.899558
-0.837505
-0.677083
-0.674055
-0.840414
-0.901851
-0.932148
-0.949367
-0.959803
-0.966422
-0.970753
-0.972774
-0.973387
-0.972691
-0.970305
-0.966032
-0.95925
-0.948466
-0.930802
-0.899682
-0.837596
-0.677151
-0.67413
-0.840515
-0.901958
-0.932259
-0.94945
-0.959925
-0.966547
-0.97095
-0.972724
-0.973462
-0.972732
-0.970365
-0.96615
-0.959404
-0.948576
-0.930894
-0.899772
-0.837678
-0.677212
-0.674198
-0.840603
-0.90205
-0.932345
-0.94942
-0.960026
-0.966664
-0.970992
-0.972961
-0.973695
-0.972848
-0.970146
-0.966318
-0.959473
-0.948614
-0.930956
-0.899821
-0.837742
-0.677265
-0.674258
-0.84068
-0.902131
-0.932425
-0.949485
-0.960115
-0.966749
-0.971085
-0.973081
-0.973718
-0.972906
-0.970484
-0.966326
-0.959536
-0.948734
-0.93109
-0.899936
-0.83783
-0.677332

