# vtk DataFile Version 2.0
OUTPUT by 3D-VPM
ASCII
DATASET UNSTRUCTURED_GRID
POINTS 1000 double
4.800056e+01	9.897087e-01	-2.269275e+00
4.884887e+01	1.232101e+00	-1.702687e+00
4.836366e+01	2.467011e+00	-1.918975e+00
4.818776e+01	3.454186e+00	-1.435568e+00
4.837121e+01	4.409892e+00	-1.219400e+00
4.835763e+01	5.407476e+00	-1.175107e+00
4.832195e+01	6.410802e+00	-1.096976e+00
4.831560e+01	7.427368e+00	-1.045096e+00
4.830894e+01	8.453280e+00	-1.017981e+00
4.830491e+01	9.483872e+00	-1.004620e+00
4.830491e+01	1.051611e+01	-1.004625e+00
4.830895e+01	1.154670e+01	-1.017996e+00
4.831563e+01	1.257259e+01	-1.045110e+00
4.832199e+01	1.358913e+01	-1.096964e+00
4.835770e+01	1.459242e+01	-1.175034e+00
4.837135e+01	1.558994e+01	-1.219256e+00
4.818821e+01	1.654574e+01	-1.435177e+00
4.836466e+01	1.753286e+01	-1.918504e+00
4.885757e+01	1.877289e+01	-1.697895e+00
4.799380e+01	1.899903e+01	-2.269278e+00
4.787215e+01	6.850414e-01	-1.517099e+00
4.897244e+01	2.212087e-01	-1.199643e+00
4.879270e+01	2.028139e+00	-8.531048e-01
4.893279e+01	2.998348e+00	-4.888212e-01
4.908701e+01	4.134080e+00	-2.723429e-01
4.902007e+01	5.223994e+00	-1.418839e-01
4.899046e+01	6.284814e+00	-4.871985e-02
4.897400e+01	7.348534e+00	8.881492e-03
4.896216e+01	8.410012e+00	4.194537e-02
4.895671e+01	9.470016e+00	5.736998e-02
4.895670e+01	1.052996e+01	5.737393e-02
4.896213e+01	1.158995e+01	4.195886e-02
4.897396e+01	1.265141e+01	8.913479e-03
4.899041e+01	1.371510e+01	-4.865389e-02
4.902007e+01	1.477587e+01	-1.417777e-01
4.908715e+01	1.586571e+01	-2.722118e-01
4.893334e+01	1.700148e+01	-4.885366e-01
4.879208e+01	1.797196e+01	-8.527974e-01
4.897396e+01	1.977849e+01	-1.197501e+00
4.788120e+01	1.932116e+01	-1.515343e+00
4.662079e+01	3.797092e-01	-1.875138e+00
4.713231e+01	-1.388939e-02	-8.184170e-01
4.796909e+01	1.336348e+00	-3.224656e+00
4.837568e+01	3.019535e+00	-2.972804e+00
4.855342e+01	4.152510e+00	-2.711047e+00
4.863329e+01	5.243158e+00	-2.558549e+00
4.867963e+01	6.312483e+00	-2.439333e+00
4.870490e+01	7.368183e+00	-2.361036e+00
4.871796e+01	8.421357e+00	-2.315033e+00
4.872369e+01	9.473765e+00	-2.293434e+00
4.872369e+01	1.052616e+01	-2.293449e+00
4.871797e+01	1.157856e+01	-2.315084e+00
4.870490e+01	1.263170e+01	-2.361131e+00
4.867959e+01	1.368734e+01	-2.439496e+00
4.863323e+01	1.475653e+01	-2.558834e+00
4.855346e+01	1.584694e+01	-2.711411e+00
4.837639e+01	1.697963e+01	-2.972615e+00
4.797033e+01	1.866156e+01	-3.224120e+00
4.713595e+01	2.000958e+01	-8.183996e-01
4.662328e+01	1.962336e+01	-1.874167e+00
4.563300e+01	5.618353e-01	-1.635542e+00
4.624658e+01	-1.179419e-01	-6.371680e-01
4.632076e+01	8.952588e-01	-3.371655e+00
4.648851e+01	2.816826e+00	-3.447473e+00
4.663324e+01	4.110210e+00	-3.272411e+00
4.671328e+01	5.233222e+00	-3.128911e+00
4.675714e+01	6.309088e+00	-3.028174e+00
4.678206e+01	7.368805e+00	-2.961296e+00
4.679553e+01	8.422556e+00	-2.920939e+00
4.680153e+01	9.474242e+00	-2.902046e+00
4.680155e+01	1.052564e+01	-2.902096e+00
4.679559e+01	1.157731e+01	-2.921102e+00
4.678217e+01	1.263102e+01	-2.961601e+00
4.675731e+01	1.369066e+01	-3.028676e+00
4.671363e+01	1.476638e+01	-3.129764e+00
4.663396e+01	1.588909e+01	-3.273412e+00
4.648994e+01	1.718154e+01	-3.447742e+00
4.632250e+01	1.909989e+01	-3.372788e+00
4.625284e+01	2.012624e+01	-6.336110e-01
4.563683e+01	1.944485e+01	-1.630510e+00
4.475827e+01	4.460766e-01	-1.359791e+00
4.521105e+01	-3.796015e-01	-4.602184e-01
4.512305e+01	6.789530e-01	-3.267922e+00
4.517802e+01	2.688056e+00	-3.444236e+00
4.526482e+01	4.046177e+00	-3.280950e+00
4.532384e+01	5.203235e+00	-3.133538e+00
4.535957e+01	6.294111e+00	-3.027636e+00
4.538046e+01	7.361168e+00	-2.957023e+00
4.539199e+01	8.418980e+00	-2.914224e+00
4.539719e+01	9.473185e+00	-2.894134e+00
4.539720e+01	1.052665e+01	-2.894201e+00
4.539203e+01	1.158083e+01	-2.914442e+00
4.538053e+01	1.263858e+01	-2.957439e+00
4.535968e+01	1.370553e+01	-3.028321e+00
4.532410e+01	1.479621e+01	-3.134707e+00
4.526542e+01	1.595284e+01	-3.282211e+00
4.517912e+01	1.730937e+01	-3.444047e+00
4.512404e+01	1.931325e+01	-3.270087e+00
4.521416e+01	2.039069e+01	-4.557362e-01
4.476219e+01	1.956513e+01	-1.352572e+00
4.384221e+01	3.789306e-01	-1.312258e+00
4.415984e+01	-3.457078e-01	-3.142718e-01
4.405155e+01	5.860250e-01	-3.156825e+00
4.405897e+01	2.615958e+00	-3.357757e+00
4.411109e+01	4.002884e+00	-3.191874e+00
4.415306e+01	5.178494e+00	-3.038085e+00
4.418130e+01	6.280192e+00	-2.926844e+00
4.419892e+01	7.353500e+00	-2.852423e+00
4.420904e+01	8.415150e+00	-2.807233e+00
4.421371e+01	9.472017e+00	-2.785988e+00
4.421372e+01	1.052779e+01	-2.786059e+00
4.420906e+01	1.158462e+01	-2.807462e+00
4.419894e+01	1.264621e+01	-2.852853e+00
4.418133e+01	1.371938e+01	-2.927522e+00
4.415318e+01	1.482085e+01	-3.039196e+00
4.411145e+01	1.599595e+01	-3.192774e+00
4.405967e+01	1.738075e+01	-3.356395e+00
4.405184e+01	1.940456e+01	-3.158418e+00
4.416218e+01	2.035458e+01	-3.077323e-01
4.384540e+01	1.963234e+01	-1.305804e+00
4.292908e+01	4.414928e-01	-1.245852e+00
4.316576e+01	-3.053620e-01	-2.112949e-01
4.302170e+01	5.407249e-01	-3.041989e+00
4.301425e+01	2.578273e+00	-3.253753e+00
4.304634e+01	3.976254e+00	-3.082556e+00
4.307602e+01	5.160752e+00	-2.923186e+00
4.309779e+01	6.268918e+00	-2.807732e+00
4.311222e+01	7.346730e+00	-2.730357e+00
4.312088e+01	8.411568e+00	-2.683329e+00
4.312497e+01	9.470896e+00	-2.661198e+00
4.312497e+01	1.052889e+01	-2.661265e+00
4.312088e+01	1.158819e+01	-2.683542e+00
4.311222e+01	1.265296e+01	-2.730742e+00
4.309777e+01	1.373063e+01	-2.808322e+00
4.307605e+01	1.483856e+01	-2.924073e+00
4.304655e+01	1.602249e+01	-3.082833e+00
4.301476e+01	1.741798e+01	-3.251060e+00
4.302187e+01	1.944891e+01	-3.042539e+00
4.316799e+01	2.031544e+01	-2.041473e-01
4.293198e+01	1.956825e+01	-1.237575e+00
4.200455e+01	4.671133e-01	-1.156614e+00
4.217143e+01	-2.997513e-01	-1.417753e-01
4.201727e+01	5.276492e-01	-2.937370e+00
4.200057e+01	2.561496e+00	-3.150994e+00
4.202053e+01	3.961539e+00	-2.974818e+00
4.204160e+01	5.149209e+00	-2.811358e+00
4.205815e+01	6.260650e+00	-2.692956e+00
4.206969e+01	7.341326e+00	-2.613526e+00
4.207686e+01	8.408550e+00	-2.565185e+00
4.208033e+01	9.469927e+00	-2.542413e+00
4.208032e+01	1.052986e+01	-2.542470e+00
4.207685e+01	1.159120e+01	-2.565363e+00
4.206967e+01	1.265836e+01	-2.613830e+00
4.205812e+01	1.373891e+01	-2.693456e+00
4.204160e+01	1.485010e+01	-2.812007e+00
4.202070e+01	1.603716e+01	-2.974447e+00
4.200106e+01	1.743445e+01	-3.147125e+00
4.201758e+01	1.946126e+01	-2.936997e+00
4.217269e+01	2.031100e+01	-1.343990e-01
4.200693e+01	1.954325e+01	-1.146778e+00
4.106196e+01	4.824086e-01	-1.095757e+00
4.117421e+01	-3.037644e-01	-1.008364e-01
4.102285e+01	5.390653e-01	-2.850585e+00
4.100015e+01	2.558914e+00	-3.055107e+00
4.101218e+01	3.955270e+00	-2.874709e+00
4.102718e+01	5.142638e+00	-2.708707e+00
4.103969e+01	6.255176e+00	-2.588595e+00
4.104876e+01	7.337413e+00	-2.507908e+00
4.105456e+01	8.406241e+00	-2.458721e+00
4.105742e+01	9.469168e+00	-2.435522e+00
4.105741e+01	1.053062e+01	-2.435562e+00
4.105455e+01	1.159352e+01	-2.458838e+00
4.104874e+01	1.266228e+01	-2.508106e+00
4.103965e+01	1.374438e+01	-2.588914e+00
4.102719e+01	1.485670e+01	-2.709055e+00
4.101236e+01	1.604341e+01	-2.873778e+00
4.100067e+01	1.743682e+01	-3.050298e+00
4.102328e+01	1.944928e+01	-2.849362e+00
4.117469e+01	2.031566e+01	-9.351555e-02
4.106367e+01	1.952813e+01	-1.085663e+00
4.010578e+01	5.033378e-01	-1.042981e+00
4.017767e+01	-3.199459e-01	-8.121827e-02
4.003074e+01	5.672364e-01	-2.778687e+00
4.000486e+01	2.566197e+00	-2.966989e+00
4.001161e+01	3.954971e+00	-2.783185e+00
4.002234e+01	5.139835e+00	-2.615981e+00
4.003181e+01	6.252024e+00	-2.495298e+00
4.003888e+01	7.334872e+00	-2.414075e+00
4.004347e+01	8.404651e+00	-2.364346e+00
4.004578e+01	9.468630e+00	-2.340870e+00
4.004578e+01	1.053117e+01	-2.340874e+00
4.004346e+01	1.159513e+01	-2.364305e+00
4.003883e+01	1.266483e+01	-2.413877e+00
4.003175e+01	1.374752e+01	-2.495125e+00
4.002234e+01	1.485948e+01	-2.615621e+00
4.001181e+01	1.604366e+01	-2.781453e+00
4.000544e+01	1.742941e+01	-2.961424e+00
4.003129e+01	1.942073e+01	-2.776622e+00
4.017759e+01	2.033253e+01	-7.419061e-02
4.010688e+01	1.950716e+01	-1.032572e+00
3.913878e+01	5.214370e-01	-9.933328e-01
3.918015e+01	-3.466705e-01	-7.848011e-02
3.903873e+01	6.070248e-01	-2.718226e+00
3.901115e+01	2.580203e+00	-2.885825e+00
3.901438e+01	3.958842e+00	-2.699436e+00
3.902208e+01	5.139825e+00	-2.531994e+00
3.902926e+01	6.250817e+00	-2.410045e+00
3.903475e+01	7.333537e+00	-2.328842e+00
3.903840e+01	8.403679e+00	-2.280448e+00
3.904025e+01	9.468291e+00	-2.256987e+00
3.904025e+01	1.053152e+01	-2.256940e+00
3.903839e+01	1.159610e+01	-2.280319e+00
3.903473e+01	1.266621e+01	-2.329953e+00
3.902923e+01	1.374880e+01	-2.411048e+00
3.902212e+01	1.485947e+01	-2.531218e+00
3.901461e+01	1.603976e+01	-2.697163e+00
3.901176e+01	1.741533e+01	-2.879647e+00
3.903936e+01	1.938070e+01	-2.715339e+00
3.917961e+01	2.035985e+01	-7.193091e-02
3.913932e+01	1.948928e+01	-9.827747e-01
3.816334e+01	5.367315e-01	-9.478757e-01
3.818145e+01	-3.798049e-01	-8.989119e-02
3.804590e+01	6.549536e-01	-2.666308e+00
3.801754e+01	2.598759e+00	-2.810400e+00
3.801840e+01	3.965584e+00	-2.622162e+00
3.802397e+01	5.141849e+00	-2.455330e+00
3.802949e+01	6.251021e+00	-2.333720e+00
3.803380e+01	7.333075e+00	-2.252822e+00
3.803666e+01	8.403221e+00	-2.205085e+00
3.803813e+01	9.468123e+00	-2.181930e+00
3.803813e+01	1.053169e+01	-2.181862e+00
3.803664e+01	1.159654e+01	-2.205076e+00
3.803376e+01	1.266667e+01	-2.254696e+00
3.802946e+01	1.374867e+01	-2.335354e+00
3.802404e+01	1.485749e+01	-2.454648e+00
3.801865e+01	1.603304e+01	-2.619760e+00
3.801817e+01	1.739677e+01	-2.803773e+00
3.804660e+01	1.933266e+01	-2.662640e+00
3.818053e+01	2.039345e+01	-8.395461e-02
3.816338e+01	1.947429e+01	-9.373953e-01
3.718157e+01	5.498765e-01	-9.054394e-01
3.718184e+01	-4.162695e-01	-1.134107e-01
3.705198e+01	7.085149e-01	-2.620435e+00
3.702345e+01	2.620350e+00	-2.739581e+00
3.702273e+01	3.974254e+00	-2.550179e+00
3.702679e+01	5.145273e+00	-2.384627e+00
3.703109e+01	6.252129e+00	-2.265527e+00
[...]
CELL_DATA 931
SCALARS Mu double 1
LOOKUP_TABLE default
-0.388429
-0.434839
-0.445113
-0.448285
-0.449531
-0.450112
-0.450415
-0.45058
-0.450664
-0.450691
-0.450664
-0.45058
-0.450415
-0.450112
-0.449531
-0.448285
-0.445113
-0.434839
-0.388429
-0.510131
-0.594683
-0.616974
-0.624665
-0.627855
-0.629376
-0.630171
-0.630603
-0.630824
-0.630893
-0.630827
-0.630608
-0.630178
-0.629383
-0.627864
-0.624669
-0.616953
-0.594531
-0.509768
-0.565402
-0.676259
-0.708906
-0.721304
-0.726769
-0.729481
-0.73093
-0.731726
-0.732133
-0.732261
-0.732142
-0.731746
-0.730963
-0.729527
-0.726831
-0.721339
-0.708845
-0.676044
-0.567553
-0.5965
-0.724128
-0.764294
-0.780705
-0.788374
-0.792329
-0.794491
-0.79569
-0.796305
-0.796497
-0.796315
-0.795713
-0.794527
-0.792381
-0.788441
-0.780711
-0.764093
-0.72369
-0.599882
-0.616157
-0.754595
-0.800147
-0.819703
-0.829262
-0.834366
-0.837218
-0.838823
-0.839649
-0.839907
-0.839656
-0.838838
-0.837242
-0.834395
-0.829287
-0.81961
-0.799729
-0.753863
-0.620006
-0.629462
-0.77515
-0.824573
-0.846525
-0.857613
-0.863703
-0.867176
-0.869157
-0.870184
-0.870502
-0.870184
-0.869157
-0.867173
-0.863686
-0.85756
-0.846289
-0.823906
-0.774108
-0.633433
-0.63891
-0.789621
-0.841854
-0.865629
-0.87793
-0.884838
-0.888843
-0.891155
-0.892362
-0.892735
-0.892353
-0.891135
-0.888804
-0.884767
-0.877784
-0.865235
-0.840944
-0.78829
-0.642855
-0.645861
-0.800146
-0.854446
-0.879611
-0.892871
-0.900442
-0.904899
-0.907495
-0.908859
-0.909278
-0.908838
-0.907451
-0.904819
-0.900312
-0.892624
-0.879062
-0.853314
-0.798557
-0.649722
-0.651118
-0.808004
-0.863847
-0.890074
-0.904089
-0.912208
-0.917035
-0.91987
-0.921366
-0.921824
-0.921333
-0.919799
-0.916913
-0.912002
-0.903739
-0.889378
-0.86252
-0.80619
-0.654877
-0.655184
-0.813999
-0.871014
-0.898055
-0.91267
-0.921219
-0.926358
-0.929393
-0.931
-0.93149
-0.930954
-0.929291
-0.926181
-0.920941
-0.912171
-0.897221
-0.869514
-0.811993
-0.658841
-0.658388
-0.818659
-0.87657
-0.904239
-0.919324
-0.928202
-0.933353
-0.936781
-0.938511
-0.939032
-0.938454
-0.936687
-0.933422
-0.927882
-0.918774
-0.903285
-0.874921
-0.816489
-0.661948
-0.660949
-0.822338
-0.88094
-0.909098
-0.924554
-0.933726
-0.939242
-0.942613
-0.944431
-0.944972
-0.944365
-0.94251
-0.939127
-0.933362
-0.923934
-0.908042
-0.879166
-0.820031
-0.664423
-0.663021
-0.825283
-0.884419
-0.91296
-0.928706
-0.938104
-0.943837
-0.947298
-0.94915
-0.949712
-0.94908
-0.947156
-0.943615
-0.937678
-0.92802
-0.911817
-0.882541
-0.82286
-0.666419
-0.664715
-0.827667
-0.887216
-0.916056
-0.932031
-0.941591
-0.947475
-0.951026
-0.95292
-0.953498
-0.952849
-0.950851
-0.947181
-0.941111
-0.931284
-0.91484
-0.885252
-0.825147
-0.668047
-0.666097
-0.829594
-0.889464
-0.918544
-0.934709
-0.944423
-0.950403
-0.954048
-0.955985
-0.956559
-0.955888
-0.953846
-0.950085
-0.943903
-0.933924
-0.917287
-0.887452
-0.827017
-0.669388
-0.667253
-0.831199
-0.891318
-0.920587
-0.936901
-0.946741
-0.952803
-0.956494
-0.958367
-0.959029
-0.958341
-0.955882
-0.952377
-0.946158
-0.93607
-0.919281
-0.889251
-0.828559
-0.670503
-0.668225
-0.832528
-0.892849
-0.922268
-0.938724
-0.948632
-0.95476
-0.958469
-0.960483
-0.961076
-0.960326
-0.958144
-0.954299
-0.947591
-0.937793
-0.920911
-0.890737
-0.829835
-0.671435
-0.669047
-0.833641
-0.894119
-0.923653
-0.940183
-0.950182
-0.956367
-0.960143
-0.962458
-0.963208
-0.962042
-0.959854
-0.955938
-0.949468
-0.93926
-0.922276
-0.89198
-0.830914
-0.672233
-0.669767
-0.834672
-0.895229
-0.924909
-0.941505
-0.951463
-0.957689
-0.96148
-0.963593
-0.96431
-0.963546
-0.961351
-0.957315
-0.950829
-0.940496
-0.923416
-0.893019
-0.831825
-0.672916
-0.670312
-0.835344
-0.896019
-0.925722
-0.942395
-0.952498
-0.958791
-0.962623
-0.964705
-0.965348
-0.964681
-0.962445
-0.958452
-0.951955
-0.941544
-0.924384
-0.893894
-0.832588
-0.673485
-0.670778
-0.835965
-0.896752
-0.926487
-0.943239
-0.953408
-0.959746
-0.963602
-0.965689
-0.966309
-0.965575
-0.963436
-0.959372
-0.952866
-0.942406
-0.9252
-0.894666
-0.833238
-0.673966
-0.671201
-0.836527
-0.897403
-0.927221
-0.943991
-0.954198
-0.960565
-0.964442
-0.966536
-0.96716
-0.966427
-0.964225
-0.960186
-0.953631
-0.94313
-0.925872
-0.895265
-0.833767
-0.674364
-0.671574
-0.837024
-0.897976
-0.927847
-0.944655
-0.954893
-0.961277
-0.965168
-0.967284
-0.96792
-0.96719
-0.964957
-0.96089
-0.954257
-0.943745
-0.926479
-0.895817
-0.834246
-0.674719
-0.671901
-0.837465
-0.898476
-0.928371
-0.945229
-0.955506
-0.961918
-0.965836
-0.967943
-0.9686
-0.967847
-0.965649
-0.961531
-0.954898
-0.944353
-0.927025
-0.896261
-0.834667
-0.67503
-0.672181
-0.837848
-0.89886
-0.928876
-0.945762
-0.956053
-0.96248
-0.966416
-0.968528
-0.96916
-0.968423
-0.96618
-0.96197
-0.955345
-0.944872
-0.92751
-0.896732
-0.835035
-0.675302
-0.672432
-0.838191
-0.899304
-0.929302
-0.946225
-0.956537
-0.962983
-0.966931
-0.969046
-0.969698
-0.968958
-0.966693
-0.962563
-0.955913
-0.945337
-0.927944
-0.897097
-0.835372
-0.675543
-0.67265
-0.838473
-0.899433
-0.929681
-0.946642
-0.956974
-0.963416
-0.967382
-0.969528
-0.970182
-0.969434
-0.967162
-0.963034
-0.95637
-0.945756
-0.928334
-0.897476
-0.835673
-0.675758
-0.672843
-0.838734
-0.899801
-0.930017
-0.94701
-0.957366
-0.963823
-0.96782
-0.969982
-0.970669
-0.969866
-0.967549
-0.963444
-0.956781
-0.946143
-0.928686
-0.89776
-0.835933
-0.675947
-0.673019
-0.838981
-0.900132
-0.930327
-0.947327
-0.957681
-0.964209
-0.968202
-0.970361
-0.971052
-0.970207
-0.967921
-0.963822
-0.957088
-0.946483
-0.928995
-0.898061
-0.836171
-0.676117
-0.673184
-0.839214
-0.900475
-0.930633
-0.947652
-0.958038
-0.964544
-0.968532
-0.9707
-0.971412
-0.970585
-0.968296
-0.964105
-0.957431
-0.946776
-0.929278
-0.898315
-0.836391
-0.676271
-0.673336
-0.839438
-0.900733
-0.930907
-0.947952
-0.958539
-0.96489
-0.96909
-0.971099
-0.971747
-0.971032
-0.968664
-0.964525
-0.957764
-0.947021
-0.929528
-0.898543
-0.836589
-0.676412
-0.673093
-0.832934
-0.900547
-0.931022
-0.948003
-0.95862
-0.965148
-0.969415
-0.971412
-0.972045
-0.971313
-0.969027
-0.965407
-0.958068
-0.947317
-0.929762
-0.898751
-0.83677
-0.676538
-0.673109
-0.838233
-0.900522
-0.931105
-0.948293
-0.958806
-0.965382
-0.969683
-0.971677
-0.972301
-0.971567
-0.969306
-0.965783
-0.95836
-0.947568
-0.929975
-0.898935
-0.83693
-0.676652
-0.673397
-0.839334
-0.900867
-0.931315
-0.948502
-0.959012
-0.965615
-0.970051
-0.972024
-0.97254
-0.971793
-0.969506
-0.96541
-0.958569
-0.947775
-0.930156
-0.899072
-0.83707
-0.676757
-0.673604
-0.839754
-0.901216
-0.931532
-0.948696
-0.959212
-0.965862
-0.970156
-0.972154
-0.972747
-0.971998
-0.969691
-0.965496
-0.958798
-0.947957
-0.930312
-0.899211
-0.837196
-0.676852
-0.673756
-0.839992
-0.901407
-0.931681
-0.948861
-0.959426
-0.966021
-0.970411
-0.972329
-0.972929
-0.972154
-0.969843
-0.965629
-0.958887
-0.948089
-0.930449
-0.899337
-0.83731
-0.676936
-0.673875
-0.840163
-0.901591
-0.931873
-0.949026
-0.959545
-0.966179
-0.970492
-0.972491
-0.973094
-0.972311
-0.970005
-0.965796
-0.959061
-0.948218
-0.930574
-0.899452
-0.83741
-0.677013
-0.673972
-0.840299
-0.90173
-0.932019
-0.949157
-0.959648
-0.966291
-0.970629
-0.972706
-0.973241
-0.972472
-0.970159
-0.965913
-0.959131
-0.948335
-0.93073
-0.899558
-0.837505
-0.677083
-0.674055
-0.840414
-0.901851
-0.932148
-0.949367
-0.959803
-0.966422
-0.970753
-0.972774
-0.973387
-0.972691
-0.970305
-0.966032
-0.95925
-0.948466
-0.930802
-0.899682
-0.837596
-0.677151
-0.67413
-0.840515
-0.901958
-0.932259
-0.94945
-0.959925
-0.966547
-0.97095
-0.972724
-0.973462
-0.972732
-0.970365
-0.96615
-0.959404
-0.948576
-0.930894
-0.899772
-0.837678
-0.677212
-0.674198
-0.840603
-0.90205
-0.932345
-0.94942
-0.960026
-0.966664
-0.970992
-0.972961
-0.973695
-0.972848
-0.970146
-0.966318
-0.959473
-0.948614
-0.930956
-0.899821
-0.837742
-0.677265
-0.674258
-0.84068
-0.902131
-0.932425
-0.949485
-0.960115
-0.966749
-0.971085
-0.973081
-0.973718
-0.972906
-0.970484
-0.966326
-0.959536
-0.948734
-0.93109
-0.899936
-0.83783
-0.677332
-0.67431
-0.84075
-0.902206
-0.932504
-0.949582
-0.96021
-0.967018
-0.971233
-0.973196
-0.973804
-0.973005
-0.970645
-0.966413
-0.959631
-0.948933
-0.93116
-0.900019
-0.837902
-0.677385
-0.674361
-0.840818
-0.902278
-0.932589
-0.949749
-0.960329
-0.966975
-0.971287
-0.973286
-0.973891
-0.973088
-0.970748
-0.966503
-0.959712
-0.948919
-0.931231
-0.90009
-0.837968
-0.677434
-0.674408
-0.84088
-0.902346
-0.932665
-0.949841
-0.960414
-0.967024
-0.97135
-0.973367
-0.974031
-0.97314
-0.970837
-0.966663
-0.959791
-0.948975
-0.931295
-0.900155
-0.838031
-0.67748
-0.67445
-0.840931
-0.902395
-0.932701
-0.949911
-0.960555
-0.967096
-0.971419
-0.973434
-0.974045
-0.973248
-0.970958
-0.966758
-0.959867
-0.949038
-0.931354
-0.900214
-0.838086
-0.677522
-0.674494
-0.840983
-0.902448
-0.932754
-0.949967
-0.960535
-0.967169
-0.971481
-0.973485
-0.974101
-0.973326
-0.971033
-0.966759
-0.959927
-0.949097
-0.931411
-0.900268
-0.838137
-0.677563
-0.674532
-0.841035
-0.902512
-0.932835
-0.950032
-0.96057
-0.96722
-0.971574
-0.973597
-0.974172
-0.973392
-0.971098
-0.966815
-0.959977
-0.949151
-0.931465
-0.90032
-0.838186
-0.677601

