# vtk DataFile Version 2.0
OUTPUT by 3D-VPM
ASCII
DATASET UNSTRUCTURED_GRID
POINTS 1300 double
6.299761e+01	1.146836e+00	-2.740597e+00
6.384996e+01	1.458750e+00	-1.641775e+00
6.349897e+01	2.543324e+00	-2.460535e+00
6.321438e+01	3.545081e+00	-2.004302e+00
6.345886e+01	4.468019e+00	-1.524282e+00
6.352380e+01	5.476405e+00	-1.513419e+00
6.344511e+01	6.465984e+00	-1.445443e+00
6.343552e+01	7.462799e+00	-1.353700e+00
6.343391e+01	8.473512e+00	-1.320457e+00
6.342706e+01	9.490436e+00	-1.305064e+00
6.342707e+01	1.050956e+01	-1.305071e+00
6.343392e+01	1.152647e+01	-1.320474e+00
6.343556e+01	1.253715e+01	-1.353710e+00
6.344516e+01	1.353392e+01	-1.445399e+00
6.352388e+01	1.452344e+01	-1.513294e+00
6.345913e+01	1.553183e+01	-1.523973e+00
6.321469e+01	1.645512e+01	-2.004266e+00
6.350354e+01	1.745642e+01	-2.461183e+00
6.386024e+01	1.854838e+01	-1.617012e+00
6.293437e+01	1.886655e+01	-2.797447e+00
6.237037e+01	1.198581e+00	-2.588544e+00
6.356889e+01	6.349489e-01	-9.025910e-01
6.274812e+01	2.237557e+00	-1.638268e+00
6.301098e+01	3.119444e+00	-6.477137e-01
6.324813e+01	4.229816e+00	-2.841249e-01
6.312976e+01	5.291520e+00	-2.439817e-01
6.308879e+01	6.317311e+00	-1.275705e-01
6.306677e+01	7.369983e+00	-5.665045e-02
6.304771e+01	8.422201e+00	-2.218857e-02
6.303881e+01	9.473749e+00	-4.843311e-03
6.303880e+01	1.052621e+01	-4.849951e-03
6.304768e+01	1.157775e+01	-2.220527e-02
6.306673e+01	1.262996e+01	-5.666009e-02
6.308874e+01	1.368261e+01	-1.275642e-01
6.312973e+01	1.470838e+01	-2.439369e-01
6.324821e+01	1.577009e+01	-2.840891e-01
6.301118e+01	1.688073e+01	-6.478693e-01
6.274977e+01	1.776185e+01	-1.646439e+00
6.357144e+01	1.936628e+01	-8.971824e-01
6.238717e+01	1.873652e+01	-2.586229e+00
6.168704e+01	4.799514e-01	-1.963935e+00
6.164911e+01	1.143233e+00	-1.106146e+00
6.343379e+01	7.901212e-01	-3.351269e+00
6.419030e+01	2.960812e+00	-2.828308e+00
6.435099e+01	4.000369e+00	-2.436354e+00
6.446536e+01	5.168349e+00	-2.283455e+00
6.449477e+01	6.279546e+00	-2.070682e+00
6.450542e+01	7.344638e+00	-1.938514e+00
6.451037e+01	8.408938e+00	-1.864158e+00
6.451088e+01	9.470068e+00	-1.827675e+00
6.451089e+01	1.052982e+01	-1.827703e+00
6.451038e+01	1.159092e+01	-1.864258e+00
6.450544e+01	1.265517e+01	-1.938721e+00
6.449474e+01	1.372015e+01	-2.071079e+00
6.446529e+01	1.483107e+01	-2.284158e+00
6.435111e+01	1.599838e+01	-2.437465e+00
6.419097e+01	1.703730e+01	-2.829427e+00
6.343298e+01	1.920822e+01	-3.342927e+00
6.164296e+01	1.884482e+01	-1.121799e+00
6.169733e+01	1.952782e+01	-1.959038e+00
6.046559e+01	3.655909e-01	-2.099026e+00
6.095295e+01	1.007892e+00	-9.232767e-01
6.157000e+01	1.509498e-01	-3.585193e+00
6.177275e+01	2.589609e+00	-4.097731e+00
6.202367e+01	4.045606e+00	-3.902327e+00
6.216243e+01	5.210860e+00	-3.722047e+00
6.223793e+01	6.303384e+00	-3.591979e+00
6.228306e+01	7.369302e+00	-3.502136e+00
6.230821e+01	8.423953e+00	-3.446968e+00
6.231948e+01	9.474823e+00	-3.420982e+00
6.231950e+01	1.052501e+01	-3.421035e+00
6.230828e+01	1.157586e+01	-3.447140e+00
6.228319e+01	1.263047e+01	-3.502460e+00
6.223811e+01	1.369629e+01	-3.592515e+00
6.216284e+01	1.478866e+01	-3.722959e+00
6.202462e+01	1.595364e+01	-3.903338e+00
6.177492e+01	1.740850e+01	-4.097654e+00
6.157373e+01	1.984020e+01	-3.590527e+00
6.095736e+01	1.899498e+01	-9.145750e-01
6.047460e+01	1.963495e+01	-2.095478e+00
5.958174e+01	3.261338e-01	-1.759818e+00
6.005314e+01	6.146083e-01	-4.284822e-01
6.026336e+01	-1.955569e-01	-3.417058e+00
6.029042e+01	2.365853e+00	-4.153736e+00
6.042610e+01	3.927343e+00	-4.009770e+00
6.052587e+01	5.157454e+00	-3.839364e+00
6.058749e+01	6.276449e+00	-3.708910e+00
6.062423e+01	7.354857e+00	-3.619060e+00
6.064492e+01	8.417039e+00	-3.563576e+00
6.065431e+01	9.472769e+00	-3.537280e+00
6.065433e+01	1.052700e+01	-3.537361e+00
6.064498e+01	1.158270e+01	-3.563841e+00
6.062435e+01	1.264480e+01	-3.619561e+00
6.058769e+01	1.372307e+01	-3.709732e+00
6.052635e+01	1.484182e+01	-3.840760e+00
6.042720e+01	1.607134e+01	-4.011220e+00
6.029231e+01	1.763015e+01	-4.153571e+00
6.026506e+01	2.018369e+01	-3.428490e+00
6.005547e+01	1.939167e+01	-4.201432e-01
5.958915e+01	1.967645e+01	-1.750772e+00
5.873211e+01	1.071606e-01	-1.516122e+00
5.901709e+01	7.143500e-01	-4.080140e-01
5.914245e+01	-3.369007e-01	-3.298912e+00
5.909639e+01	2.236887e+00	-4.080079e+00
5.917424e+01	3.847242e+00	-3.944700e+00
5.924298e+01	5.111039e+00	-3.770170e+00
5.929056e+01	6.250152e+00	-3.634290e+00
5.932074e+01	7.340152e+00	-3.540131e+00
5.933832e+01	8.409583e+00	-3.481844e+00
5.934645e+01	9.470480e+00	-3.454168e+00
5.934646e+01	1.052924e+01	-3.454259e+00
5.933835e+01	1.159009e+01	-3.482138e+00
5.932081e+01	1.265942e+01	-3.540678e+00
5.929066e+01	1.374923e+01	-3.635142e+00
5.924329e+01	1.488802e+01	-3.771548e+00
5.917499e+01	1.615100e+01	-3.945771e+00
5.909749e+01	1.775767e+01	-4.078768e+00
5.914239e+01	2.032336e+01	-3.310882e+00
5.901904e+01	1.928568e+01	-4.028451e-01
5.874076e+01	1.989676e+01	-1.506821e+00
5.779783e+01	1.272785e-01	-1.539796e+00
5.809298e+01	7.849416e-01	-3.409809e-01
5.805596e+01	-4.224104e-01	-3.149562e+00
5.801445e+01	2.162740e+00	-3.972849e+00
5.806171e+01	3.795664e+00	-3.836879e+00
5.810946e+01	5.077112e+00	-3.656130e+00
5.814543e+01	6.228738e+00	-3.514682e+00
5.816968e+01	7.327300e+00	-3.416406e+00
5.818436e+01	8.402765e+00	-3.355507e+00
5.819131e+01	9.468339e+00	-3.326564e+00
5.819131e+01	1.053135e+01	-3.326652e+00
5.818437e+01	1.159687e+01	-3.355788e+00
5.816970e+01	1.267223e+01	-3.416908e+00
5.814546e+01	1.377058e+01	-3.515437e+00
5.810962e+01	1.492184e+01	-3.657241e+00
5.806217e+01	1.620234e+01	-3.837175e+00
5.801509e+01	1.783097e+01	-3.970018e+00
5.805565e+01	2.040792e+01	-3.160997e+00
5.809656e+01	1.921690e+01	-3.328838e-01
5.780478e+01	1.987482e+01	-1.531701e+00
5.687365e+01	2.278905e-01	-1.424333e+00
5.713396e+01	7.998559e-01	-2.086473e-01
5.702339e+01	-4.655870e-01	-2.985522e+00
5.698226e+01	2.119207e+00	-3.861055e+00
5.701245e+01	3.763499e+00	-3.722389e+00
5.704605e+01	5.053757e+00	-3.535980e+00
5.707301e+01	6.212592e+00	-3.389896e+00
5.709208e+01	7.316917e+00	-3.288286e+00
5.710404e+01	8.397002e+00	-3.225248e+00
5.710982e+01	9.466491e+00	-3.195264e+00
5.710982e+01	1.053318e+01	-3.195341e+00
5.710404e+01	1.160262e+01	-3.225487e+00
5.709207e+01	1.268260e+01	-3.288688e+00
5.707300e+01	1.378672e+01	-3.390541e+00
5.704614e+01	1.494517e+01	-3.536783e+00
5.701276e+01	1.623438e+01	-3.721842e+00
5.698280e+01	1.787395e+01	-3.856800e+00
5.702330e+01	2.045060e+01	-2.996950e+00
5.713642e+01	1.920359e+01	-1.980851e-01
5.687933e+01	1.977303e+01	-1.412830e+00
5.594800e+01	2.390002e-01	-1.318871e+00
5.614800e+01	8.129146e-01	-1.251530e-01
5.602182e+01	-4.731051e-01	-2.860481e+00
5.597441e+01	2.096876e+00	-3.755525e+00
5.599317e+01	3.745053e+00	-3.613258e+00
5.601695e+01	5.038790e+00	-3.422347e+00
5.603707e+01	6.201260e+00	-3.272845e+00
5.605185e+01	7.309136e+00	-3.168730e+00
5.606138e+01	8.392494e+00	-3.104049e+00
5.606607e+01	9.465018e+00	-3.073252e+00
5.606607e+01	1.053465e+01	-3.073307e+00
5.606137e+01	1.160713e+01	-3.104208e+00
5.605183e+01	1.269039e+01	-3.168991e+00
5.603704e+01	1.379805e+01	-3.273247e+00
5.601702e+01	1.496015e+01	-3.422748e+00
5.599347e+01	1.625278e+01	-3.611959e+00
5.597499e+01	1.789586e+01	-3.750094e+00
5.602187e+01	2.045767e+01	-2.871714e+00
5.614946e+01	1.919107e+01	-1.137632e-01
5.595278e+01	1.976328e+01	-1.305858e+00
5.500652e+01	2.746303e-01	-1.280725e+00
5.516455e+01	8.106167e-01	-5.504306e-02
5.502562e+01	-4.592762e-01	-2.767546e+00
5.497746e+01	2.090790e+00	-3.659905e+00
5.498822e+01	3.736682e+00	-3.513063e+00
5.500501e+01	5.030285e+00	-3.318777e+00
5.502002e+01	6.193942e+00	-3.167095e+00
5.503136e+01	7.303744e+00	-3.061290e+00
5.503878e+01	8.389243e+00	-2.995282e+00
5.504252e+01	9.463933e+00	-2.963832e+00
5.504252e+01	1.053575e+01	-2.963838e+00
5.503877e+01	1.161041e+01	-2.995224e+00
5.503127e+01	1.269578e+01	-3.061000e+00
5.501992e+01	1.380534e+01	-3.166813e+00
5.500503e+01	1.496860e+01	-3.318215e+00
5.498850e+01	1.626103e+01	-3.510683e+00
5.497812e+01	1.790164e+01	-3.653493e+00
5.502582e+01	2.044345e+01	-2.778271e+00
5.516548e+01	1.919435e+01	-4.248691e-02
5.500929e+01	1.972719e+01	-1.267655e+00
5.406361e+01	3.200033e-01	-1.239249e+00
5.417642e+01	7.897317e-01	1.234836e-02
5.403254e+01	-4.310251e-01	-2.697855e+00
5.398455e+01	2.096502e+00	-3.573961e+00
5.398985e+01	3.735707e+00	-3.421971e+00
5.400167e+01	5.026714e+00	-3.225099e+00
5.401274e+01	6.190049e+00	-3.070031e+00
5.402139e+01	7.300451e+00	-2.963174e+00
5.402726e+01	8.387069e+00	-2.898375e+00
5.403019e+01	9.463194e+00	-2.866649e+00
5.403020e+01	1.053650e+01	-2.866584e+00
5.402724e+01	1.161257e+01	-2.898197e+00
5.402141e+01	1.269914e+01	-2.964702e+00
5.401274e+01	1.380935e+01	-3.071378e+00
5.400171e+01	1.497214e+01	-3.223963e+00
5.399017e+01	1.626192e+01	-3.418838e+00
5.398527e+01	1.789568e+01	-3.566724e+00
5.403293e+01	2.041486e+01	-2.707927e+00
5.417665e+01	1.921636e+01	2.590179e-02
5.406512e+01	1.968056e+01	-1.225600e+00
5.311127e+01	3.478412e-01	-1.199133e+00
5.318406e+01	7.552411e-01	7.140497e-02
5.304040e+01	-3.926158e-01	-2.648608e+00
5.299270e+01	2.110673e+00	-3.496258e+00
5.299429e+01	3.740071e+00	-3.338885e+00
5.300256e+01	5.026847e+00	-3.140221e+00
5.301084e+01	6.188665e+00	-2.983815e+00
5.301747e+01	7.298738e+00	-2.876216e+00
5.302201e+01	8.385805e+00	-2.811639e+00
5.302430e+01	9.462754e+00	-2.780015e+00
5.302430e+01	1.053694e+01	-2.779921e+00
5.302197e+01	1.161380e+01	-2.811626e+00
5.301747e+01	1.270086e+01	-2.878806e+00
5.301086e+01	1.381086e+01	-2.986038e+00
5.300266e+01	1.497207e+01	-3.139200e+00
5.299464e+01	1.625756e+01	-3.335537e+00
5.299348e+01	1.788134e+01	-3.488386e+00
5.304093e+01	2.037615e+01	-2.657967e+00
5.318366e+01	1.925192e+01	8.550186e-02
5.311227e+01	1.965267e+01	-1.185000e+00
5.214733e+01	3.698325e-01	-1.165569e+00
5.218995e+01	7.099463e-01	1.229211e-01
5.204733e+01	-3.467656e-01	-2.614821e+00
5.200060e+01	2.130912e+00	-3.425275e+00
5.199969e+01	3.748205e+00	-3.262550e+00
5.200546e+01	5.029614e+00	-3.062763e+00
5.201175e+01	6.188952e+00	-2.907911e+00
[...]
CELL_DATA 1216
SCALARS Mu double 1
LOOKUP_TABLE default
-0.388429
-0.434839
-0.445113
-0.448285
-0.449531
-0.450112
-0.450415
-0.45058
-0.450664
-0.450691
-0.450664
-0.45058
-0.450415
-0.450112
-0.449531
-0.448285
-0.445113
-0.434839
-0.388429
-0.510131
-0.594683
-0.616974
-0.624665
-0.627855
-0.629376
-0.630171
-0.630603
-0.630824
-0.630893
-0.630827
-0.630608
-0.630178
-0.629383
-0.627864
-0.624669
-0.616953
-0.594531
-0.509768
-0.565402
-0.676259
-0.708906
-0.721304
-0.726769
-0.729481
-0.73093
-0.731726
-0.732133
-0.732261
-0.732142
-0.731746
-0.730963
-0.729527
-0.726831
-0.721339
-0.708845
-0.676044
-0.567553
-0.5965
-0.724128
-0.764294
-0.780705
-0.788374
-0.792329
-0.794491
-0.79569
-0.796305
-0.796497
-0.796315
-0.795713
-0.794527
-0.792381
-0.788441
-0.780711
-0.764093
-0.72369
-0.599882
-0.616157
-0.754595
-0.800147
-0.819703
-0.829262
-0.834366
-0.837218
-0.838823
-0.839649
-0.839907
-0.839656
-0.838838
-0.837242
-0.834395
-0.829287
-0.81961
-0.799729
-0.753863
-0.620006
-0.629462
-0.77515
-0.824573
-0.846525
-0.857613
-0.863703
-0.867176
-0.869157
-0.870184
-0.870502
-0.870184
-0.869157
-0.867173
-0.863686
-0.85756
-0.846289
-0.823906
-0.774108
-0.633433
-0.63891
-0.789621
-0.841854
-0.865629
-0.87793
-0.884838
-0.888843
-0.891155
-0.892362
-0.892735
-0.892353
-0.891135
-0.888804
-0.884767
-0.877784
-0.865235
-0.840944
-0.78829
-0.642855
-0.645861
-0.800146
-0.854446
-0.879611
-0.892871
-0.900442
-0.904899
-0.907495
-0.908859
-0.909278
-0.908838
-0.907451
-0.904819
-0.900312
-0.892624
-0.879062
-0.853314
-0.798557
-0.649722
-0.651118
-0.808004
-0.863847
-0.890074
-0.904089
-0.912208
-0.917035
-0.91987
-0.921366
-0.921824
-0.921333
-0.919799
-0.916913
-0.912002
-0.903739
-0.889378
-0.86252
-0.80619
-0.654877
-0.655184
-0.813999
-0.871014
-0.898055
-0.91267
-0.921219
-0.926358
-0.929393
-0.931
-0.93149
-0.930954
-0.929291
-0.926181
-0.920941
-0.912171
-0.897221
-0.869514
-0.811993
-0.658841
-0.658388
-0.818659
-0.87657
-0.904239
-0.919324
-0.928202
-0.933353
-0.936781
-0.938511
-0.939032
-0.938454
-0.936687
-0.933422
-0.927882
-0.918774
-0.903285
-0.874921
-0.816489
-0.661948
-0.660949
-0.822338
-0.88094
-0.909098
-0.924554
-0.933726
-0.939242
-0.942613
-0.944431
-0.944972
-0.944365
-0.94251
-0.939127
-0.933362
-0.923934
-0.908042
-0.879166
-0.820031
-0.664423
-0.663021
-0.825283
-0.884419
-0.91296
-0.928706
-0.938104
-0.943837
-0.947298
-0.94915
-0.949712
-0.94908
-0.947156
-0.943615
-0.937678
-0.92802
-0.911817
-0.882541
-0.82286
-0.666419
-0.664715
-0.827667
-0.887216
-0.916056
-0.932031
-0.941591
-0.947475
-0.951026
-0.95292
-0.953498
-0.952849
-0.950851
-0.947181
-0.941111
-0.931284
-0.91484
-0.885252
-0.825147
-0.668047
-0.666097
-0.829594
-0.889464
-0.918544
-0.934709
-0.944423
-0.950403
-0.954048
-0.955985
-0.956559
-0.955888
-0.953846
-0.950085
-0.943903
-0.933924
-0.917287
-0.887452
-0.827017
-0.669388
-0.667253
-0.831199
-0.891318
-0.920587
-0.936901
-0.946741
-0.952803
-0.956494
-0.958367
-0.959029
-0.958341
-0.955882
-0.952377
-0.946158
-0.93607
-0.919281
-0.889251
-0.828559
-0.670503
-0.668225
-0.832528
-0.892849
-0.922268
-0.938724
-0.948632
-0.95476
-0.958469
-0.960483
-0.961076
-0.960326
-0.958144
-0.954299
-0.947591
-0.937793
-0.920911
-0.890737
-0.829835
-0.671435
-0.669047
-0.833641
-0.894119
-0.923653
-0.940183
-0.950182
-0.956367
-0.960143
-0.962458
-0.963208
-0.962042
-0.959854
-0.955938
-0.949468
-0.93926
-0.922276
-0.89198
-0.830914
-0.672233
-0.669767
-0.834672
-0.895229
-0.924909
-0.941505
-0.951463
-0.957689
-0.96148
-0.963593
-0.96431
-0.963546
-0.961351
-0.957315
-0.950829
-0.940496
-0.923416
-0.893019
-0.831825
-0.672916
-0.670312
-0.835344
-0.896019
-0.925722
-0.942395
-0.952498
-0.958791
-0.962623
-0.964705
-0.965348
-0.964681
-0.962445
-0.958452
-0.951955
-0.941544
-0.924384
-0.893894
-0.832588
-0.673485
-0.670778
-0.835965
-0.896752
-0.926487
-0.943239
-0.953408
-0.959746
-0.963602
-0.965689
-0.966309
-0.965575
-0.963436
-0.959372
-0.952866
-0.942406
-0.9252
-0.894666
-0.833238
-0.673966
-0.671201
-0.836527
-0.897403
-0.927221
-0.943991
-0.954198
-0.960565
-0.964442
-0.966536
-0.96716
-0.966427
-0.964225
-0.960186
-0.953631
-0.94313
-0.925872
-0.895265
-0.833767
-0.674364
-0.671574
-0.837024
-0.897976
-0.927847
-0.944655
-0.954893
-0.961277
-0.965168
-0.967284
-0.96792
-0.96719
-0.964957
-0.96089
-0.954257
-0.943745
-0.926479
-0.895817
-0.834246
-0.674719
-0.671901
-0.837465
-0.898476
-0.928371
-0.945229
-0.955506
-0.961918
-0.965836
-0.967943
-0.9686
-0.967847
-0.965649
-0.961531
-0.954898
-0.944353
-0.927025
-0.896261
-0.834667
-0.67503
-0.672181
-0.837848
-0.89886
-0.928876
-0.945762
-0.956053
-0.96248
-0.966416
-0.968528
-0.96916
-0.968423
-0.96618
-0.96197
-0.955345
-0.944872
-0.92751
-0.896732
-0.835035
-0.675302
-0.672432
-0.838191
-0.899304
-0.929302
-0.946225
-0.956537
-0.962983
-0.966931
-0.969046
-0.969698
-0.968958
-0.966693
-0.962563
-0.955913
-0.945337
-0.927944
-0.897097
-0.835372
-0.675543
-0.67265
-0.838473
-0.899433
-0.929681
-0.946642
-0.956974
-0.963416
-0.967382
-0.969528
-0.970182
-0.969434
-0.967162
-0.963034
-0.95637
-0.945756
-0.928334
-0.897476
-0.835673
-0.675758
-0.672843
-0.838734
-0.899801
-0.930017
-0.94701
-0.957366
-0.963823
-0.96782
-0.969982
-0.970669
-0.969866
-0.967549
-0.963444
-0.956781
-0.946143
-0.928686
-0.89776
-0.835933
-0.675947
-0.673019
-0.838981
-0.900132
-0.930327
-0.947327
-0.957681
-0.964209
-0.968202
-0.970361
-0.971052
-0.970207
-0.967921
-0.963822
-0.957088
-0.946483
-0.928995
-0.898061
-0.836171
-0.676117
-0.673184
-0.839214
-0.900475
-0.930633
-0.947652
-0.958038
-0.964544
-0.968532
-0.9707
-0.971412
-0.970585
-0.968296
-0.964105
-0.957431
-0.946776
-0.929278
-0.898315
-0.836391
-0.676271
-0.673336
-0.839438
-0.900733
-0.930907
-0.947952
-0.958539
-0.96489
-0.96909
-0.971099
-0.971747
-0.971032
-0.968664
-0.964525
-0.957764
-0.947021
-0.929528
-0.898543
-0.836589
-0.676412
-0.673093
-0.832934
-0.900547
-0.931022
-0.948003
-0.95862
-0.965148
-0.969415
-0.971412
-0.972045
-0.971313
-0.969027
-0.965407
-0.958068
-0.947317
-0.929762
-0.898751
-0.83677
-0.676538
-0.673109
-0.838233
-0.900522
-0.931105
-0.948293
-0.958806
-0.965382
-0.969683
-0.971677
-0.972301
-0.971567
-0.969306
-0.965783
-0.95836
-0.947568
-0.929975
-0.898935
-0.83693
-0.676652
-0.673397
-0.839334
-0.900867
-0.931315
-0.948502
-0.959012
-0.965615
-0.970051
-0.972024
-0.97254
-0.971793
-0.969506
-0.96541
-0.958569
-0.947775
-0.930156
-0.899072
-0.83707
-0.676757
-0.673604
-0.839754
-0.901216
-0.931532
-0.948696
-0.959212
-0.965862
-0.970156
-0.972154
-0.972747
-0.971998
-0.969691
-0.965496
-0.958798
-0.947957
-0.930312
-0.899211
-0.837196
-0.676852
-0.673756
-0.839992
-0.901407
-0.931681
-0.948861
-0.959426
-0.966021
-0.970411
-0.972329
-0.972929
-0.972154
-0.969843
-0.965629
-0.958887
-0.948089
-0.930449
-0.899337
-0.83731
-0.676936
-0.673875
-0.840163
-0.901591
-0.931873
-0.949026
-0.959545
-0.966179
-0.970492
-0.972491
-0.973094
-0.972311
-0.970005
-0.965796
-0.959061
-0.948218
-0.930574
-0.899452
-0.83741
-0.677013
-0.673972
-0.840299
-0.90173
-0.932019
-0.949157
-0.959648
-0.966291
-0.970629
-0.972706
-0.973241
-0.972472
-0.970159
-0.965913
-0.959131
-0.948335
-0.93073
-0.899558
-0.837505
-0.677083
-0.674055
-0.840414
-0.901851
-0.932148
-0.949367
-0.959803
-0.966422
-0.970753
-0.972774
-0.973387
-0.972691
-0.970305
-0.966032
-0.95925
-0.948466
-0.930802
-0.899682
-0.837596
-0.677151
-0.67413
-0.840515
-0.901958
-0.932259
-0.94945
-0.959925
-0.966547
-0.97095
-0.972724
-0.973462
-0.972732
-0.970365
-0.96615
-0.959404
-0.948576
-0.930894
-0.899772
-0.837678
-0.677212
-0.674198
-0.840603
-0.90205
-0.932345
-0.94942
-0.960026
-0.966664
-0.970992
-0.972961
-0.973695
-0.972848
-0.970146
-0.966318
-0.959473
-0.948614
-0.930956
-0.899821
-0.837742
-0.677265
-0.674258
-0.84068
-0.902131
-0.932425
-0.949485
-0.960115
-0.966749
-0.971085
-0.973081
-0.973718
-0.972906
-0.970484
-0.966326
-0.959536
-0.948734
-0.93109
-0.899936
-0.83783
-0.677332
-0.67431
-0.84075
-0.902206
-0.932504
-0.949582
-0.96021
-0.967018
-0.971233
-0.973196
-0.973804
-0.973005
-0.970645
-0.966413
-0.959631
-0.948933
-0.93116
-0.900019
-0.837902
-0.677385
-0.674361
-0.840818
-0.902278
-0.932589
-0.949749
-0.960329
-0.966975
-0.971287
-0.973286
-0.973891
-0.973088
-0.970748
-0.966503
-0.959712
-0.948919
-0.931231
-0.90009
-0.837968
-0.677434
-0.674408
-0.84088
-0.902346
-0.932665
-0.949841
-0.960414
-0.967024
-0.97135
-0.973367
-0.974031
-0.97314
-0.970837
-0.966663
-0.959791
-0.948975
-0.931295
-0.900155
-0.838031
-0.67748
-0.67445
-0.840931
-0.902395
-0.932701
-0.949911
-0.960555
-0.967096
-0.971419
-0.973434
-0.974045
-0.973248
-0.970958
-0.966758
-0.959867
-0.949038
-0.931354
-0.900214
-0.838086
-0.677522
-0.674494
-0.840983
-0.902448
-0.932754
-0.949967
-0.960535
-0.967169
-0.971481
-0.973485
-0.974101
-0.973326
-0.971033
-0.966759
-0.959927
-0.949097
-0.931411
-0.900268
-0.838137
-0.677563
-0.674532
-0.841035
-0.902512
-0.932835
-0.950032
-0.96057
-0.96722
-0.971574
-0.973597
-0.974172
-0.973392
-0.971098
-0.966815
-0.959977
-0.949151
-0.931465
-0.90032
-0.838186
-0.677601
-0.674563
-0.841077
-0.902561
-0.932881
-0.949981
-0.960609
-0.967262
-0.971636
-0.973667
-0.974236
-0.973453
-0.971158
-0.966875
-0.960066
-0.949221
-0.931526
-0.90037
-0.838231
-0.677636
-0.674597
-0.841121
-0.902607
-0.932929
-0.950109
-0.960653
-0.967309
-0.971687
-0.973721
-0.974284
-0.973456
-0.97113
-0.966912
-0.960116
-0.949275
-0.931577
-0.900417
-0.838273
-0.677668
-0.674628
-0.841162
-0.90265
-0.932977
-0.95017
-0.960703
-0.967357
-0.971735
-0.973766
-0.974328
-0.973492
-0.971168
-0.967092
-0.960134
-0.949308
-0.931614
-0.900459
-0.838313
-0.677699
-0.674656
-0.8412
-0.902692
-0.933023
-0.950252
-0.960752
-0.967403
-0.971781
-0.973811
-0.974371
-0.973531
-0.971212
-0.967153
-0.960184
-0.949349
-0.931655
-0.900498
-0.83835
-0.677728
-0.674684
-0.841236
-0.902732
-0.933066
-0.950302
-0.960796
-0.967442
-0.971794
-0.973849
-0.974408
-0.973574
-0.971267
-0.967281
-0.960261
-0.949395
-0.931694
-0.900536
-0.838385
-0.677755
-0.67471
-0.84127
-0.90277
-0.933108
-0.950345
-0.960838
-0.967482
-0.971834
-0.973904
-0.974506
-0.973629
-0.97135
-0.967322
-0.960292
-0.949434
-0.931732
-0.900572
-0.838419
-0.677781
-0.674735
-0.841302
-0.902806
-0.933151
-0.950391
-0.960933
-0.967553
-0.971876
-0.973897
-0.974498
-0.973663
-0.97135
-0.967205
-0.960267
-0.949464
-0.931766
-0.900606
-0.83845
-0.677805
-0.674759
-0.841335
-0.902839
-0.933187
-0.950428
-0.960939
-0.967594
-0.971912
-0.973932
-0.974602
-0.973733
-0.971418
-0.967176
-0.960304
-0.949493
-0.931798
-0.900637
-0.838479
-0.677828
-0.674781
-0.841364
-0.90287
-0.933216
-0.950411
-0.960962
-0.967628
-0.971945
-0.973957
-0.974573
-0.973748
-0.971466
-0.967192
-0.960335
-0.949592
-0.931833
-0.900668
-0.838507
-0.67785
-0.674804
-0.84139
-0.902899
-0.933245
-0.950432
-0.96099
-0.967662
-0.972023
-0.973995
-0.974628
-0.973778
-0.971495
-0.96722
-0.960368
-0.949636
-0.931868
-0.900698
-0.838534
-0.677869
-0.674824
-0.841417
-0.902924
-0.933269
-0.950456
-0.961015
-0.96769
-0.97206
-0.97402
-0.97463
-0.973798
-0.971486
-0.967243
-0.960397
-0.949669
-0.931899
-0.900726
-0.838559
-0.677889
-0.674839
-0.841437
-0.902946
-0.933288
-0.950481
-0.961041
-0.967719
-0.972119
-0.974049
-0.974651
-0.973817
-0.971502
-0.967263
-0.960396
-0.949697
-0.931927
-0.900752
-0.838583
-0.677907
-0.674856
-0.841458
-0.90297
-0.933315
-0.950521
-0.961071
-0.96775
-0.972159
-0.974092
-0.974728
-0.973845
-0.971524
-0.967276
-0.960413
-0.949721
-0.931953
-0.900777
-0.838606
-0.677925
-0.674876
-0.841481
-0.902995
-0.93334
-0.95055
-0.961098
-0.967774
-0.97216
-0.974122
-0.974765
-0.973875
-0.971551
-0.967298
-0.960435
-0.949745
-0.931976
-0.9008
-0.838627
-0.677942
-0.67489
-0.841502
-0.903017
-0.933365
-0.950565
-0.961167
-0.967803
-0.972182
-0.974148
-0.974794
-0.973902
-0.971577
-0.967322
-0.960459
-0.949779
-0.932001
-0.900822
-0.838648
-0.677958

