# vtk DataFile Version 2.0
OUTPUT by 3D-VPM
ASCII
DATASET UNSTRUCTURED_GRID
POINTS 320 double
1.502896e+01	1.924310e-01	-2.453850e-01
1.505538e+01	1.086142e+00	-6.448171e-01
1.492808e+01	2.150109e+00	-4.860490e-01
1.493263e+01	3.183940e+00	-3.818635e-01
1.492672e+01	4.226148e+00	-3.328934e-01
1.492075e+01	5.272917e+00	-3.019651e-01
1.491722e+01	6.322028e+00	-2.827072e-01
1.491511e+01	7.372313e+00	-2.708347e-01
1.491393e+01	8.423196e+00	-2.639376e-01
1.491346e+01	9.474308e+00	-2.607415e-01
1.491345e+01	1.052569e+01	-2.607392e-01
1.491392e+01	1.157680e+01	-2.639308e-01
1.491510e+01	1.262768e+01	-2.708231e-01
1.491721e+01	1.367797e+01	-2.826903e-01
1.492074e+01	1.472708e+01	-3.019429e-01
1.492672e+01	1.577384e+01	-3.328649e-01
1.493266e+01	1.681603e+01	-3.818230e-01
1.492817e+01	1.784987e+01	-4.859673e-01
1.505552e+01	1.891396e+01	-6.446880e-01
1.502900e+01	1.980786e+01	-2.451727e-01
1.415816e+01	8.364735e-02	-6.858181e-01
1.441301e+01	7.669221e-01	-1.510410e+00
1.447630e+01	2.079564e+00	-1.455319e+00
1.452844e+01	3.158834e+00	-1.354830e+00
1.454633e+01	4.213521e+00	-1.296060e+00
1.455359e+01	5.265640e+00	-1.260534e+00
1.455698e+01	6.317487e+00	-1.238835e+00
1.455867e+01	7.369486e+00	-1.225616e+00
1.455950e+01	8.421623e+00	-1.218004e+00
1.455994e+01	9.473797e+00	-1.214517e+00
1.455994e+01	1.052620e+01	-1.214514e+00
1.455950e+01	1.157838e+01	-1.217997e+00
1.455867e+01	1.263051e+01	-1.225603e+00
1.455698e+01	1.368251e+01	-1.238814e+00
1.455359e+01	1.473435e+01	-1.260509e+00
1.454633e+01	1.578645e+01	-1.296035e+00
1.452848e+01	1.684112e+01	-1.354789e+00
1.447644e+01	1.792035e+01	-1.455081e+00
1.441335e+01	1.923257e+01	-1.509707e+00
1.415793e+01	1.991564e+01	-6.850092e-01
1.311414e+01	1.486657e-01	-6.101343e-01
1.315328e+01	6.369324e-01	-1.592291e+00
1.315127e+01	2.040377e+00	-1.571941e+00
1.317652e+01	3.149349e+00	-1.472344e+00
1.319073e+01	4.211755e+00	-1.408540e+00
1.319742e+01	5.265606e+00	-1.369949e+00
1.320068e+01	6.317825e+00	-1.346466e+00
1.320234e+01	7.369811e+00	-1.332207e+00
1.320318e+01	8.421837e+00	-1.324023e+00
1.320360e+01	9.473872e+00	-1.320302e+00
1.320360e+01	1.052612e+01	-1.320309e+00
1.320318e+01	1.157816e+01	-1.324044e+00
1.320235e+01	1.263018e+01	-1.332247e+00
1.320069e+01	1.368217e+01	-1.346527e+00
1.319743e+01	1.473438e+01	-1.370055e+00
1.319075e+01	1.578821e+01	-1.408660e+00
1.317660e+01	1.685060e+01	-1.472297e+00
1.315124e+01	1.795942e+01	-1.571006e+00
1.315438e+01	1.936370e+01	-1.593576e+00
1.311394e+01	1.985174e+01	-6.117137e-01
1.213273e+01	1.434875e-01	-5.207496e-01
1.209964e+01	6.190818e-01	-1.520347e+00
1.207740e+01	2.027345e+00	-1.511667e+00
1.209163e+01	3.143221e+00	-1.411721e+00
1.210256e+01	4.209354e+00	-1.346803e+00
1.210869e+01	5.264804e+00	-1.307315e+00
1.211203e+01	6.317628e+00	-1.283236e+00
1.211385e+01	7.369814e+00	-1.268604e+00
1.211480e+01	8.421878e+00	-1.260209e+00
1.211527e+01	9.473890e+00	-1.256394e+00
1.211527e+01	1.052610e+01	-1.256410e+00
1.211480e+01	1.157811e+01	-1.260259e+00
1.211385e+01	1.263018e+01	-1.268699e+00
1.211203e+01	1.368236e+01	-1.283394e+00
1.210869e+01	1.473518e+01	-1.307581e+00
1.210257e+01	1.579062e+01	-1.347087e+00
1.209172e+01	1.685673e+01	-1.411554e+00
1.207748e+01	1.797215e+01	-1.509775e+00
1.210041e+01	1.938385e+01	-1.524966e+00
1.213238e+01	1.985935e+01	-5.256854e-01
1.115079e+01	1.409185e-01	-4.658981e-01
1.109192e+01	6.530894e-01	-1.433089e+00
1.106147e+01	2.028492e+00	-1.418144e+00
1.106882e+01	3.141004e+00	-1.320350e+00
1.107668e+01	4.207657e+00	-1.257010e+00
1.108177e+01	5.263872e+00	-1.218412e+00
1.108482e+01	6.317176e+00	-1.194801e+00
1.108659e+01	7.369612e+00	-1.180410e+00
1.108757e+01	8.421797e+00	-1.172139e+00
1.108806e+01	9.473868e+00	-1.168374e+00
1.108806e+01	1.052612e+01	-1.168388e+00
1.108757e+01	1.157819e+01	-1.172186e+00
1.108658e+01	1.263038e+01	-1.180502e+00
1.108480e+01	1.368281e+01	-1.194956e+00
1.108174e+01	1.473611e+01	-1.218677e+00
1.107668e+01	1.579232e+01	-1.257244e+00
1.106893e+01	1.685893e+01	-1.319840e+00
1.106170e+01	1.797072e+01	-1.415254e+00
1.109182e+01	1.934992e+01	-1.438501e+00
1.115026e+01	1.986193e+01	-4.719718e-01
1.016315e+01	1.367903e-01	-4.263843e-01
1.009441e+01	7.077837e-01	-1.345912e+00
1.006178e+01	2.037493e+00	-1.320387e+00
1.006512e+01	3.141733e+00	-1.227363e+00
1.007059e+01	4.206974e+00	-1.167567e+00
1.007455e+01	5.263185e+00	-1.131116e+00
1.007713e+01	6.316708e+00	-1.108768e+00
1.007873e+01	7.369336e+00	-1.095106e+00
1.007964e+01	8.421657e+00	-1.087239e+00
1.008011e+01	9.473826e+00	-1.083650e+00
1.008011e+01	1.052616e+01	-1.083661e+00
1.007964e+01	1.157833e+01	-1.087275e+00
1.007872e+01	1.263065e+01	-1.095176e+00
1.007712e+01	1.368328e+01	-1.108882e+00
1.007453e+01	1.473680e+01	-1.131307e+00
1.007059e+01	1.579301e+01	-1.167639e+00
1.006526e+01	1.685819e+01	-1.226464e+00
1.006214e+01	1.796162e+01	-1.316792e+00
1.009396e+01	1.929486e+01	-1.351049e+00
1.016257e+01	1.986586e+01	-4.323499e-01
9.170629e+00	1.279627e-01	-3.993311e-01
9.098632e+00	7.704042e-01	-1.258948e+00
9.066402e+00	2.050020e+00	-1.223952e+00
9.067556e+00	3.144252e+00	-1.137973e+00
9.071356e+00	4.207157e+00	-1.083294e+00
9.074372e+00	5.262862e+00	-1.049982e+00
9.076451e+00	6.316363e+00	-1.029525e+00
9.077800e+00	7.369084e+00	-1.016984e+00
9.078600e+00	8.421511e+00	-1.009749e+00
9.079024e+00	9.473779e+00	-1.006443e+00
9.079023e+00	1.052621e+01	-1.006449e+00
9.078598e+00	1.157848e+01	-1.009770e+00
9.077796e+00	1.263090e+01	-1.017023e+00
9.076445e+00	1.368362e+01	-1.029588e+00
9.074365e+00	1.473712e+01	-1.050079e+00
9.071384e+00	1.579282e+01	-1.083190e+00
9.067745e+00	1.685566e+01	-1.136775e+00
9.066864e+00	1.794913e+01	-1.219988e+00
9.098096e+00	1.923173e+01	-1.263510e+00
9.170036e+00	1.987437e+01	-4.049581e-01
8.174674e+00	1.162280e-01	-3.820645e-01
8.102428e+00	8.341457e-01	-1.169962e+00
8.072014e+00	2.063488e+00	-1.128991e+00
8.072057e+00	3.147593e+00	-1.051993e+00
8.074745e+00	4.207893e+00	-1.003664e+00
8.077026e+00	5.262851e+00	-9.742674e-01
8.078660e+00	6.316174e+00	-9.561968e-01
8.079756e+00	7.368901e+00	-9.450942e-01
8.080423e+00	8.421391e+00	-9.386750e-01
8.080789e+00	9.473738e+00	-9.357360e-01
8.080789e+00	1.052625e+01	-9.357373e-01
8.080422e+00	1.157860e+01	-9.386798e-01
8.079756e+00	1.263109e+01	-9.451024e-01
8.078658e+00	1.368382e+01	-9.562169e-01
8.077029e+00	1.473713e+01	-9.742834e-01
8.074797e+00	1.579208e+01	-1.003415e+00
8.072277e+00	1.685232e+01	-1.050626e+00
8.072532e+00	1.793576e+01	-1.124961e+00
8.101903e+00	1.916747e+01	-1.173880e+00
8.174087e+00	1.988568e+01	-3.872496e-01
7.176475e+00	1.032137e-01	-3.720151e-01
7.105573e+00	8.947045e-01	-1.076995e+00
7.077872e+00	2.076379e+00	-1.034497e+00
7.077419e+00	3.151078e+00	-9.680954e-01
7.079375e+00	4.208881e+00	-9.270125e-01
7.081104e+00	5.263046e+00	-9.021011e-01
7.082369e+00	6.316110e+00	-8.867888e-01
7.083235e+00	7.368791e+00	-8.773589e-01
7.083770e+00	8.421308e+00	-8.718914e-01
7.084077e+00	9.473708e+00	-8.693831e-01
7.084078e+00	1.052628e+01	-8.693792e-01
7.083772e+00	1.157868e+01	-8.718790e-01
7.083238e+00	1.263120e+01	-8.773369e-01
7.082373e+00	1.368387e+01	-8.867602e-01
7.081120e+00	1.473693e+01	-9.020414e-01
7.079444e+00	1.579109e+01	-9.266664e-01
7.077655e+00	1.684883e+01	-9.666820e-01
7.078404e+00	1.792300e+01	-1.030644e+00
7.105096e+00	1.910647e+01	-1.080276e+00
7.175914e+00	1.989824e+01	-3.766915e-01
6.176881e+00	9.013460e-02	-3.670351e-01
6.108412e+00	9.491143e-01	-9.786978e-01
6.084092e+00	2.087787e+00	-9.392162e-01
6.083492e+00	3.154265e+00	-8.847135e-01
6.084953e+00	4.209886e+00	-8.514763e-01
6.086263e+00	5.263325e+00	-8.314112e-01
6.087226e+00	6.316128e+00	-8.190966e-01
6.087893e+00	7.368739e+00	-8.114879e-01
6.088307e+00	8.421258e+00	-8.070479e-01
6.088559e+00	9.473689e+00	-8.050071e-01
6.088560e+00	1.052630e+01	-8.049966e-01
6.088315e+00	1.157874e+01	-8.070091e-01
6.087906e+00	1.263125e+01	-8.114068e-01
6.087243e+00	1.368385e+01	-8.189906e-01
6.086299e+00	1.473665e+01	-8.312355e-01
6.085039e+00	1.579008e+01	-8.510307e-01
6.083730e+00	1.684565e+01	-8.833500e-01
6.084607e+00	1.791174e+01	-9.357247e-01
6.107998e+00	1.905170e+01	-9.813805e-01
6.176364e+00	1.991088e+01	-3.711464e-01
5.176507e+00	7.782057e-02	-3.651258e-01
5.111546e+00	9.951467e-01	-8.740300e-01
5.091208e+00	2.097142e+00	-8.416793e-01
5.090661e+00	3.156875e+00	-8.000156e-01
5.091763e+00	4.210746e+00	-7.749310e-01
5.092741e+00	5.263594e+00	-7.598442e-01
5.093477e+00	6.316169e+00	-7.504654e-01
5.093966e+00	7.368739e+00	-7.447360e-01
5.094241e+00	8.421234e+00	-7.415059e-01
5.094439e+00	9.473678e+00	-7.399643e-01
5.094442e+00	1.052632e+01	-7.399462e-01
5.094249e+00	1.157876e+01	-7.414532e-01
5.093951e+00	1.263127e+01	-7.447690e-01
5.093472e+00	1.368379e+01	-7.504584e-01
5.092785e+00	1.473638e+01	-7.596241e-01
5.091855e+00	1.578922e+01	-7.744649e-01
5.090887e+00	1.684305e+01	-7.987775e-01
5.091679e+00	1.790253e+01	-8.386927e-01
5.111203e+00	1.900540e+01	-8.761652e-01
5.176050e+00	1.992280e+01	-3.686172e-01
4.175891e+00	6.670684e-02	-3.641188e-01
4.115958e+00	1.030942e+00	-7.617559e-01
4.100245e+00	2.104047e+00	-7.398298e-01
4.099867e+00	3.158736e+00	-7.114405e-01
4.100667e+00	4.211360e+00	-6.944712e-01
4.101347e+00	5.263802e+00	-6.842811e-01
4.101842e+00	6.316244e+00	-6.778838e-01
4.102169e+00	7.368719e+00	-6.739843e-01
4.102350e+00	8.421223e+00	-6.718393e-01
4.102491e+00	9.473680e+00	-6.707985e-01
4.102491e+00	1.052632e+01	-6.707791e-01
4.102352e+00	1.157877e+01	-6.717951e-01
4.102154e+00	1.263127e+01	-6.740619e-01
4.101840e+00	1.368374e+01	-6.779113e-01
4.101387e+00	1.473617e+01	-6.840808e-01
4.100752e+00	1.578861e+01	-6.940541e-01
4.100067e+00	1.684120e+01	-7.103963e-01
4.100647e+00	1.789576e+01	-7.374613e-01
4.115690e+00	1.896943e+01	-7.634011e-01
4.175515e+00	1.993359e+01	-3.669375e-01
3.175802e+00	5.685842e-02	-3.611135e-01
3.123721e+00	1.054763e+00	-6.395213e-01
3.113406e+00	2.108232e+00	-6.298872e-01
3.113224e+00	3.159783e+00	-6.143797e-01
3.113702e+00	4.211696e+00	-6.050184e-01
3.114077e+00	5.263916e+00	-5.993635e-01
3.114331e+00	6.316278e+00	-5.958446e-01
3.114495e+00	7.368736e+00	-5.936447e-01
3.114588e+00	8.421212e+00	-5.923736e-01
3.114687e+00	9.473672e+00	-5.917864e-01
3.114690e+00	1.052632e+01	-5.917726e-01
3.114597e+00	1.157878e+01	-5.923383e-01
3.114499e+00	1.263126e+01	-5.936116e-01
3.114342e+00	1.368370e+01	-5.957629e-01
3.114113e+00	1.473606e+01	-5.991804e-01
3.113773e+00	1.578827e+01	-6.046678e-01
3.113381e+00	1.684017e+01	-6.135876e-01
3.113709e+00	1.789167e+01	-6.282216e-01
3.123538e+00	1.894549e+01	-6.407323e-01
3.175525e+00	1.994321e+01	-3.632105e-01
2.178608e+00	4.719363e-02	-3.480617e-01
2.140926e+00	1.065350e+00	-5.006606e-01
2.136778e+00	2.109949e+00	-5.020882e-01
2.136692e+00	3.160217e+00	-4.974740e-01
2.136817e+00	4.211847e+00	-4.944272e-01
2.136906e+00	5.263978e+00	-4.925114e-01
2.136956e+00	6.316303e+00	-4.912948e-01
2.136988e+00	7.368735e+00	-4.905231e-01
2.137005e+00	8.421221e+00	-4.900636e-01
2.137062e+00	9.473666e+00	-4.898542e-01
2.137067e+00	1.052632e+01	-4.898472e-01
2.137015e+00	1.157878e+01	-4.900373e-01
2.136998e+00	1.263126e+01	-4.904765e-01
2.136971e+00	1.368368e+01	-4.912145e-01
2.136930e+00	1.473600e+01	-4.923746e-01
2.136861e+00	1.578813e+01	-4.941861e-01
2.136782e+00	1.683974e+01	-4.969911e-01
2.136944e+00	1.789002e+01	-5.011871e-01
2.140848e+00	1.893485e+01	-5.014825e-01
2.178456e+00	1.995273e+01	-3.493526e-01
1.201057e+00	0.000000e+00	-3.090170e-01
1.201057e+00	1.052632e+00	-3.090170e-01
1.201057e+00	2.105263e+00	-3.090170e-01
1.201057e+00	3.157895e+00	-3.090170e-01
1.201057e+00	4.210526e+00	-3.090170e-01
1.201057e+00	5.263158e+00	-3.090170e-01
1.201057e+00	6.315789e+00	-3.090170e-01
1.201057e+00	7.368421e+00	-3.090170e-01
1.201057e+00	8.421053e+00	-3.090170e-01
1.201057e+00	9.473684e+00	-3.090170e-01
1.201057e+00	1.052632e+01	-3.090170e-01
1.201057e+00	1.157895e+01	-3.090170e-01
1.201057e+00	1.263158e+01	-3.090170e-01
1.201057e+00	1.368421e+01	-3.090170e-01
1.201057e+00	1.473684e+01	-3.090170e-01
1.201057e+00	1.578947e+01	-3.090170e-01
1.201057e+00	1.684211e+01	-3.090170e-01
1.201057e+00	1.789474e+01	-3.090170e-01
1.201057e+00	1.894737e+01	-3.090170e-01
1.201057e+00	2.000000e+01	-3.090170e-01
9.510565e-01	0.000000e+00	-3.090170e-01
9.510565e-01	1.052632e+00	-3.090170e-01
9.510565e-01	2.105263e+00	-3.090170e-01
9.510565e-01	3.157895e+00	-3.090170e-01
9.510565e-01	4.210526e+00	-3.090170e-01
9.510565e-01	5.263158e+00	-3.090170e-01
9.510565e-01	6.315789e+00	-3.090170e-01
9.510565e-01	7.368421e+00	-3.090170e-01
9.510565e-01	8.421053e+00	-3.090170e-01
9.510565e-01	9.473684e+00	-3.090170e-01
9.510565e-01	1.052632e+01	-3.090170e-01
9.510565e-01	1.157895e+01	-3.090170e-01
9.510565e-01	1.263158e+01	-3.090170e-01
9.510565e-01	1.368421e+01	-3.090170e-01
9.510565e-01	1.473684e+01	-3.090170e-01
9.510565e-01	1.578947e+01	-3.090170e-01
9.510565e-01	1.684211e+01	-3.090170e-01
9.510565e-01	1.789474e+01	-3.090170e-01
9.510565e-01	1.894737e+01	-3.090170e-01
9.510565e-01	2.000000e+01	-3.090170e-01

CELLS 285 1425
4 20 0 1 21 
4 21 1 2 22 
4 22 2 3 23 
4 23 3 4 24 
4 24 4 5 25 
4 25 5 6 26 
4 26 6 7 27 
4 27 7 8 28 
4 28 8 9 29 
4 29 9 10 30 
4 30 10 11 31 
4 31 11 12 32 
4 32 12 13 33 
4 33 13 14 34 
4 34 14 15 35 
4 35 15 16 36 
4 36 16 17 37 
4 37 17 18 38 
4 38 18 19 39 
4 40 20 21 41 
4 41 21 22 42 
4 42 22 23 43 
4 43 23 24 44 
4 44 24 25 45 
4 45 25 26 46 
4 46 26 27 47 
4 47 27 28 48 
4 48 28 29 49 
4 49 29 30 50 
4 50 30 31 51 
4 51 31 32 52 
4 52 32 33 53 
4 53 33 34 54 
4 54 34 35 55 
4 55 35 36 56 
4 56 36 37 57 
4 57 37 38 58 
4 58 38 39 59 
4 60 40 41 61 
4 61 41 42 62 
4 62 42 43 63 
4 63 43 44 64 
4 64 44 45 65 
4 65 45 46 66 
4 66 46 47 67 
4 67 47 48 68 
4 68 48 49 69 
4 69 49 50 70 
4 70 50 51 71 
4 71 51 52 72 
4 72 52 53 73 
4 73 53 54 74 
4 74 54 55 75 
4 75 55 56 76 
4 76 56 57 77 
4 77 57 58 78 
4 78 58 59 79 
4 80 60 61 81 
4 81 61 62 82 
4 82 62 63 83 
4 83 63 64 84 
4 84 64 65 85 
4 85 65 66 86 
4 86 66 67 87 
4 87 67 68 88 
4 88 68 69 89 
4 89 69 70 90 
4 90 70 71 91 
4 91 71 72 92 
4 92 72 73 93 
4 93 73 74 94 
4 94 74 75 95 
4 95 75 76 96 
4 96 76 77 97 
4 97 77 78 98 
4 98 78 79 99 
4 100 80 81 101 
4 101 81 82 102 
4 102 82 83 103 
4 103 83 84 104 
4 104 84 85 105 
4 105 85 86 106 
4 106 86 87 107 
4 107 87 88 108 
4 108 88 89 109 
4 109 89 90 110 
4 110 90 91 111 
4 111 91 92 112 
4 112 92 93 113 
4 113 93 94 114 
4 114 94 95 115 
4 115 95 96 116 
4 116 96 97 117 
4 117 97 98 118 
4 118 98 99 119 
4 120 100 101 121 
4 121 101 102 122 
4 122 102 103 123 
4 123 103 104 124 
4 124 104 105 125 
4 125 105 106 126 
4 126 106 107 127 
4 127 107 108 128 
4 128 108 109 129 
4 129 109 110 130 
4 130 110 111 131 
4 131 111 112 132 
4 132 112 113 133 
4 133 113 114 134 
4 134 114 115 135 
4 135 115 116 136 
4 136 116 117 137 
4 137 117 118 138 
4 138 118 119 139 
4 140 120 121 141 
4 141 121 122 142 
4 142 122 123 143 
4 143 123 124 144 
4 144 124 125 145 
4 145 125 126 146 
4 146 126 127 147 
4 147 127 128 148 
4 148 128 129 149 
4 149 129 130 150 
4 150 130 131 151 
4 151 131 132 152 
4 152 132 133 153 
4 153 133 134 154 
4 154 134 135 155 
4 155 135 136 156 
4 156 136 137 157 
4 157 137 138 158 
4 158 138 139 159 
4 160 140 141 161 
4 161 141 142 162 
4 162 142 143 163 
4 163 143 144 164 
4 164 144 145 165 
4 165 145 146 166 
4 166 146 147 167 
4 167 147 148 168 
4 168 148 149 169 
4 169 149 150 170 
4 170 150 151 171 
4 171 151 152 172 
4 172 152 153 173 
4 173 153 154 174 
4 174 154 155 175 
4 175 155 156 176 
4 176 156 157 177 
4 177 157 158 178 
4 178 158 159 179 
4 180 160 161 181 
4 181 161 162 182 
4 182 162 163 183 
4 183 163 164 184 
4 184 164 165 185 
4 185 165 166 186 
4 186 166 167 187 
4 187 167 168 188 
4 188 168 169 189 
4 189 169 170 190 
4 190 170 171 191 
4 191 171 172 192 
4 192 172 173 193 
4 193 173 174 194 
4 194 174 175 195 
4 195 175 176 196 
4 196 176 177 197 
4 197 177 178 198 
4 198 178 179 199 
4 200 180 181 201 
4 201 181 182 202 
4 202 182 183 203 
4 203 183 184 204 
4 204 184 185 205 
4 205 185 186 206 
4 206 186 187 207 
4 207 187 188 208 
4 208 188 189 209 
4 209 189 190 210 
4 210 190 191 211 
4 211 191 192 212 
4 212 192 193 213 
4 213 193 194 214 
4 214 194 195 215 
4 215 195 196 216 
4 216 196 197 217 
4 217 197 198 218 
4 218 198 199 219 
4 220 200 201 221 
4 221 201 202 222 
4 222 202 203 223 
4 223 203 204 224 
4 224 204 205 225 
4 225 205 206 226 
4 226 206 207 227 
4 227 207 208 228 
4 228 208 209 229 
4 229 209 210 230 
4 230 210 211 231 
4 231 211 212 232 
4 232 212 213 233 
4 233 213 214 234 
4 234 214 215 235 
4 235 215 216 236 
4 236 216 217 237 
4 237 217 218 238 
4 238 218 219 239 
4 240 220 221 241 
4 241 221 222 242 
4 242 222 223 243 
4 243 223 224 244 
4 244 224 225 245 
4 245 225 226 246 
4 246 226 227 247 
4 247 227 228 248 
4 248 228 229 249 
4 249 229 230 250 
4 250 230 231 251 
4 251 231 232 252 
4 252 232 233 253 
4 253 233 234 254 
4 254 234 235 255 
4 255 235 236 256 
4 256 236 237 257 
4 257 237 238 258 
4 258 238 239 259 
4 260 240 241 261 
4 261 241 242 262 
4 262 242 243 263 
4 263 243 244 264 
4 264 244 245 265 
4 265 245 246 266 
4 266 246 247 267 
4 267 247 248 268 
4 268 248 249 269 
4 269 249 250 270 
4 270 250 251 271 
4 271 251 252 272 
4 272 252 253 273 
4 273 253 254 274 
4 274 254 255 275 
4 275 255 256 276 
4 276 256 257 277 
4 277 257 258 278 
4 278 258 259 279 
4 280 260 261 281 
4 281 261 262 282 
4 282 262 263 283 
4 283 263 264 284 
4 284 264 265 285 
4 285 265 266 286 
4 286 266 267 287 
4 287 267 268 288 
4 288 268 269 289 
4 289 269 270 290 
4 290 270 271 291 
4 291 271 272 292 
4 292 272 273 293 
4 293 273 274 294 
4 294 274 275 295 
4 295 275 276 296 
4 296 276 277 297 
4 297 277 278 298 
4 298 278 279 299 
4 300 280 281 301 
4 301 281 282 302 
4 302 282 283 303 
4 303 283 284 304 
4 304 284 285 305 
4 305 285 286 306 
4 306 286 287 307 
4 307 287 288 308 
4 308 288 289 309 
4 309 289 290 310 
4 310 290 291 311 
4 311 291 292 312 
4 312 292 293 313 
4 313 293 294 314 
4 314 294 295 315 
4 315 295 296 316 
4 316 296 297 317 
4 317 297 298 318 
4 318 298 299 319 

CELL_TYPES 285
9
9
9
9
9
9
9
9
9
9
9
9
9
9
9
9
9
9
9
9
9
9
9
9
9
9
9
9
9
9
9
9
9
9
9
9
9
9
9
9
9
9
9
9
9
9
9
9
9
9
9
9
9
9
9
9
9
9
9
9
9
9
9
9
9
9
9
9
9
9
9
9
9
9
9
9
9
9
9
9
9
9
9
9
9
9
9
9
9
9
9
9
9
9
9
9
9
9
9
9
9
9
9
9
9
9
9
9
9
9
9
9
9
9
9
9
9
9
9
9
9
9
9
9
9
9
9
9
9
9
9
9
9
9
9
9
9
9
9
9
9
9
9
9
9
9
9
9
9
9
9
9
9
9
9
9
9
9
9
9
9
9
9
9
9
9
9
9
9
9
9
9
9
9
9
9
9
9
9
9
9
9
9
9
9
9
9
9
9
9
9
9
9
9
9
9
9
9
9
9
9
9
9
9
9
9
9
9
9
9
9
9
9
9
9
9
9
9
9
9
9
9
9
9
9
9
9
9
9
9
9
9
9
9
9
9
9
9
9
9
9
9
9
9
9
9
9
9
9
9
9
9
9
9
9
9
9
9
9
9
9
9
9
9
9
9
9
9
9
9
9
9
9
9
9
9
9
9
9
9
9
9
9
9
9

CELL_DATA 285
SCALARS Mu double 1
LOOKUP_TABLE default
-0.388429
-0.434839
-0.445113
-0.448285
-0.449531
-0.450112
-0.450415
-0.45058
-0.450664
-0.450691
-0.450664
-0.45058
-0.450415
-0.450112
-0.449531
-0.448285
-0.445113
-0.434839
-0.388429
-0.510131
-0.594683
-0.616974
-0.624665
-0.627855
-0.629376
-0.630171
-0.630603
-0.630824
-0.630893
-0.630827
-0.630608
-0.630178
-0.629383
-0.627864
-0.624669
-0.616953
-0.594531
-0.509768
-0.565402
-0.676259
-0.708906
-0.721304
-0.726769
-0.729481
-0.73093
-0.731726
-0.732133
-0.732261
-0.732142
-0.731746
-0.730963
-0.729527
-0.726831
-0.721339
-0.708845
-0.676044
-0.567553
-0.5965
-0.724128
-0.764294
-0.780705
-0.788374
-0.792329
-0.794491
-0.79569
-0.796305
-0.796497
-0.796315
-0.795713
-0.794527
-0.792381
-0.788441
-0.780711
-0.764093
-0.72369
-0.599882
-0.616157
-0.754595
-0.800147
-0.819703
-0.829262
-0.834366
-0.837218
-0.838823
-0.839649
-0.839907
-0.839656
-0.838838
-0.837242
-0.834395
-0.829287
-0.81961
-0.799729
-0.753863
-0.620006
-0.629462
-0.77515
-0.824573
-0.846525
-0.857613
-0.863703
-0.867176
-0.869157
-0.870184
-0.870502
-0.870184
-0.869157
-0.867173
-0.863686
-0.85756
-0.846289
-0.823906
-0.774108
-0.633433
-0.63891
-0.789621
-0.841854
-0.865629
-0.87793
-0.884838
-0.888843
-0.891155
-0.892362
-0.892735
-0.892353
-0.891135
-0.888804
-0.884767
-0.877784
-0.865235
-0.840944
-0.78829
-0.642855
-0.645861
-0.800146
-0.854446
-0.879611
-0.892871
-0.900442
-0.904899
-0.907495
-0.908859
-0.909278
-0.908838
-0.907451
-0.904819
-0.900312
-0.892624
-0.879062
-0.853314
-0.798557
-0.649722
-0.651118
-0.808004
-0.863847
-0.890074
-0.904089
-0.912208
-0.917035
-0.91987
-0.921366
-0.921824
-0.921333
-0.919799
-0.916913
-0.912002
-0.903739
-0.889378
-0.86252
-0.80619
-0.654877
-0.655184
-0.813999
-0.871014
-0.898055
-0.91267
-0.921219
-0.926358
-0.929393
-0.931
-0.93149
-0.930954
-0.929291
-0.926181
-0.920941
-0.912171
-0.897221
-0.869514
-0.811993
-0.658841
-0.658388
-0.818659
-0.87657
-0.904239
-0.919324
-0.928202
-0.933353
-0.936781
-0.938511
-0.939032
-0.938454
-0.936687
-0.933422
-0.927882
-0.918774
-0.903285
-0.874921
-0.816489
-0.661948
-0.660949
-0.822338
-0.88094
-0.909098
-0.924554
-0.933726
-0.939242
-0.942613
-0.944431
-0.944972
-0.944365
-0.94251
-0.939127
-0.933362
-0.923934
-0.908042
-0.879166
-0.820031
-0.664423
-0.663021
-0.825283
-0.884419
-0.91296
-0.928706
-0.938104
-0.943837
-0.947298
-0.94915
-0.949712
-0.94908
-0.947156
-0.943615
-0.937678
-0.92802
-0.911817
-0.882541
-0.82286
-0.666419
-0.664715
-0.827667
-0.887216
-0.916056
-0.932031
-0.941591
-0.947475
-0.951026
-0.95292
-0.953498
-0.952849
-0.950851
-0.947181
-0.941111
-0.931284
-0.91484
-0.885252
-0.825147
-0.668047

