# vtk DataFile Version 2.0
OUTPUT by 3D-VPM
ASCII
DATASET UNSTRUCTURED_GRID
POINTS 620 double
2.953272e+01	6.563237e-01	-4.087735e-01
2.980446e+01	1.117268e+00	-1.008232e+00
2.944350e+01	2.285364e+00	-9.511764e-01
2.945660e+01	3.279425e+00	-6.587154e-01
2.947840e+01	4.290093e+00	-5.858665e-01
2.945825e+01	5.314145e+00	-5.339351e-01
2.944662e+01	6.348044e+00	-4.928525e-01
2.943971e+01	7.388192e+00	-4.671197e-01
2.943540e+01	8.431795e+00	-4.516871e-01
2.943342e+01	9.477034e+00	-4.443504e-01
2.943342e+01	1.052295e+01	-4.443529e-01
2.943539e+01	1.156819e+01	-4.516941e-01
2.943970e+01	1.261178e+01	-4.671279e-01
2.944661e+01	1.365192e+01	-4.928535e-01
2.945827e+01	1.468580e+01	-5.339170e-01
2.947846e+01	1.570983e+01	-5.858100e-01
2.945679e+01	1.672049e+01	-6.585930e-01
2.944393e+01	1.771456e+01	-9.507939e-01
2.980502e+01	1.888320e+01	-1.007818e+00
2.953304e+01	1.934457e+01	-4.066944e-01
2.914099e+01	2.266571e-01	-1.017262e+00
2.989096e+01	2.820761e-01	-1.743030e+00
3.027480e+01	2.047322e+00	-1.565689e+00
3.036502e+01	3.112036e+00	-1.248719e+00
3.040488e+01	4.187200e+00	-1.116445e+00
3.040996e+01	5.251658e+00	-1.015314e+00
3.040942e+01	6.308148e+00	-9.513898e-01
3.040799e+01	7.363429e+00	-9.126272e-01
3.040675e+01	8.418192e+00	-8.902380e-01
3.040615e+01	9.472673e+00	-8.799025e-01
3.040615e+01	1.052731e+01	-8.798971e-01
3.040675e+01	1.158179e+01	-8.902220e-01
3.040799e+01	1.263654e+01	-9.126001e-01
3.040943e+01	1.369181e+01	-9.513498e-01
3.040997e+01	1.474826e+01	-1.015281e+00
3.040494e+01	1.581265e+01	-1.116448e+00
3.036522e+01	1.688773e+01	-1.248740e+00
3.027530e+01	1.795248e+01	-1.565132e+00
2.989205e+01	1.971700e+01	-1.741904e+00
2.914053e+01	1.977133e+01	-1.018109e+00
2.791459e+01	4.353455e-01	-1.079966e+00
2.825825e+01	-3.191396e-01	-1.773672e+00
2.841426e+01	1.792352e+00	-2.485373e+00
2.853996e+01	3.093078e+00	-2.339917e+00
2.861063e+01	4.198009e+00	-2.208054e+00
2.864445e+01	5.262968e+00	-2.119339e+00
2.866201e+01	6.318157e+00	-2.061353e+00
2.867131e+01	7.370576e+00	-2.024660e+00
2.867609e+01	8.422375e+00	-2.003092e+00
2.867822e+01	9.474050e+00	-1.993117e+00
2.867822e+01	1.052592e+01	-1.993130e+00
2.867610e+01	1.157760e+01	-2.003136e+00
2.867133e+01	1.262939e+01	-2.024740e+00
2.866203e+01	1.368178e+01	-2.061478e+00
2.864449e+01	1.473693e+01	-2.119555e+00
2.861075e+01	1.580180e+01	-2.208334e+00
2.854039e+01	1.690663e+01	-2.339989e+00
2.841450e+01	1.820697e+01	-2.484564e+00
2.826191e+01	2.032099e+01	-1.774250e+00
2.791447e+01	1.956736e+01	-1.082081e+00
2.696446e+01	4.315196e-01	-8.506832e-01
2.716528e+01	-4.636451e-01	-1.592144e+00
2.714621e+01	1.658859e+00	-2.537175e+00
2.720727e+01	3.037519e+00	-2.421294e+00
2.725545e+01	4.177236e+00	-2.289182e+00
2.728274e+01	5.254949e+00	-2.195752e+00
2.729759e+01	6.314950e+00	-2.134253e+00
2.730567e+01	7.369386e+00	-2.095130e+00
2.730989e+01	8.421991e+00	-2.072040e+00
2.731179e+01	9.473962e+00	-2.061360e+00
2.731179e+01	1.052599e+01	-2.061398e+00
2.730992e+01	1.157796e+01	-2.072164e+00
2.730571e+01	1.263055e+01	-2.095366e+00
2.729765e+01	1.368496e+01	-2.134640e+00
2.728285e+01	1.474491e+01	-2.196407e+00
2.725568e+01	1.582253e+01	-2.289962e+00
2.720777e+01	1.696202e+01	-2.421431e+00
2.714647e+01	1.833937e+01	-2.535473e+00
2.716960e+01	2.047199e+01	-1.595103e+00
2.696516e+01	1.957768e+01	-8.532313e-01
2.602381e+01	3.981620e-01	-7.596485e-01
2.612626e+01	-5.038733e-01	-1.499471e+00
2.605994e+01	1.598652e+00	-2.467715e+00
2.608721e+01	3.004993e+00	-2.355681e+00
2.611904e+01	4.160705e+00	-2.219077e+00
2.614020e+01	5.246812e+00	-2.121310e+00
2.615293e+01	6.310973e+00	-2.056588e+00
2.616029e+01	7.367484e+00	-2.015248e+00
2.616431e+01	8.421153e+00	-1.990787e+00
2.616614e+01	9.473722e+00	-1.979453e+00
2.616614e+01	1.052622e+01	-1.979497e+00
2.616431e+01	1.157878e+01	-1.990929e+00
2.616030e+01	1.263243e+01	-2.015520e+00
2.615294e+01	1.368890e+01	-2.057040e+00
2.614024e+01	1.475301e+01	-2.122081e+00
2.611917e+01	1.583902e+01	-2.219909e+00
2.608759e+01	1.699436e+01	-2.355273e+00
2.606017e+01	1.839821e+01	-2.464635e+00
2.612792e+01	2.051443e+01	-1.503525e+00
2.602427e+01	1.961333e+01	-7.644923e-01
2.507236e+01	4.143189e-01	-6.983365e-01
2.511206e+01	-4.945719e-01	-1.418486e+00
2.503571e+01	1.580541e+00	-2.375062e+00
2.504571e+01	2.989402e+00	-2.259850e+00
2.506644e+01	4.150153e+00	-2.119735e+00
2.508232e+01	5.240348e+00	-2.019271e+00
2.509280e+01	6.307232e+00	-1.952604e+00
2.509928e+01	7.365429e+00	-1.909901e+00
2.510298e+01	8.420140e+00	-1.884584e+00
2.510471e+01	9.473417e+00	-1.872833e+00
2.510471e+01	1.052651e+01	-1.872876e+00
2.510297e+01	1.157978e+01	-1.884722e+00
2.509927e+01	1.263447e+01	-1.910161e+00
2.509278e+01	1.369263e+01	-1.953023e+00
2.508230e+01	1.475946e+01	-2.019964e+00
2.506650e+01	1.584956e+01	-2.120298e+00
2.504601e+01	1.700980e+01	-2.258590e+00
2.503598e+01	1.841549e+01	-2.370537e+00
2.511252e+01	2.050571e+01	-1.422018e+00
2.507259e+01	1.959715e+01	-7.028239e-01
2.411126e+01	4.271648e-01	-6.339393e-01
2.411347e+01	-4.626398e-01	-1.368654e+00
2.403313e+01	1.585718e+00	-2.282499e+00
2.403391e+01	2.985260e+00	-2.162318e+00
2.404731e+01	4.144831e+00	-2.020400e+00
2.405900e+01	5.236071e+00	-1.918789e+00
2.406733e+01	6.304295e+00	-1.851274e+00
2.407278e+01	7.363609e+00	-1.807922e+00
2.407603e+01	8.419167e+00	-1.782180e+00
2.407759e+01	9.473112e+00	-1.770214e+00
2.407758e+01	1.052682e+01	-1.770251e+00
2.407602e+01	1.158075e+01	-1.782300e+00
2.407276e+01	1.263629e+01	-1.808142e+00
2.406730e+01	1.369557e+01	-1.851622e+00
2.405896e+01	1.476374e+01	-1.919328e+00
2.404734e+01	1.585488e+01	-2.020581e+00
2.403420e+01	1.701386e+01	-2.160212e+00
2.403354e+01	1.840986e+01	-2.276687e+00
2.411338e+01	2.047370e+01	-1.372200e+00
2.411131e+01	1.958467e+01	-6.377839e-01
2.313983e+01	4.306102e-01	-5.790397e-01
2.311793e+01	-4.182632e-01	-1.347347e+00
2.303774e+01	1.605170e+00	-2.195568e+00
2.303323e+01	2.988582e+00	-2.070034e+00
2.304181e+01	4.143502e+00	-1.927991e+00
2.305036e+01	5.233855e+00	-1.826607e+00
2.305685e+01	6.302361e+00	-1.759194e+00
2.306130e+01	7.362242e+00	-1.715827e+00
2.306403e+01	8.418378e+00	-1.690026e+00
2.306538e+01	9.472856e+00	-1.678015e+00
2.306538e+01	1.052707e+01	-1.678045e+00
2.306402e+01	1.158154e+01	-1.690121e+00
2.306128e+01	1.263766e+01	-1.715994e+00
2.305682e+01	1.369752e+01	-1.759477e+00
2.305033e+01	1.476597e+01	-1.826994e+00
2.304186e+01	1.585622e+01	-1.927797e+00
2.303356e+01	1.701050e+01	-2.067231e+00
2.303831e+01	1.839016e+01	-2.188725e+00
2.311745e+01	2.042892e+01	-1.351094e+00
2.313964e+01	1.958128e+01	-5.827738e-01
2.216009e+01	4.284114e-01	-5.314817e-01
2.212189e+01	-3.647572e-01	-1.344994e+00
2.204396e+01	1.633411e+00	-2.114498e+00
2.203647e+01	2.996641e+00	-1.983900e+00
2.204189e+01	4.144991e+00	-1.843125e+00
2.204816e+01	5.233319e+00	-1.743147e+00
2.205317e+01	6.301377e+00	-1.676679e+00
2.205672e+01	7.361385e+00	-1.633832e+00
2.205896e+01	8.417832e+00	-1.608284e+00
2.206010e+01	9.472673e+00	-1.596372e+00
2.206009e+01	1.052726e+01	-1.596391e+00
2.205896e+01	1.158210e+01	-1.608342e+00
2.205671e+01	1.263853e+01	-1.633933e+00
2.205314e+01	1.369850e+01	-1.676854e+00
2.204814e+01	1.476652e+01	-1.743356e+00
2.204196e+01	1.585475e+01	-1.842614e+00
2.203683e+01	1.700243e+01	-1.980575e+00
2.204465e+01	1.836182e+01	-2.106860e+00
2.212118e+01	2.037483e+01	-1.348985e+00
2.215968e+01	1.958327e+01	-5.352530e-01
2.117413e+01	4.208552e-01	-4.894861e-01
2.112473e+01	-3.034346e-01	-1.354332e+00
2.104982e+01	1.666774e+00	-2.038098e+00
2.104077e+01	3.007563e+00	-1.903194e+00
2.104415e+01	4.148353e+00	-1.764833e+00
2.104879e+01	5.234020e+00	-1.667216e+00
2.105267e+01	6.301176e+00	-1.602417e+00
2.105549e+01	7.360998e+00	-1.560549e+00
2.105730e+01	8.417533e+00	-1.535468e+00
2.105823e+01	9.472565e+00	-1.523759e+00
2.105823e+01	1.052737e+01	-1.523758e+00
2.105729e+01	1.158240e+01	-1.535440e+00
2.105548e+01	1.263892e+01	-1.560442e+00
2.105265e+01	1.369871e+01	-1.602330e+00
2.104880e+01	1.476582e+01	-1.667038e+00
2.104425e+01	1.585138e+01	-1.763888e+00
2.104117e+01	1.699153e+01	-1.899482e+00
2.105060e+01	1.832848e+01	-2.029856e+00
2.112387e+01	2.031283e+01	-1.358583e+00
2.117353e+01	1.959050e+01	-4.934229e-01
2.018364e+01	4.086692e-01	-4.526295e-01
2.012640e+01	-2.349005e-01	-1.369793e+00
2.005476e+01	1.702850e+00	-1.965040e+00
2.004506e+01	3.020082e+00	-1.826854e+00
2.004713e+01	4.152885e+00	-1.691844e+00
2.005065e+01	5.235580e+00	-1.597267e+00
2.005371e+01	6.301592e+00	-1.533902e+00
2.005595e+01	7.361019e+00	-1.493365e+00
2.005737e+01	8.417444e+00	-1.469727e+00
2.005813e+01	9.472524e+00	-1.458388e+00
2.005813e+01	1.052742e+01	-1.458359e+00
2.005737e+01	1.158250e+01	-1.469650e+00
2.005591e+01	1.263893e+01	-1.493899e+00
2.005367e+01	1.369830e+01	-1.534388e+00
2.005068e+01	1.476427e+01	-1.596866e+00
2.004726e+01	1.584686e+01	-1.690620e+00
2.004548e+01	1.697905e+01	-1.822855e+00
2.005561e+01	1.829251e+01	-1.956356e+00
2.012547e+01	2.024356e+01	-1.374282e+00
2.018288e+01	1.960227e+01	-4.568335e-01
1.918987e+01	3.926991e-01	-4.205509e-01
1.912711e+01	-1.596649e-01	-1.387067e+00
1.905876e+01	1.740043e+00	-1.894180e+00
1.904896e+01	3.033347e+00	-1.753861e+00
1.905024e+01	4.158083e+00	-1.622961e+00
1.905298e+01	5.237709e+00	-1.531991e+00
1.905543e+01	6.302460e+00	-1.470948e+00
1.905723e+01	7.361293e+00	-1.431933e+00
1.905836e+01	8.417520e+00	-1.409427e+00
1.905898e+01	9.472544e+00	-1.398616e+00
1.905898e+01	1.052741e+01	-1.398577e+00
1.905836e+01	1.158242e+01	-1.409406e+00
1.905717e+01	1.263864e+01	-1.432828e+00
1.905538e+01	1.369747e+01	-1.471726e+00
1.905302e+01	1.476216e+01	-1.531630e+00
1.905038e+01	1.584169e+01	-1.621680e+00
1.904940e+01	1.696584e+01	-1.749686e+00
1.905965e+01	1.825551e+01	-1.885200e+00
1.912614e+01	2.016755e+01	-1.391744e+00
1.918900e+01	1.961773e+01	-4.250763e-01
1.819376e+01	3.736712e-01	-3.929717e-01
1.812707e+01	-7.836788e-02	-1.402830e+00
1.806194e+01	1.777278e+00	-1.824610e+00
1.805241e+01	3.046788e+00	-1.683376e+00
1.805323e+01	4.163589e+00	-1.557238e+00
1.805544e+01	5.240161e+00	-1.470316e+00
1.805741e+01	6.303564e+00	-1.412721e+00
[...]
CELL_DATA 570
SCALARS Mu double 1
LOOKUP_TABLE default
-0.388429
-0.434839
-0.445113
-0.448285
-0.449531
-0.450112
-0.450415
-0.45058
-0.450664
-0.450691
-0.450664
-0.45058
-0.450415
-0.450112
-0.449531
-0.448285
-0.445113
-0.434839
-0.388429
-0.510131
-0.594683
-0.616974
-0.624665
-0.627855
-0.629376
-0.630171
-0.630603
-0.630824
-0.630893
-0.630827
-0.630608
-0.630178
-0.629383
-0.627864
-0.624669
-0.616953
-0.594531
-0.509768
-0.565402
-0.676259
-0.708906
-0.721304
-0.726769
-0.729481
-0.73093
-0.731726
-0.732133
-0.732261
-0.732142
-0.731746
-0.730963
-0.729527
-0.726831
-0.721339
-0.708845
-0.676044
-0.567553
-0.5965
-0.724128
-0.764294
-0.780705
-0.788374
-0.792329
-0.794491
-0.79569
-0.796305
-0.796497
-0.796315
-0.795713
-0.794527
-0.792381
-0.788441
-0.780711
-0.764093
-0.72369
-0.599882
-0.616157
-0.754595
-0.800147
-0.819703
-0.829262
-0.834366
-0.837218
-0.838823
-0.839649
-0.839907
-0.839656
-0.838838
-0.837242
-0.834395
-0.829287
-0.81961
-0.799729
-0.753863
-0.620006
-0.629462
-0.77515
-0.824573
-0.846525
-0.857613
-0.863703
-0.867176
-0.869157
-0.870184
-0.870502
-0.870184
-0.869157
-0.867173
-0.863686
-0.85756
-0.846289
-0.823906
-0.774108
-0.633433
-0.63891
-0.789621
-0.841854
-0.865629
-0.87793
-0.884838
-0.888843
-0.891155
-0.892362
-0.892735
-0.892353
-0.891135
-0.888804
-0.884767
-0.877784
-0.865235
-0.840944
-0.78829
-0.642855
-0.645861
-0.800146
-0.854446
-0.879611
-0.892871
-0.900442
-0.904899
-0.907495
-0.908859
-0.909278
-0.908838
-0.907451
-0.904819
-0.900312
-0.892624
-0.879062
-0.853314
-0.798557
-0.649722
-0.651118
-0.808004
-0.863847
-0.890074
-0.904089
-0.912208
-0.917035
-0.91987
-0.921366
-0.921824
-0.921333
-0.919799
-0.916913
-0.912002
-0.903739
-0.889378
-0.86252
-0.80619
-0.654877
-0.655184
-0.813999
-0.871014
-0.898055
-0.91267
-0.921219
-0.926358
-0.929393
-0.931
-0.93149
-0.930954
-0.929291
-0.926181
-0.920941
-0.912171
-0.897221
-0.869514
-0.811993
-0.658841
-0.658388
-0.818659
-0.87657
-0.904239
-0.919324
-0.928202
-0.933353
-0.936781
-0.938511
-0.939032
-0.938454
-0.936687
-0.933422
-0.927882
-0.918774
-0.903285
-0.874921
-0.816489
-0.661948
-0.660949
-0.822338
-0.88094
-0.909098
-0.924554
-0.933726
-0.939242
-0.942613
-0.944431
-0.944972
-0.944365
-0.94251
-0.939127
-0.933362
-0.923934
-0.908042
-0.879166
-0.820031
-0.664423
-0.663021
-0.825283
-0.884419
-0.91296
-0.928706
-0.938104
-0.943837
-0.947298
-0.94915
-0.949712
-0.94908
-0.947156
-0.943615
-0.937678
-0.92802
-0.911817
-0.882541
-0.82286
-0.666419
-0.664715
-0.827667
-0.887216
-0.916056
-0.932031
-0.941591
-0.947475
-0.951026
-0.95292
-0.953498
-0.952849
-0.950851
-0.947181
-0.941111
-0.931284
-0.91484
-0.885252
-0.825147
-0.668047
-0.666097
-0.829594
-0.889464
-0.918544
-0.934709
-0.944423
-0.950403
-0.954048
-0.955985
-0.956559
-0.955888
-0.953846
-0.950085
-0.943903
-0.933924
-0.917287
-0.887452
-0.827017
-0.669388
-0.667253
-0.831199
-0.891318
-0.920587
-0.936901
-0.946741
-0.952803
-0.956494
-0.958367
-0.959029
-0.958341
-0.955882
-0.952377
-0.946158
-0.93607
-0.919281
-0.889251
-0.828559
-0.670503
-0.668225
-0.832528
-0.892849
-0.922268
-0.938724
-0.948632
-0.95476
-0.958469
-0.960483
-0.961076
-0.960326
-0.958144
-0.954299
-0.947591
-0.937793
-0.920911
-0.890737
-0.829835
-0.671435
-0.669047
-0.833641
-0.894119
-0.923653
-0.940183
-0.950182
-0.956367
-0.960143
-0.962458
-0.963208
-0.962042
-0.959854
-0.955938
-0.949468
-0.93926
-0.922276
-0.89198
-0.830914
-0.672233
-0.669767
-0.834672
-0.895229
-0.924909
-0.941505
-0.951463
-0.957689
-0.96148
-0.963593
-0.96431
-0.963546
-0.961351
-0.957315
-0.950829
-0.940496
-0.923416
-0.893019
-0.831825
-0.672916
-0.670312
-0.835344
-0.896019
-0.925722
-0.942395
-0.952498
-0.958791
-0.962623
-0.964705
-0.965348
-0.964681
-0.962445
-0.958452
-0.951955
-0.941544
-0.924384
-0.893894
-0.832588
-0.673485
-0.670778
-0.835965
-0.896752
-0.926487
-0.943239
-0.953408
-0.959746
-0.963602
-0.965689
-0.966309
-0.965575
-0.963436
-0.959372
-0.952866
-0.942406
-0.9252
-0.894666
-0.833238
-0.673966
-0.671201
-0.836527
-0.897403
-0.927221
-0.943991
-0.954198
-0.960565
-0.964442
-0.966536
-0.96716
-0.966427
-0.964225
-0.960186
-0.953631
-0.94313
-0.925872
-0.895265
-0.833767
-0.674364
-0.671574
-0.837024
-0.897976
-0.927847
-0.944655
-0.954893
-0.961277
-0.965168
-0.967284
-0.96792
-0.96719
-0.964957
-0.96089
-0.954257
-0.943745
-0.926479
-0.895817
-0.834246
-0.674719
-0.671901
-0.837465
-0.898476
-0.928371
-0.945229
-0.955506
-0.961918
-0.965836
-0.967943
-0.9686
-0.967847
-0.965649
-0.961531
-0.954898
-0.944353
-0.927025
-0.896261
-0.834667
-0.67503
-0.672181
-0.837848
-0.89886
-0.928876
-0.945762
-0.956053
-0.96248
-0.966416
-0.968528
-0.96916
-0.968423
-0.96618
-0.96197
-0.955345
-0.944872
-0.92751
-0.896732
-0.835035
-0.675302
-0.672432
-0.838191
-0.899304
-0.929302
-0.946225
-0.956537
-0.962983
-0.966931
-0.969046
-0.969698
-0.968958
-0.966693
-0.962563
-0.955913
-0.945337
-0.927944
-0.897097
-0.835372
-0.675543
-0.67265
-0.838473
-0.899433
-0.929681
-0.946642
-0.956974
-0.963416
-0.967382
-0.969528
-0.970182
-0.969434
-0.967162
-0.963034
-0.95637
-0.945756
-0.928334
-0.897476
-0.835673
-0.675758
-0.672843
-0.838734
-0.899801
-0.930017
-0.94701
-0.957366
-0.963823
-0.96782
-0.969982
-0.970669
-0.969866
-0.967549
-0.963444
-0.956781
-0.946143
-0.928686
-0.89776
-0.835933
-0.675947
-0.673019
-0.838981
-0.900132
-0.930327
-0.947327
-0.957681
-0.964209
-0.968202
-0.970361
-0.971052
-0.970207
-0.967921
-0.963822
-0.957088
-0.946483
-0.928995
-0.898061
-0.836171
-0.676117

