# vtk DataFile Version 2.0
OUTPUT by 3D-VPM
ASCII
DATASET UNSTRUCTURED_GRID
POINTS 1120 double
5.406265e+01	9.763949e-01	-2.467196e+00
5.488196e+01	1.318698e+00	-1.718804e+00
5.441376e+01	2.499578e+00	-2.143227e+00
5.418269e+01	3.497317e+00	-1.671608e+00
5.440796e+01	4.437645e+00	-1.360950e+00
5.441379e+01	5.436724e+00	-1.331493e+00
5.436052e+01	6.432648e+00	-1.250245e+00
5.435445e+01	7.441322e+00	-1.185719e+00
5.434803e+01	8.461141e+00	-1.156149e+00
5.434287e+01	9.486404e+00	-1.141452e+00
5.434287e+01	1.051359e+01	-1.141456e+00
5.434805e+01	1.153884e+01	-1.156161e+00
5.435448e+01	1.255864e+01	-1.185724e+00
5.436057e+01	1.356728e+01	-1.250212e+00
5.441386e+01	1.456317e+01	-1.331381e+00
5.440814e+01	1.556219e+01	-1.360739e+00
5.418312e+01	1.650273e+01	-1.671101e+00
5.441562e+01	1.750014e+01	-2.143016e+00
5.489325e+01	1.868680e+01	-1.706957e+00
5.404543e+01	1.900311e+01	-2.480658e+00
5.362677e+01	1.039159e+00	-1.841387e+00
5.483459e+01	3.686550e-01	-1.051008e+00
5.434338e+01	2.079366e+00	-9.880280e-01
5.457613e+01	3.019095e+00	-4.685297e-01
5.476666e+01	4.153833e+00	-1.971715e-01
5.467245e+01	5.238182e+00	-8.722029e-02
5.463711e+01	6.290032e+00	1.303378e-02
5.461760e+01	7.351889e+00	7.586776e-02
5.460239e+01	8.411930e+00	1.106298e-01
5.459541e+01	9.470590e+00	1.271111e-01
5.459539e+01	1.052938e+01	1.271114e-01
5.460235e+01	1.158804e+01	1.106333e-01
5.461755e+01	1.264806e+01	7.588742e-02
5.463705e+01	1.370990e+01	1.308637e-02
5.467242e+01	1.476172e+01	-8.711455e-02
5.476674e+01	1.584605e+01	-1.970330e-01
5.457649e+01	1.698105e+01	-4.682372e-01
5.434182e+01	1.792160e+01	-9.899916e-01
5.483611e+01	1.963108e+01	-1.048318e+00
5.364148e+01	1.896284e+01	-1.828547e+00
5.263762e+01	3.712936e-01	-1.953815e+00
5.297977e+01	4.432888e-01	-7.878335e-01
5.417596e+01	1.136123e+00	-3.357739e+00
5.471355e+01	3.002202e+00	-3.017552e+00
5.490390e+01	4.113311e+00	-2.690293e+00
5.499147e+01	5.222900e+00	-2.525286e+00
5.503955e+01	6.304219e+00	-2.374174e+00
5.506425e+01	7.362792e+00	-2.275225e+00
5.507666e+01	8.418511e+00	-2.217825e+00
5.508187e+01	9.472909e+00	-2.190577e+00
5.508187e+01	1.052700e+01	-2.190595e+00
5.507666e+01	1.158138e+01	-2.217886e+00
5.506424e+01	1.263707e+01	-2.275346e+00
5.503949e+01	1.369556e+01	-2.374392e+00
5.499135e+01	1.477669e+01	-2.525665e+00
5.490386e+01	1.588590e+01	-2.690826e+00
5.471411e+01	1.699660e+01	-3.017482e+00
5.417768e+01	1.886178e+01	-3.356618e+00
5.298158e+01	1.954803e+01	-7.915304e-01
5.264211e+01	1.963197e+01	-1.952888e+00
5.154976e+01	4.920968e-01	-1.860410e+00
5.217392e+01	3.257997e-01	-6.146887e-01
5.240039e+01	6.005859e-01	-3.521887e+00
5.259564e+01	2.734015e+00	-3.724794e+00
5.278113e+01	4.086729e+00	-3.539944e+00
5.288342e+01	5.225624e+00	-3.382126e+00
5.293942e+01	6.307455e+00	-3.269770e+00
5.297186e+01	7.369190e+00	-3.194070e+00
5.298960e+01	8.423164e+00	-3.148088e+00
5.299753e+01	9.474484e+00	-3.126497e+00
5.299755e+01	1.052537e+01	-3.126548e+00
5.298967e+01	1.157668e+01	-3.148252e+00
5.297199e+01	1.263061e+01	-3.194378e+00
5.293960e+01	1.369225e+01	-3.270276e+00
5.288381e+01	1.477392e+01	-3.382986e+00
5.278196e+01	1.591246e+01	-3.540926e+00
5.259732e+01	1.726398e+01	-3.724997e+00
5.240259e+01	1.939322e+01	-3.524461e+00
5.218005e+01	1.968085e+01	-6.087159e-01
5.155495e+01	1.951212e+01	-1.854740e+00
5.067823e+01	4.049147e-01	-1.527261e+00
5.118121e+01	-9.370092e-03	-3.375166e-01
5.116365e+01	3.307013e-01	-3.387225e+00
5.121738e+01	2.566359e+00	-3.744149e+00
5.132480e+01	4.001959e+00	-3.583914e+00
5.139935e+01	5.186429e+00	-3.425752e+00
5.144475e+01	6.287738e+00	-3.309308e+00
5.147147e+01	7.358934e+00	-3.230657e+00
5.148633e+01	8.418308e+00	-3.182633e+00
5.149305e+01	9.473043e+00	-3.160004e+00
5.149306e+01	1.052676e+01	-3.160076e+00
5.148638e+01	1.158147e+01	-3.182868e+00
5.147156e+01	1.264078e+01	-3.231103e+00
5.144488e+01	1.371184e+01	-3.310039e+00
5.139969e+01	1.481292e+01	-3.426999e+00
5.132557e+01	1.599687e+01	-3.585234e+00
5.121870e+01	1.743041e+01	-3.743952e+00
5.116489e+01	1.965968e+01	-3.392333e+00
5.118429e+01	2.001878e+01	-3.308754e-01
5.068336e+01	1.960281e+01	-1.518004e+00
4.977092e+01	2.644642e-01	-1.437809e+00
5.013176e+01	5.901039e-02	-2.088049e-01
5.007509e+01	2.170584e-01	-3.267780e+00
5.006994e+01	2.471119e+00	-3.662305e+00
5.013325e+01	3.944540e+00	-3.503038e+00
5.018556e+01	5.153611e+00	-3.338631e+00
5.022105e+01	6.269257e+00	-3.216388e+00
5.024332e+01	7.348698e+00	-3.133492e+00
5.025618e+01	8.413166e+00	-3.082778e+00
5.026211e+01	9.471472e+00	-3.058844e+00
5.026212e+01	1.052830e+01	-3.058922e+00
5.025620e+01	1.158657e+01	-3.083031e+00
5.024336e+01	1.265095e+01	-3.133964e+00
5.022110e+01	1.373024e+01	-3.217127e+00
5.018573e+01	1.484561e+01	-3.339834e+00
5.013374e+01	1.605403e+01	-3.503978e+00
5.007075e+01	1.752469e+01	-3.660886e+00
5.007529e+01	1.977160e+01	-3.272801e+00
5.013426e+01	1.994636e+01	-2.012336e-01
4.977558e+01	1.974462e+01	-1.429278e+00
4.885918e+01	3.404132e-01	-1.400486e+00
4.915627e+01	1.178433e-01	-1.082448e-01
4.902807e+01	1.547520e-01	-3.138397e+00
4.901184e+01	2.418970e+00	-3.557075e+00
4.905053e+01	3.908463e+00	-3.393556e+00
4.908720e+01	5.129881e+00	-3.222865e+00
4.911433e+01	6.254273e+00	-3.095635e+00
4.913242e+01	7.339715e+00	-3.009198e+00
4.914331e+01	8.408412e+00	-2.956274e+00
4.914845e+01	9.469982e+00	-2.931272e+00
4.914845e+01	1.052977e+01	-2.931347e+00
4.914331e+01	1.159130e+01	-2.956511e+00
4.913242e+01	1.265991e+01	-3.009625e+00
4.911433e+01	1.374519e+01	-3.096282e+00
4.908727e+01	1.486929e+01	-3.223827e+00
4.905083e+01	1.608998e+01	-3.393804e+00
4.901239e+01	1.757624e+01	-3.554218e+00
4.902809e+01	1.983293e+01	-3.142610e+00
4.915920e+01	1.988911e+01	-9.944690e-02
4.886309e+01	1.966609e+01	-1.391007e+00
4.794814e+01	3.880939e-01	-1.293069e+00
4.817016e+01	1.244891e-01	-1.652138e-02
4.801619e+01	1.282589e-01	-3.016041e+00
4.799193e+01	2.392108e+00	-3.451096e+00
4.801617e+01	3.887333e+00	-3.282717e+00
4.804207e+01	5.114036e+00	-3.107001e+00
4.806256e+01	6.243145e+00	-2.976008e+00
4.807693e+01	7.332507e+00	-2.886936e+00
4.808588e+01	8.404400e+00	-2.832333e+00
4.809021e+01	9.468695e+00	-2.806516e+00
4.809020e+01	1.053105e+01	-2.806581e+00
4.808587e+01	1.159531e+01	-2.832533e+00
4.807691e+01	1.266711e+01	-2.887275e+00
4.806253e+01	1.375632e+01	-2.976558e+00
4.804210e+01	1.488513e+01	-3.107696e+00
4.801639e+01	1.611104e+01	-3.282235e+00
4.799244e+01	1.760269e+01	-3.446945e+00
4.801637e+01	1.985868e+01	-3.019606e+00
4.817202e+01	1.988402e+01	-6.770825e-03
4.795145e+01	1.961842e+01	-1.281075e+00
4.701791e+01	4.014178e-01	-1.224119e+00
4.717515e+01	1.236256e-01	4.477624e-02
4.701984e+01	1.306529e-01	-2.918764e+00
4.698923e+01	2.382588e+00	-3.351911e+00
4.700395e+01	3.876769e+00	-3.178800e+00
4.702233e+01	5.104477e+00	-2.999544e+00
4.703773e+01	6.235570e+00	-2.866073e+00
4.704896e+01	7.327200e+00	-2.775203e+00
4.705615e+01	8.401298e+00	-2.719417e+00
4.705970e+01	9.467679e+00	-2.693011e+00
4.705970e+01	1.053207e+01	-2.693057e+00
4.705614e+01	1.159841e+01	-2.719548e+00
4.704893e+01	1.267243e+01	-2.775423e+00
4.703769e+01	1.376390e+01	-2.866417e+00
4.702235e+01	1.489471e+01	-2.999898e+00
4.700418e+01	1.612158e+01	-3.177678e+00
4.698979e+01	1.761192e+01	-3.346713e+00
4.702017e+01	1.985568e+01	-2.921684e+00
4.717610e+01	1.988565e+01	5.488493e-02
4.702042e+01	1.960547e+01	-1.211733e+00
4.607285e+01	4.275956e-01	-1.174050e+00
4.618155e+01	1.072172e-01	8.770834e-02
4.602694e+01	1.524472e-01	-2.842164e+00
4.599355e+01	2.385524e+00	-3.261273e+00
4.600189e+01	3.873774e+00	-3.083700e+00
4.601496e+01	5.099705e+00	-2.902235e+00
4.602655e+01	6.230948e+00	-2.767498e+00
4.603525e+01	7.323642e+00	-2.675611e+00
4.604091e+01	8.399111e+00	-2.618958e+00
4.604376e+01	9.466944e+00	-2.592121e+00
4.604376e+01	1.053281e+01	-2.592125e+00
4.604090e+01	1.160062e+01	-2.618909e+00
4.603519e+01	1.267600e+01	-2.675373e+00
4.602648e+01	1.376850e+01	-2.767276e+00
4.601497e+01	1.489945e+01	-2.901778e+00
4.600212e+01	1.612449e+01	-3.081662e+00
4.599418e+01	1.760877e+01	-3.255221e+00
4.602739e+01	1.983343e+01	-2.844347e+00
4.618188e+01	1.990305e+01	9.799054e-02
4.607465e+01	1.957902e+01	-1.161318e+00
4.511517e+01	4.517544e-01	-1.125353e+00
4.518641e+01	7.514095e-02	1.176889e-01
4.503493e+01	1.878107e-01	-2.781399e+00
4.500023e+01	2.397139e+00	-3.178514e+00
4.500431e+01	3.876153e+00	-2.996934e+00
4.501363e+01	5.098516e+00	-2.814217e+00
4.502233e+01	6.228815e+00	-2.677341e+00
4.502904e+01	7.321617e+00	-2.585037e+00
4.503354e+01	8.397711e+00	-2.529667e+00
4.503580e+01	9.466462e+00	-2.502726e+00
4.503580e+01	1.053330e+01	-2.502671e+00
4.503352e+01	1.160202e+01	-2.529516e+00
4.502904e+01	1.267808e+01	-2.586313e+00
4.502231e+01	1.377072e+01	-2.678478e+00
4.501367e+01	1.490062e+01	-2.813280e+00
4.500458e+01	1.612206e+01	-2.994269e+00
4.500091e+01	1.759702e+01	-3.171758e+00
4.503549e+01	1.979775e+01	-2.782804e+00
4.518616e+01	1.993611e+01	1.279139e-01
4.511630e+01	1.955501e+01	-1.112191e+00
4.414701e+01	4.719203e-01	-1.082005e+00
4.418947e+01	3.238879e-02	1.356630e-01
4.404250e+01	2.329793e-01	-2.733023e+00
4.400731e+01	2.414774e+00	-3.102336e+00
4.400852e+01	3.882301e+00	-2.917257e+00
4.401519e+01	5.099964e+00	-2.734164e+00
4.402182e+01	6.228490e+00	-2.596951e+00
4.402705e+01	7.320721e+00	-2.504531e+00
4.403056e+01	8.396968e+00	-2.449645e+00
4.403235e+01	9.466198e+00	-2.422930e+00
4.403235e+01	1.053357e+01	-2.422851e+00
4.403053e+01	1.160273e+01	-2.449634e+00
4.402702e+01	1.267897e+01	-2.506692e+00
4.402181e+01	1.377114e+01	-2.598818e+00
4.401527e+01	1.489921e+01	-2.733331e+00
4.400881e+01	1.611593e+01	-2.914431e+00
4.400803e+01	1.757931e+01	-3.095054e+00
4.404315e+01	1.975238e+01	-2.733639e+00
4.418874e+01	1.997971e+01	1.456068e-01
4.414753e+01	1.953518e+01	-1.068673e+00
4.317091e+01	4.904281e-01	-1.042758e+00
4.319135e+01	-1.783827e-02	1.428054e-01
4.304908e+01	2.852160e-01	-2.693682e+00
4.301399e+01	2.436567e+00	-3.031475e+00
4.301326e+01	3.891034e+00	-2.843447e+00
4.301807e+01	5.103253e+00	-2.660680e+00
4.302319e+01	6.229341e+00	-2.525607e+00
4.302730e+01	7.320733e+00	-2.433732e+00
[...]
CELL_DATA 1045
SCALARS Mu double 1
LOOKUP_TABLE default
-0.388429
-0.434839
-0.445113
-0.448285
-0.449531
-0.450112
-0.450415
-0.45058
-0.450664
-0.450691
-0.450664
-0.45058
-0.450415
-0.450112
-0.449531
-0.448285
-0.445113
-0.434839
-0.388429
-0.510131
-0.594683
-0.616974
-0.624665
-0.627855
-0.629376
-0.630171
-0.630603
-0.630824
-0.630893
-0.630827
-0.630608
-0.630178
-0.629383
-0.627864
-0.624669
-0.616953
-0.594531
-0.509768
-0.565402
-0.676259
-0.708906
-0.721304
-0.726769
-0.729481
-0.73093
-0.731726
-0.732133
-0.732261
-0.732142
-0.731746
-0.730963
-0.729527
-0.726831
-0.721339
-0.708845
-0.676044
-0.567553
-0.5965
-0.724128
-0.764294
-0.780705
-0.788374
-0.792329
-0.794491
-0.79569
-0.796305
-0.796497
-0.796315
-0.795713
-0.794527
-0.792381
-0.788441
-0.780711
-0.764093
-0.72369
-0.599882
-0.616157
-0.754595
-0.800147
-0.819703
-0.829262
-0.834366
-0.837218
-0.838823
-0.839649
-0.839907
-0.839656
-0.838838
-0.837242
-0.834395
-0.829287
-0.81961
-0.799729
-0.753863
-0.620006
-0.629462
-0.77515
-0.824573
-0.846525
-0.857613
-0.863703
-0.867176
-0.869157
-0.870184
-0.870502
-0.870184
-0.869157
-0.867173
-0.863686
-0.85756
-0.846289
-0.823906
-0.774108
-0.633433
-0.63891
-0.789621
-0.841854
-0.865629
-0.87793
-0.884838
-0.888843
-0.891155
-0.892362
-0.892735
-0.892353
-0.891135
-0.888804
-0.884767
-0.877784
-0.865235
-0.840944
-0.78829
-0.642855
-0.645861
-0.800146
-0.854446
-0.879611
-0.892871
-0.900442
-0.904899
-0.907495
-0.908859
-0.909278
-0.908838
-0.907451
-0.904819
-0.900312
-0.892624
-0.879062
-0.853314
-0.798557
-0.649722
-0.651118
-0.808004
-0.863847
-0.890074
-0.904089
-0.912208
-0.917035
-0.91987
-0.921366
-0.921824
-0.921333
-0.919799
-0.916913
-0.912002
-0.903739
-0.889378
-0.86252
-0.80619
-0.654877
-0.655184
-0.813999
-0.871014
-0.898055
-0.91267
-0.921219
-0.926358
-0.929393
-0.931
-0.93149
-0.930954
-0.929291
-0.926181
-0.920941
-0.912171
-0.897221
-0.869514
-0.811993
-0.658841
-0.658388
-0.818659
-0.87657
-0.904239
-0.919324
-0.928202
-0.933353
-0.936781
-0.938511
-0.939032
-0.938454
-0.936687
-0.933422
-0.927882
-0.918774
-0.903285
-0.874921
-0.816489
-0.661948
-0.660949
-0.822338
-0.88094
-0.909098
-0.924554
-0.933726
-0.939242
-0.942613
-0.944431
-0.944972
-0.944365
-0.94251
-0.939127
-0.933362
-0.923934
-0.908042
-0.879166
-0.820031
-0.664423
-0.663021
-0.825283
-0.884419
-0.91296
-0.928706
-0.938104
-0.943837
-0.947298
-0.94915
-0.949712
-0.94908
-0.947156
-0.943615
-0.937678
-0.92802
-0.911817
-0.882541
-0.82286
-0.666419
-0.664715
-0.827667
-0.887216
-0.916056
-0.932031
-0.941591
-0.947475
-0.951026
-0.95292
-0.953498
-0.952849
-0.950851
-0.947181
-0.941111
-0.931284
-0.91484
-0.885252
-0.825147
-0.668047
-0.666097
-0.829594
-0.889464
-0.918544
-0.934709
-0.944423
-0.950403
-0.954048
-0.955985
-0.956559
-0.955888
-0.953846
-0.950085
-0.943903
-0.933924
-0.917287
-0.887452
-0.827017
-0.669388
-0.667253
-0.831199
-0.891318
-0.920587
-0.936901
-0.946741
-0.952803
-0.956494
-0.958367
-0.959029
-0.958341
-0.955882
-0.952377
-0.946158
-0.93607
-0.919281
-0.889251
-0.828559
-0.670503
-0.668225
-0.832528
-0.892849
-0.922268
-0.938724
-0.948632
-0.95476
-0.958469
-0.960483
-0.961076
-0.960326
-0.958144
-0.954299
-0.947591
-0.937793
-0.920911
-0.890737
-0.829835
-0.671435
-0.669047
-0.833641
-0.894119
-0.923653
-0.940183
-0.950182
-0.956367
-0.960143
-0.962458
-0.963208
-0.962042
-0.959854
-0.955938
-0.949468
-0.93926
-0.922276
-0.89198
-0.830914
-0.672233
-0.669767
-0.834672
-0.895229
-0.924909
-0.941505
-0.951463
-0.957689
-0.96148
-0.963593
-0.96431
-0.963546
-0.961351
-0.957315
-0.950829
-0.940496
-0.923416
-0.893019
-0.831825
-0.672916
-0.670312
-0.835344
-0.896019
-0.925722
-0.942395
-0.952498
-0.958791
-0.962623
-0.964705
-0.965348
-0.964681
-0.962445
-0.958452
-0.951955
-0.941544
-0.924384
-0.893894
-0.832588
-0.673485
-0.670778
-0.835965
-0.896752
-0.926487
-0.943239
-0.953408
-0.959746
-0.963602
-0.965689
-0.966309
-0.965575
-0.963436
-0.959372
-0.952866
-0.942406
-0.9252
-0.894666
-0.833238
-0.673966
-0.671201
-0.836527
-0.897403
-0.927221
-0.943991
-0.954198
-0.960565
-0.964442
-0.966536
-0.96716
-0.966427
-0.964225
-0.960186
-0.953631
-0.94313
-0.925872
-0.895265
-0.833767
-0.674364
-0.671574
-0.837024
-0.897976
-0.927847
-0.944655
-0.954893
-0.961277
-0.965168
-0.967284
-0.96792
-0.96719
-0.964957
-0.96089
-0.954257
-0.943745
-0.926479
-0.895817
-0.834246
-0.674719
-0.671901
-0.837465
-0.898476
-0.928371
-0.945229
-0.955506
-0.961918
-0.965836
-0.967943
-0.9686
-0.967847
-0.965649
-0.961531
-0.954898
-0.944353
-0.927025
-0.896261
-0.834667
-0.67503
-0.672181
-0.837848
-0.89886
-0.928876
-0.945762
-0.956053
-0.96248
-0.966416
-0.968528
-0.96916
-0.968423
-0.96618
-0.96197
-0.955345
-0.944872
-0.92751
-0.896732
-0.835035
-0.675302
-0.672432
-0.838191
-0.899304
-0.929302
-0.946225
-0.956537
-0.962983
-0.966931
-0.969046
-0.969698
-0.968958
-0.966693
-0.962563
-0.955913
-0.945337
-0.927944
-0.897097
-0.835372
-0.675543
-0.67265
-0.838473
-0.899433
-0.929681
-0.946642
-0.956974
-0.963416
-0.967382
-0.969528
-0.970182
-0.969434
-0.967162
-0.963034
-0.95637
-0.945756
-0.928334
-0.897476
-0.835673
-0.675758
-0.672843
-0.838734
-0.899801
-0.930017
-0.94701
-0.957366
-0.963823
-0.96782
-0.969982
-0.970669
-0.969866
-0.967549
-0.963444
-0.956781
-0.946143
-0.928686
-0.89776
-0.835933
-0.675947
-0.673019
-0.838981
-0.900132
-0.930327
-0.947327
-0.957681
-0.964209
-0.968202
-0.970361
-0.971052
-0.970207
-0.967921
-0.963822
-0.957088
-0.946483
-0.928995
-0.898061
-0.836171
-0.676117
-0.673184
-0.839214
-0.900475
-0.930633
-0.947652
-0.958038
-0.964544
-0.968532
-0.9707
-0.971412
-0.970585
-0.968296
-0.964105
-0.957431
-0.946776
-0.929278
-0.898315
-0.836391
-0.676271
-0.673336
-0.839438
-0.900733
-0.930907
-0.947952
-0.958539
-0.96489
-0.96909
-0.971099
-0.971747
-0.971032
-0.968664
-0.964525
-0.957764
-0.947021
-0.929528
-0.898543
-0.836589
-0.676412
-0.673093
-0.832934
-0.900547
-0.931022
-0.948003
-0.95862
-0.965148
-0.969415
-0.971412
-0.972045
-0.971313
-0.969027
-0.965407
-0.958068
-0.947317
-0.929762
-0.898751
-0.83677
-0.676538
-0.673109
-0.838233
-0.900522
-0.931105
-0.948293
-0.958806
-0.965382
-0.969683
-0.971677
-0.972301
-0.971567
-0.969306
-0.965783
-0.95836
-0.947568
-0.929975
-0.898935
-0.83693
-0.676652
-0.673397
-0.839334
-0.900867
-0.931315
-0.948502
-0.959012
-0.965615
-0.970051
-0.972024
-0.97254
-0.971793
-0.969506
-0.96541
-0.958569
-0.947775
-0.930156
-0.899072
-0.83707
-0.676757
-0.673604
-0.839754
-0.901216
-0.931532
-0.948696
-0.959212
-0.965862
-0.970156
-0.972154
-0.972747
-0.971998
-0.969691
-0.965496
-0.958798
-0.947957
-0.930312
-0.899211
-0.837196
-0.676852
-0.673756
-0.839992
-0.901407
-0.931681
-0.948861
-0.959426
-0.966021
-0.970411
-0.972329
-0.972929
-0.972154
-0.969843
-0.965629
-0.958887
-0.948089
-0.930449
-0.899337
-0.83731
-0.676936
-0.673875
-0.840163
-0.901591
-0.931873
-0.949026
-0.959545
-0.966179
-0.970492
-0.972491
-0.973094
-0.972311
-0.970005
-0.965796
-0.959061
-0.948218
-0.930574
-0.899452
-0.83741
-0.677013
-0.673972
-0.840299
-0.90173
-0.932019
-0.949157
-0.959648
-0.966291
-0.970629
-0.972706
-0.973241
-0.972472
-0.970159
-0.965913
-0.959131
-0.948335
-0.93073
-0.899558
-0.837505
-0.677083
-0.674055
-0.840414
-0.901851
-0.932148
-0.949367
-0.959803
-0.966422
-0.970753
-0.972774
-0.973387
-0.972691
-0.970305
-0.966032
-0.95925
-0.948466
-0.930802
-0.899682
-0.837596
-0.677151
-0.67413
-0.840515
-0.901958
-0.932259
-0.94945
-0.959925
-0.966547
-0.97095
-0.972724
-0.973462
-0.972732
-0.970365
-0.96615
-0.959404
-0.948576
-0.930894
-0.899772
-0.837678
-0.677212
-0.674198
-0.840603
-0.90205
-0.932345
-0.94942
-0.960026
-0.966664
-0.970992
-0.972961
-0.973695
-0.972848
-0.970146
-0.966318
-0.959473
-0.948614
-0.930956
-0.899821
-0.837742
-0.677265
-0.674258
-0.84068
-0.902131
-0.932425
-0.949485
-0.960115
-0.966749
-0.971085
-0.973081
-0.973718
-0.972906
-0.970484
-0.966326
-0.959536
-0.948734
-0.93109
-0.899936
-0.83783
-0.677332
-0.67431
-0.84075
-0.902206
-0.932504
-0.949582
-0.96021
-0.967018
-0.971233
-0.973196
-0.973804
-0.973005
-0.970645
-0.966413
-0.959631
-0.948933
-0.93116
-0.900019
-0.837902
-0.677385
-0.674361
-0.840818
-0.902278
-0.932589
-0.949749
-0.960329
-0.966975
-0.971287
-0.973286
-0.973891
-0.973088
-0.970748
-0.966503
-0.959712
-0.948919
-0.931231
-0.90009
-0.837968
-0.677434
-0.674408
-0.84088
-0.902346
-0.932665
-0.949841
-0.960414
-0.967024
-0.97135
-0.973367
-0.974031
-0.97314
-0.970837
-0.966663
-0.959791
-0.948975
-0.931295
-0.900155
-0.838031
-0.67748
-0.67445
-0.840931
-0.902395
-0.932701
-0.949911
-0.960555
-0.967096
-0.971419
-0.973434
-0.974045
-0.973248
-0.970958
-0.966758
-0.959867
-0.949038
-0.931354
-0.900214
-0.838086
-0.677522
-0.674494
-0.840983
-0.902448
-0.932754
-0.949967
-0.960535
-0.967169
-0.971481
-0.973485
-0.974101
-0.973326
-0.971033
-0.966759
-0.959927
-0.949097
-0.931411
-0.900268
-0.838137
-0.677563
-0.674532
-0.841035
-0.902512
-0.932835
-0.950032
-0.96057
-0.96722
-0.971574
-0.973597
-0.974172
-0.973392
-0.971098
-0.966815
-0.959977
-0.949151
-0.931465
-0.90032
-0.838186
-0.677601
-0.674563
-0.841077
-0.902561
-0.932881
-0.949981
-0.960609
-0.967262
-0.971636
-0.973667
-0.974236
-0.973453
-0.971158
-0.966875
-0.960066
-0.949221
-0.931526
-0.90037
-0.838231
-0.677636
-0.674597
-0.841121
-0.902607
-0.932929
-0.950109
-0.960653
-0.967309
-0.971687
-0.973721
-0.974284
-0.973456
-0.97113
-0.966912
-0.960116
-0.949275
-0.931577
-0.900417
-0.838273
-0.677668
-0.674628
-0.841162
-0.90265
-0.932977
-0.95017
-0.960703
-0.967357
-0.971735
-0.973766
-0.974328
-0.973492
-0.971168
-0.967092
-0.960134
-0.949308
-0.931614
-0.900459
-0.838313
-0.677699
-0.674656
-0.8412
-0.902692
-0.933023
-0.950252
-0.960752
-0.967403
-0.971781
-0.973811
-0.974371
-0.973531
-0.971212
-0.967153
-0.960184
-0.949349
-0.931655
-0.900498
-0.83835
-0.677728
-0.674684
-0.841236
-0.902732
-0.933066
-0.950302
-0.960796
-0.967442
-0.971794
-0.973849
-0.974408
-0.973574
-0.971267
-0.967281
-0.960261
-0.949395
-0.931694
-0.900536
-0.838385
-0.677755
-0.67471
-0.84127
-0.90277
-0.933108
-0.950345
-0.960838
-0.967482
-0.971834
-0.973904
-0.974506
-0.973629
-0.97135
-0.967322
-0.960292
-0.949434
-0.931732
-0.900572
-0.838419
-0.677781

