# vtk DataFile Version 2.0
OUTPUT by 3D-VPM
ASCII
DATASET UNSTRUCTURED_GRID
POINTS 4900 double
2.405808e+02	3.009657e+00	-7.818377e+00
2.388906e+02	2.664196e+00	-4.033976e+00
2.401057e+02	1.328677e+00	-2.970956e+00
2.382301e+02	1.372123e+00	-7.268596e+00
2.425976e+02	5.411323e+00	-4.963797e+00
2.433745e+02	6.660166e+00	-5.720042e+00
2.438185e+02	7.505396e+00	-5.290174e+00
2.441330e+02	8.376722e+00	-4.008882e+00
2.432122e+02	9.327689e+00	-4.538939e+00
2.442369e+02	9.470347e+00	-4.102729e+00
2.444485e+02	1.036693e+01	-4.649363e+00
2.430654e+02	1.090880e+01	-4.638414e+00
2.440588e+02	1.172389e+01	-3.943390e+00
2.438544e+02	1.295391e+01	-5.640405e+00
2.436419e+02	1.396399e+01	-5.098492e+00
2.422179e+02	1.426554e+01	-5.169607e+00
2.420177e+02	1.674563e+01	-4.482408e+00
2.429847e+02	1.810088e+01	-6.466538e+00
2.416821e+02	1.967716e+01	-3.054186e+00
2.414789e+02	1.694338e+01	-4.839285e+00
2.404482e+02	1.709603e+00	-5.283327e+00
2.419512e+02	2.616031e+00	-4.394122e+00
2.383865e+02	3.748757e+00	-5.977424e+00
2.407332e+02	2.648092e+00	-4.940190e+00
2.429107e+02	4.459274e+00	-5.573122e+00
2.438816e+02	5.613983e+00	-5.249288e+00
2.435252e+02	5.521481e+00	-2.656666e+00
2.419148e+02	8.267692e+00	-4.687792e+00
2.447060e+02	8.837265e+00	-5.090724e+00
2.423677e+02	9.606787e+00	-3.331027e+00
2.423700e+02	1.049898e+01	-3.324640e+00
2.443256e+02	1.135254e+01	-5.426399e+00
2.420315e+02	1.177259e+01	-5.032380e+00
2.429108e+02	1.393297e+01	-2.580291e+00
2.436900e+02	1.514386e+01	-5.673696e+00
2.393433e+02	1.615690e+01	-5.477914e+00
2.402357e+02	1.541534e+01	-4.602905e+00
2.402069e+02	1.678311e+01	-6.104894e+00
2.410336e+02	1.898476e+01	-5.573207e+00
2.410103e+02	1.757685e+01	-4.770981e+00
2.409816e+02	1.777626e+00	-6.532719e+00
2.389264e+02	2.632285e+00	-2.963184e+00
2.396269e+02	1.625403e+00	-2.448164e+00
2.402306e+02	2.130600e+00	-3.540870e+00
2.424976e+02	4.505988e+00	-3.389587e+00
2.420990e+02	6.132007e+00	-4.141002e+00
2.431206e+02	5.801226e+00	-3.248951e+00
2.443415e+02	7.304784e+00	-2.499220e+00
2.436203e+02	8.359322e+00	-2.192064e+00
2.446357e+02	9.343173e+00	-2.065138e+00
2.445799e+02	1.073397e+01	-2.086615e+00
2.435591e+02	1.167244e+01	-2.244704e+00
2.440650e+02	1.271856e+01	-2.477715e+00
2.431300e+02	1.309743e+01	-2.853009e+00
2.418279e+02	1.385240e+01	-4.045550e+00
2.410988e+02	1.532143e+01	-3.805433e+00
2.392441e+02	1.691753e+01	-6.993211e+00
2.411924e+02	2.067577e+01	-5.722959e+00
2.431807e+02	1.888383e+01	-4.521535e+00
2.413308e+02	1.803841e+01	-6.107509e+00
2.390975e+02	1.610593e-01	-5.634688e+00
2.377753e+02	2.235134e+00	-4.678727e+00
2.412958e+02	1.254011e+00	-7.666927e+00
2.384726e+02	1.925335e+00	-4.238607e+00
2.426741e+02	3.093023e+00	-4.952783e+00
2.424656e+02	4.193942e+00	-4.250580e+00
2.422927e+02	7.274725e+00	-5.331299e+00
2.436176e+02	9.002553e+00	-5.269312e+00
2.418335e+02	8.436936e+00	-2.879824e+00
2.434583e+02	9.833614e+00	-4.922311e+00
2.433457e+02	1.016980e+01	-4.883788e+00
2.417935e+02	1.152567e+01	-2.968127e+00
2.431677e+02	1.183442e+01	-5.113118e+00
2.423561e+02	1.331097e+01	-5.951778e+00
2.421136e+02	1.616752e+01	-6.086296e+00
2.416035e+02	1.554953e+01	-4.216820e+00
2.418919e+02	1.896228e+01	-3.880776e+00
2.408966e+02	1.852765e+01	-6.554041e+00
2.432158e+02	1.762920e+01	-5.400030e+00
2.419029e+02	1.801797e+01	-3.156925e+00
2.371307e+02	-1.459499e-01	-6.401211e+00
2.362669e+02	2.626184e+00	-5.513096e+00
2.381030e+02	3.370252e+00	-7.196470e+00
2.379891e+02	-2.814755e-01	-7.089049e+00
2.432043e+02	1.370249e+00	-5.263958e+00
2.444775e+02	3.283138e+00	-5.981130e+00
2.451407e+02	4.948731e+00	-6.104709e+00
2.455755e+02	6.476427e+00	-6.037979e+00
2.458965e+02	7.877337e+00	-5.976671e+00
2.460518e+02	9.322281e+00	-5.961502e+00
2.460404e+02	1.074190e+01	-5.932042e+00
2.458801e+02	1.217599e+01	-5.897012e+00
2.455570e+02	1.355073e+01	-5.881327e+00
2.451815e+02	1.502414e+01	-5.950988e+00
2.446377e+02	1.667014e+01	-5.911823e+00
2.418387e+02	1.683267e+01	-5.325274e+00
2.405123e+02	1.951762e+01	-4.705656e+00
2.383822e+02	1.791392e+01	-6.476312e+00
2.375521e+02	1.717995e+01	-5.293864e+00
2.387404e+02	1.919716e+01	-4.589781e+00
2.371829e+02	6.737522e-01	-6.114094e+00
2.380132e+02	-5.396762e-01	-4.830925e+00
2.367061e+02	3.463043e+00	-5.564973e+00
2.380573e+02	3.031725e+00	-3.800479e+00
2.415176e+02	2.796236e-02	-6.467647e+00
2.422440e+02	2.920557e+00	-8.602456e+00
2.425125e+02	4.945656e+00	-8.903542e+00
2.427194e+02	6.601167e+00	-8.946146e+00
2.428510e+02	8.045142e+00	-8.906502e+00
2.429135e+02	9.376661e+00	-8.867881e+00
2.429110e+02	1.067166e+01	-8.864662e+00
2.428418e+02	1.200263e+01	-8.898055e+00
2.426981e+02	1.344472e+01	-8.935584e+00
2.424612e+02	1.509409e+01	-8.906936e+00
2.420933e+02	1.717367e+01	-8.635338e+00
2.416798e+02	1.997782e+01	-6.599655e+00
2.392068e+02	1.763262e+01	-4.896095e+00
2.371581e+02	1.698388e+01	-5.770744e+00
2.370962e+02	1.903437e+01	-4.506001e+00
2.381904e+02	2.003760e+01	-5.424466e+00
2.371719e+02	-3.536098e-01	-4.652373e+00
2.359810e+02	3.102256e+00	-4.648771e+00
2.360946e+02	-1.013739e+00	-5.803181e+00
2.381722e+02	7.311296e-01	-3.167806e+00
2.400927e+02	-7.390399e-01	-7.480952e+00
2.399063e+02	2.722547e+00	-9.581723e+00
2.400404e+02	4.969260e+00	-9.688384e+00
2.401587e+02	6.641013e+00	-9.633113e+00
2.402453e+02	8.073836e+00	-9.560411e+00
2.402899e+02	9.391688e+00	-9.513372e+00
2.402865e+02	1.067723e+01	-9.508535e+00
2.402339e+02	1.200380e+01	-9.543579e+00
2.401359e+02	1.345750e+01	-9.594788e+00
2.400024e+02	1.517141e+01	-9.595515e+00
2.398833e+02	1.741060e+01	-9.322413e+00
2.399434e+02	2.060943e+01	-7.596456e+00
2.379966e+02	1.831601e+01	-3.591322e+00
2.363898e+02	1.967407e+01	-6.139588e+00
2.363938e+02	1.710555e+01	-5.544076e+00
2.381952e+02	1.920745e+01	-6.081690e+00
2.359995e+02	-8.880351e-01	-4.080640e+00
2.351013e+02	1.500949e+00	-5.167131e+00
2.348950e+02	-8.889784e-01	-5.639680e+00
2.371616e+02	3.672962e-01	-3.140919e+00
2.382617e+02	-1.005912e+00	-8.132771e+00
2.379731e+02	2.541208e+00	-9.732748e+00
2.380822e+02	4.875931e+00	-9.838638e+00
2.381985e+02	6.597158e+00	-9.751665e+00
2.382782e+02	8.051438e+00	-9.662235e+00
2.383192e+02	9.386609e+00	-9.609519e+00
2.383200e+02	1.069014e+01	-9.603656e+00
2.382821e+02	1.203559e+01	-9.641676e+00
2.382115e+02	1.351151e+01	-9.704740e+00
2.381240e+02	1.525805e+01	-9.734653e+00
2.380707e+02	1.754513e+01	-9.525770e+00
2.382411e+02	2.082789e+01	-7.992949e+00
2.370524e+02	1.922819e+01	-3.103762e+00
2.352740e+02	2.077389e+01	-5.532566e+00
2.356319e+02	1.823366e+01	-5.356759e+00
2.362947e+02	2.044925e+01	-3.883867e+00
2.345225e+02	-3.498247e-01	-4.417626e+00
2.341109e+02	1.332320e+00	-5.849482e+00
2.342145e+02	-1.014260e+00	-4.824773e+00
2.362811e+02	4.022672e-01	-3.308225e+00
2.366498e+02	-1.116832e+00	-8.200753e+00
2.364072e+02	2.379558e+00	-9.626479e+00
2.364976e+02	4.747589e+00	-9.757258e+00
2.366026e+02	6.518772e+00	-9.676097e+00
2.366769e+02	8.008531e+00	-9.584135e+00
2.367160e+02	9.371806e+00	-9.529770e+00
2.367203e+02	1.070094e+01	-9.524530e+00
2.366922e+02	1.207140e+01	-9.566142e+00
2.366372e+02	1.357358e+01	-9.637263e+00
2.365682e+02	1.535038e+01	-9.680604e+00
2.365258e+02	1.767320e+01	-9.490347e+00
2.367208e+02	2.097866e+01	-8.063360e+00
2.360294e+02	1.912215e+01	-3.719556e+00
2.343380e+02	2.067144e+01	-5.109288e+00
2.342701e+02	1.853967e+01	-5.874356e+00
2.348114e+02	2.036880e+01	-4.224108e+00
2.344145e+02	-1.543345e-01	-3.316553e+00
2.335351e+02	8.994983e-01	-5.269852e+00
2.339898e+02	-1.497172e+00	-4.237755e+00
2.359112e+02	-6.385776e-01	-2.244692e+00
2.352395e+02	-1.241048e+00	-8.039717e+00
2.350663e+02	2.226070e+00	-9.438560e+00
2.351443e+02	4.623582e+00	-9.601518e+00
2.352335e+02	6.436190e+00	-9.531175e+00
2.352977e+02	7.961192e+00	-9.440048e+00
2.353331e+02	9.353787e+00	-9.385543e+00
2.353391e+02	1.070961e+01	-9.381363e+00
2.353175e+02	1.210610e+01	-9.425735e+00
2.352723e+02	1.363559e+01	-9.500980e+00
2.352135e+02	1.544379e+01	-9.547581e+00
2.351725e+02	1.780371e+01	-9.350708e+00
2.353332e+02	2.114307e+01	-7.947152e+00
2.358845e+02	2.036350e+01	-2.229611e+00
2.340444e+02	2.148486e+01	-4.191220e+00
2.336565e+02	1.929245e+01	-5.364086e+00
2.343548e+02	1.992212e+01	-3.688635e+00
2.334050e+02	-5.778688e-01	-2.795294e+00
2.327337e+02	1.458497e+00	-5.019701e+00
2.330137e+02	-1.829413e+00	-3.708246e+00
2.348250e+02	-1.371236e+00	-1.659749e+00
2.339869e+02	-1.361546e+00	-7.775342e+00
2.338642e+02	2.086650e+00	-9.227692e+00
2.339274e+02	4.514569e+00	-9.416433e+00
2.340014e+02	6.361161e+00	-9.356167e+00
2.340585e+02	7.916308e+00	-9.274109e+00
2.340891e+02	9.336009e+00	-9.220636e+00
2.340954e+02	1.071670e+01	-9.217385e+00
2.340782e+02	1.213767e+01	-9.263509e+00
2.340409e+02	1.369328e+01	-9.341151e+00
2.339901e+02	1.553195e+01	-9.386022e+00
2.339509e+02	1.792889e+01	-9.171613e+00
2.340706e+02	2.129205e+01	-7.722912e+00
2.348407e+02	2.140337e+01	-1.666629e+00
2.331598e+02	2.180411e+01	-3.631215e+00
2.327690e+02	1.860885e+01	-5.112079e+00
2.337266e+02	2.049022e+01	-3.018693e+00
2.325239e+02	3.073139e-01	-3.521040e+00
2.320808e+02	2.634089e-01	-5.135095e+00
2.324209e+02	-1.265923e+00	-2.356223e+00
2.336444e+02	-1.554279e+00	-1.265049e+00
2.328449e+02	-1.465308e+00	-7.492129e+00
2.327504e+02	1.967170e+00	-9.019259e+00
2.328019e+02	4.422447e+00	-9.236441e+00
2.328620e+02	6.296547e+00	-9.183800e+00
2.329093e+02	7.876900e+00	-9.105907e+00
2.329351e+02	9.320054e+00	-9.053950e+00
2.329409e+02	1.072246e+01	-9.051496e+00
2.329272e+02	1.216495e+01	-9.098874e+00
2.328970e+02	1.374400e+01	-9.178768e+00
2.328541e+02	1.561045e+01	-9.220287e+00
2.328185e+02	1.804078e+01	-8.984109e+00
2.329093e+02	2.141516e+01	-7.463724e+00
2.336186e+02	2.159778e+01	-1.258797e+00
2.324379e+02	2.141842e+01	-2.554616e+00
2.321425e+02	1.970441e+01	-5.165164e+00
2.328687e+02	1.979925e+01	-2.874954e+00
2.321954e+02	-7.721026e-01	-2.932491e+00
2.317442e+02	-1.763606e-01	-1.746593e+00
2.307476e+02	-4.678956e-01	-5.196475e+00
2.324575e+02	-1.633259e+00	-9.711250e-01
2.317622e+02	-1.548688e+00	-7.214342e+00
2.316921e+02	1.868249e+00	-8.823561e+00
[...]
CELL_DATA 4636
SCALARS Mu double 1
LOOKUP_TABLE default
-0.388429
-0.434839
-0.445113
-0.448285
-0.449531
-0.450112
-0.450415
-0.45058
-0.450664
-0.450691
-0.450664
-0.45058
-0.450415
-0.450112
-0.449531
-0.448285
-0.445113
-0.434839
-0.388429
-0.510131
-0.594683
-0.616974
-0.624665
-0.627855
-0.629376
-0.630171
-0.630603
-0.630824
-0.630893
-0.630827
-0.630608
-0.630178
-0.629383
-0.627864
-0.624669
-0.616953
-0.594531
-0.509768
-0.565402
-0.676259
-0.708906
-0.721304
-0.726769
-0.729481
-0.73093
-0.731726
-0.732133
-0.732261
-0.732142
-0.731746
-0.730963
-0.729527
-0.726831
-0.721339
-0.708845
-0.676044
-0.567553
-0.5965
-0.724128
-0.764294
-0.780705
-0.788374
-0.792329
-0.794491
-0.79569
-0.796305
-0.796497
-0.796315
-0.795713
-0.794527
-0.792381
-0.788441
-0.780711
-0.764093
-0.72369
-0.599882
-0.616157
-0.754595
-0.800147
-0.819703
-0.829262
-0.834366
-0.837218
-0.838823
-0.839649
-0.839907
-0.839656
-0.838838
-0.837242
-0.834395
-0.829287
-0.81961
-0.799729
-0.753863
-0.620006
-0.629462
-0.77515
-0.824573
-0.846525
-0.857613
-0.863703
-0.867176
-0.869157
-0.870184
-0.870502
-0.870184
-0.869157
-0.867173
-0.863686
-0.85756
-0.846289
-0.823906
-0.774108
-0.633433
-0.63891
-0.789621
-0.841854
-0.865629
-0.87793
-0.884838
-0.888843
-0.891155
-0.892362
-0.892735
-0.892353
-0.891135
-0.888804
-0.884767
-0.877784
-0.865235
-0.840944
-0.78829
-0.642855
-0.645861
-0.800146
-0.854446
-0.879611
-0.892871
-0.900442
-0.904899
-0.907495
-0.908859
-0.909278
-0.908838
-0.907451
-0.904819
-0.900312
-0.892624
-0.879062
-0.853314
-0.798557
-0.649722
-0.651118
-0.808004
-0.863847
-0.890074
-0.904089
-0.912208
-0.917035
-0.91987
-0.921366
-0.921824
-0.921333
-0.919799
-0.916913
-0.912002
-0.903739
-0.889378
-0.86252
-0.80619
-0.654877
-0.655184
-0.813999
-0.871014
-0.898055
-0.91267
-0.921219
-0.926358
-0.929393
-0.931
-0.93149
-0.930954
-0.929291
-0.926181
-0.920941
-0.912171
-0.897221
-0.869514
-0.811993
-0.658841
-0.658388
-0.818659
-0.87657
-0.904239
-0.919324
-0.928202
-0.933353
-0.936781
-0.938511
-0.939032
-0.938454
-0.936687
-0.933422
-0.927882
-0.918774
-0.903285
-0.874921
-0.816489
-0.661948
-0.660949
-0.822338
-0.88094
-0.909098
-0.924554
-0.933726
-0.939242
-0.942613
-0.944431
-0.944972
-0.944365
-0.94251
-0.939127
-0.933362
-0.923934
-0.908042
-0.879166
-0.820031
-0.664423
-0.663021
-0.825283
-0.884419
-0.91296
-0.928706
-0.938104
-0.943837
-0.947298
-0.94915
-0.949712
-0.94908
-0.947156
-0.943615
-0.937678
-0.92802
-0.911817
-0.882541
-0.82286
-0.666419
-0.664715
-0.827667
-0.887216
-0.916056
-0.932031
-0.941591
-0.947475
-0.951026
-0.95292
-0.953498
-0.952849
-0.950851
-0.947181
-0.941111
-0.931284
-0.91484
-0.885252
-0.825147
-0.668047
-0.666097
-0.829594
-0.889464
-0.918544
-0.934709
-0.944423
-0.950403
-0.954048
-0.955985
-0.956559
-0.955888
-0.953846
-0.950085
-0.943903
-0.933924
-0.917287
-0.887452
-0.827017
-0.669388
-0.667253
-0.831199
-0.891318
-0.920587
-0.936901
-0.946741
-0.952803
-0.956494
-0.958367
-0.959029
-0.958341
-0.955882
-0.952377
-0.946158
-0.93607
-0.919281
-0.889251
-0.828559
-0.670503
-0.668225
-0.832528
-0.892849
-0.922268
-0.938724
-0.948632
-0.95476
-0.958469
-0.960483
-0.961076
-0.960326
-0.958144
-0.954299
-0.947591
-0.937793
-0.920911
-0.890737
-0.829835
-0.671435
-0.669047
-0.833641
-0.894119
-0.923653
-0.940183
-0.950182
-0.956367
-0.960143
-0.962458
-0.963208
-0.962042
-0.959854
-0.955938
-0.949468
-0.93926
-0.922276
-0.89198
-0.830914
-0.672233
-0.669767
-0.834672
-0.895229
-0.924909
-0.941505
-0.951463
-0.957689
-0.96148
-0.963593
-0.96431
-0.963546
-0.961351
-0.957315
-0.950829
-0.940496
-0.923416
-0.893019
-0.831825
-0.672916
-0.670312
-0.835344
-0.896019
-0.925722
-0.942395
-0.952498
-0.958791
-0.962623
-0.964705
-0.965348
-0.964681
-0.962445
-0.958452
-0.951955
-0.941544
-0.924384
-0.893894
-0.832588
-0.673485
-0.670778
-0.835965
-0.896752
-0.926487
-0.943239
-0.953408
-0.959746
-0.963602
-0.965689
-0.966309
-0.965575
-0.963436
-0.959372
-0.952866
-0.942406
-0.9252
-0.894666
-0.833238
-0.673966
-0.671201
-0.836527
-0.897403
-0.927221
-0.943991
-0.954198
-0.960565
-0.964442
-0.966536
-0.96716
-0.966427
-0.964225
-0.960186
-0.953631
-0.94313
-0.925872
-0.895265
-0.833767
-0.674364
-0.671574
-0.837024
-0.897976
-0.927847
-0.944655
-0.954893
-0.961277
-0.965168
-0.967284
-0.96792
-0.96719
-0.964957
-0.96089
-0.954257
-0.943745
-0.926479
-0.895817
-0.834246
-0.674719
-0.671901
-0.837465
-0.898476
-0.928371
-0.945229
-0.955506
-0.961918
-0.965836
-0.967943
-0.9686
-0.967847
-0.965649
-0.961531
-0.954898
-0.944353
-0.927025
-0.896261
-0.834667
-0.67503
-0.672181
-0.837848
-0.89886
-0.928876
-0.945762
-0.956053
-0.96248
-0.966416
-0.968528
-0.96916
-0.968423
-0.96618
-0.96197
-0.955345
-0.944872
-0.92751
-0.896732
-0.835035
-0.675302
-0.672432
-0.838191
-0.899304
-0.929302
-0.946225
-0.956537
-0.962983
-0.966931
-0.969046
-0.969698
-0.968958
-0.966693
-0.962563
-0.955913
-0.945337
-0.927944
-0.897097
-0.835372
-0.675543
-0.67265
-0.838473
-0.899433
-0.929681
-0.946642
-0.956974
-0.963416
-0.967382
-0.969528
-0.970182
-0.969434
-0.967162
-0.963034
-0.95637
-0.945756
-0.928334
-0.897476
-0.835673
-0.675758
-0.672843
-0.838734
-0.899801
-0.930017
-0.94701
-0.957366
-0.963823
-0.96782
-0.969982
-0.970669
-0.969866
-0.967549
-0.963444
-0.956781
-0.946143
-0.928686
-0.89776
-0.835933
-0.675947
-0.673019
-0.838981
-0.900132
-0.930327
-0.947327
-0.957681
-0.964209
-0.968202
-0.970361
-0.971052
-0.970207
-0.967921
-0.963822
-0.957088
-0.946483
-0.928995
-0.898061
-0.836171
-0.676117
-0.673184
-0.839214
-0.900475
-0.930633
-0.947652
-0.958038
-0.964544
-0.968532
-0.9707
-0.971412
-0.970585
-0.968296
-0.964105
-0.957431
-0.946776
-0.929278
-0.898315
-0.836391
-0.676271
-0.673336
-0.839438
-0.900733
-0.930907
-0.947952
-0.958539
-0.96489
-0.96909
-0.971099
-0.971747
-0.971032
-0.968664
-0.964525
-0.957764
-0.947021
-0.929528
-0.898543
-0.836589
-0.676412
-0.673093
-0.832934
-0.900547
-0.931022
-0.948003
-0.95862
-0.965148
-0.969415
-0.971412
-0.972045
-0.971313
-0.969027
-0.965407
-0.958068
-0.947317
-0.929762
-0.898751
-0.83677
-0.676538
-0.673109
-0.838233
-0.900522
-0.931105
-0.948293
-0.958806
-0.965382
-0.969683
-0.971677
-0.972301
-0.971567
-0.969306
-0.965783
-0.95836
-0.947568
-0.929975
-0.898935
-0.83693
-0.676652
-0.673397
-0.839334
-0.900867
-0.931315
-0.948502
-0.959012
-0.965615
-0.970051
-0.972024
-0.97254
-0.971793
-0.969506
-0.96541
-0.958569
-0.947775
-0.930156
-0.899072
-0.83707
-0.676757
-0.673604
-0.839754
-0.901216
-0.931532
-0.948696
-0.959212
-0.965862
-0.970156
-0.972154
-0.972747
-0.971998
-0.969691
-0.965496
-0.958798
-0.947957
-0.930312
-0.899211
-0.837196
-0.676852
-0.673756
-0.839992
-0.901407
-0.931681
-0.948861
-0.959426
-0.966021
-0.970411
-0.972329
-0.972929
-0.972154
-0.969843
-0.965629
-0.958887
-0.948089
-0.930449
-0.899337
-0.83731
-0.676936
-0.673875
-0.840163
-0.901591
-0.931873
-0.949026
-0.959545
-0.966179
-0.970492
-0.972491
-0.973094
-0.972311
-0.970005
-0.965796
-0.959061
-0.948218
-0.930574
-0.899452
-0.83741
-0.677013
-0.673972
-0.840299
-0.90173
-0.932019
-0.949157
-0.959648
-0.966291
-0.970629
-0.972706
-0.973241
-0.972472
-0.970159
-0.965913
-0.959131
-0.948335
-0.93073
-0.899558
-0.837505
-0.677083
-0.674055
-0.840414
-0.901851
-0.932148
-0.949367
-0.959803
-0.966422
-0.970753
-0.972774
-0.973387
-0.972691
-0.970305
-0.966032
-0.95925
-0.948466
-0.930802
-0.899682
-0.837596
-0.677151
-0.67413
-0.840515
-0.901958
-0.932259
-0.94945
-0.959925
-0.966547
-0.97095
-0.972724
-0.973462
-0.972732
-0.970365
-0.96615
-0.959404
-0.948576
-0.930894
-0.899772
-0.837678
-0.677212
-0.674198
-0.840603
-0.90205
-0.932345
-0.94942
-0.960026
-0.966664
-0.970992
-0.972961
-0.973695
-0.972848
-0.970146
-0.966318
-0.959473
-0.948614
-0.930956
-0.899821
-0.837742
-0.677265
-0.674258
-0.84068
-0.902131
-0.932425
-0.949485
-0.960115
-0.966749
-0.971085
-0.973081
-0.973718
-0.972906
-0.970484
-0.966326
-0.959536
-0.948734
-0.93109
-0.899936
-0.83783
-0.677332
-0.67431
-0.84075
-0.902206
-0.932504
-0.949582
-0.96021
-0.967018
-0.971233
-0.973196
-0.973804
-0.973005
-0.970645
-0.966413
-0.959631
-0.948933
-0.93116
-0.900019
-0.837902
-0.677385
-0.674361
-0.840818
-0.902278
-0.932589
-0.949749
-0.960329
-0.966975
-0.971287
-0.973286
-0.973891
-0.973088
-0.970748
-0.966503
-0.959712
-0.948919
-0.931231
-0.90009
-0.837968
-0.677434
-0.674408
-0.84088
-0.902346
-0.932665
-0.949841
-0.960414
-0.967024
-0.97135
-0.973367
-0.974031
-0.97314
-0.970837
-0.966663
-0.959791
-0.948975
-0.931295
-0.900155
-0.838031
-0.67748
-0.67445
-0.840931
-0.902395
-0.932701
-0.949911
-0.960555
-0.967096
-0.971419
-0.973434
-0.974045
-0.973248
-0.970958
-0.966758
-0.959867
-0.949038
-0.931354
-0.900214
-0.838086
-0.677522
-0.674494
-0.840983
-0.902448
-0.932754
-0.949967
-0.960535
-0.967169
-0.971481
-0.973485
-0.974101
-0.973326
-0.971033
-0.966759
-0.959927
-0.949097
-0.931411
-0.900268
-0.838137
-0.677563
-0.674532
-0.841035
-0.902512
-0.932835
-0.950032
-0.96057
-0.96722
-0.971574
-0.973597
-0.974172
-0.973392
-0.971098
-0.966815
-0.959977
-0.949151
-0.931465
-0.90032
-0.838186
-0.677601
-0.674563
-0.841077
-0.902561
-0.932881
-0.949981
-0.960609
-0.967262
-0.971636
-0.973667
-0.974236
-0.973453
-0.971158
-0.966875
-0.960066
-0.949221
-0.931526
-0.90037
-0.838231
-0.677636
-0.674597
-0.841121
-0.902607
-0.932929
-0.950109
-0.960653
-0.967309
-0.971687
-0.973721
-0.974284
-0.973456
-0.97113
-0.966912
-0.960116
-0.949275
-0.931577
-0.900417
-0.838273
-0.677668
-0.674628
-0.841162
-0.90265
-0.932977
-0.95017
-0.960703
-0.967357
-0.971735
-0.973766
-0.974328
-0.973492
-0.971168
-0.967092
-0.960134
-0.949308
-0.931614
-0.900459
-0.838313
-0.677699
-0.674656
-0.8412
-0.902692
-0.933023
-0.950252
-0.960752
-0.967403
-0.971781
-0.973811
-0.974371
-0.973531
-0.971212
-0.967153
-0.960184
-0.949349
-0.931655
-0.900498
-0.83835
-0.677728
-0.674684
-0.841236
-0.902732
-0.933066
-0.950302
-0.960796
-0.967442
-0.971794
-0.973849
-0.974408
-0.973574
-0.971267
-0.967281
-0.960261
-0.949395
-0.931694
-0.900536
-0.838385
-0.677755
-0.67471
-0.84127
-0.90277
-0.933108
-0.950345
-0.960838
-0.967482
-0.971834
-0.973904
-0.974506
-0.973629
-0.97135
-0.967322
-0.960292
-0.949434
-0.931732
-0.900572
-0.838419
-0.677781
-0.674735
-0.841302
-0.902806
-0.933151
-0.950391
-0.960933
-0.967553
-0.971876
-0.973897
-0.974498
-0.973663
-0.97135
-0.967205
-0.960267
-0.949464
-0.931766
-0.900606
-0.83845
-0.677805
-0.674759
-0.841335
-0.902839
-0.933187
-0.950428
-0.960939
-0.967594
-0.971912
-0.973932
-0.974602
-0.973733
-0.971418
-0.967176
-0.960304
-0.949493
-0.931798
-0.900637
-0.838479
-0.677828
-0.674781
-0.841364
-0.90287
-0.933216
-0.950411
-0.960962
-0.967628
-0.971945
-0.973957
-0.974573
-0.973748
-0.971466
-0.967192
-0.960335
-0.949592
-0.931833
-0.900668
-0.838507
-0.67785
-0.674804
-0.84139
-0.902899
-0.933245
-0.950432
-0.96099
-0.967662
-0.972023
-0.973995
-0.974628
-0.973778
-0.971495
-0.96722
-0.960368
-0.949636
-0.931868
-0.900698
-0.838534
-0.677869
-0.674824
-0.841417
-0.902924
-0.933269
-0.950456
-0.961015
-0.96769
-0.97206
-0.97402
-0.97463
-0.973798
-0.971486
-0.967243
-0.960397
-0.949669
-0.931899
-0.900726
-0.838559
-0.677889
-0.674839
-0.841437
-0.902946
-0.933288
-0.950481
-0.961041
-0.967719
-0.972119
-0.974049
-0.974651
-0.973817
-0.971502
-0.967263
-0.960396
-0.949697
-0.931927
-0.900752
-0.838583
-0.677907
-0.674856
-0.841458
-0.90297
-0.933315
-0.950521
-0.961071
-0.96775
-0.972159
-0.974092
-0.974728
-0.973845
-0.971524
-0.967276
-0.960413
-0.949721
-0.931953
-0.900777
-0.838606
-0.677925
-0.674876
-0.841481
-0.902995
-0.93334
-0.95055
-0.961098
-0.967774
-0.97216
-0.974122
-0.974765
-0.973875
-0.971551
-0.967298
-0.960435
-0.949745
-0.931976
-0.9008
-0.838627
-0.677942
-0.67489
-0.841502
-0.903017
-0.933365
-0.950565
-0.961167
-0.967803
-0.972182
-0.974148
-0.974794
-0.973902
-0.971577
-0.967322
-0.960459
-0.949779
-0.932001
-0.900822
-0.838648
-0.677958
-0.674906
-0.841521
-0.903038
-0.933388
-0.950589
-0.961201
-0.967837
-0.972208
-0.974173
-0.974819
-0.973926
-0.9716
-0.967343
-0.960476
-0.949733
-0.932018
-0.900842
-0.838667
-0.677973
-0.674921
-0.841543
-0.903059
-0.933409
-0.950609
-0.961185
-0.967865
-0.972259
-0.974629
-0.974899
-0.973964
-0.971643
-0.967457
-0.961978
-0.949833
-0.932052
-0.900866
-0.838687
-0.677988
-0.674935
-0.841562
-0.903079
-0.93343
-0.950629
-0.961202
-0.967896
-0.972312
-0.974752
-0.97497
-0.974015
-0.971713
-0.967635
-0.962331
-0.949975
-0.93211
-0.900898
-0.83871
-0.678004
-0.674949
-0.841579
-0.903098
-0.93345
-0.950651
-0.961225
-0.967926
-0.972352
-0.97481
-0.975024
-0.974065
-0.971777
-0.967727
-0.962467
-0.950076
-0.932165
-0.900932
-0.838734
-0.678021
-0.674962
-0.841596
-0.903116
-0.933469
-0.950671
-0.961246
-0.967948
-0.972359
-0.974421
-0.975038
-0.974101
-0.971824
-0.96779
-0.962543
-0.950139
-0.932207
-0.900963
-0.838762
-0.678038
-0.674975
-0.841612
-0.903133
-0.933486
-0.950689
-0.961264
-0.967961
-0.972357
-0.974359
-0.975035
-0.974123
-0.971858
-0.967834
-0.962594
-0.950183
-0.932241
-0.90099
-0.838784
-0.678053
-0.674986
-0.841627
-0.903149
-0.933503
-0.950705
-0.961279
-0.967973
-0.972365
-0.974354
-0.97504
-0.974142
-0.971885
-0.967867
-0.962631
-0.950216
-0.932268
-0.901014
-0.838804
-0.678068
-0.674997
-0.841641
-0.903165
-0.933518
-0.950721
-0.961294
-0.967986
-0.972376
-0.974362
-0.975054
-0.974169
-0.971909
-0.967894
-0.962661
-0.950243
-0.932292
-0.901035
-0.838822
-0.678081
-0.675008
-0.841655
-0.903179
-0.933533
-0.950736
-0.961309
-0.968
-0.972387
-0.974374
-0.975071
-0.974192
-0.971931
-0.967917
-0.962685
-0.950266
-0.932312
-0.901055
-0.838839
-0.678093
-0.675018
-0.841668
-0.903193
-0.933548
-0.950752
-0.961333
-0.968121
-0.97241
-0.97439
-0.975087
-0.97421
-0.971949
-0.967937
-0.962707
-0.950286
-0.93233
-0.901072
-0.838854
-0.678105
-0.675028
-0.841681
-0.903207
-0.933563
-0.950769
-0.961355
-0.96816
-0.972434
-0.974407
-0.975103
-0.974227
-0.971966
-0.967955
-0.962726
-0.950303
-0.932346
-0.901087
-0.838868
-0.678116
-0.675038
-0.841693
-0.90322
-0.933577
-0.950785
-0.961373
-0.968182
-0.972453
-0.974424
-0.975119
-0.974243
-0.971982
-0.967971
-0.962743
-0.95032
-0.932361
-0.901101
-0.838881
-0.678126
-0.675047
-0.841705
-0.903233
-0.933591
-0.950799
-0.961389
-0.968199
-0.97247
-0.974439
-0.975134
-0.974257
-0.971997
-0.967987
-0.962759
-0.950334
-0.932375
-0.901114
-0.838893
-0.678135
-0.675056
-0.841716
-0.903245
-0.933603
-0.950813
-0.961403
-0.968214
-0.972485
-0.974453
-0.975148
-0.974271
-0.97201
-0.968001
-0.962773
-0.950348
-0.932388
-0.901127
-0.838904
-0.678144
-0.675064
-0.841727
-0.903257
-0.933616
-0.950826
-0.961416
-0.968228
-0.972498
-0.974466
-0.975161
-0.974285
-0.972023
-0.968014
-0.962787
-0.950361
-0.9324
-0.901138
-0.838915
-0.678152
-0.675072
-0.841737
-0.903268
-0.933627
-0.950838
-0.961429
-0.968241
-0.972511
-0.974479
-0.975174
-0.974297
-0.972036
-0.968029
-0.962815
-0.950376
-0.932412
-0.901149
-0.838925
-0.67816
-0.67508
-0.841747
-0.903278
-0.933638
-0.950849
-0.96144
-0.968253
-0.972523
-0.974491
-0.975186
-0.974309
-0.972048
-0.968044
-0.962833
-0.950397
-0.932556
-0.901167
-0.838936
-0.678168
-0.675088
-0.841757
-0.903289
-0.933649
-0.95086
-0.961452
-0.968264
-0.972535
-0.974504
-0.975203
-0.974349
-0.972065
-0.968058
-0.962849
-0.950411
-0.932463
-0.901181
-0.838947
-0.678176
-0.675095
-0.841766
-0.903299
-0.933659
-0.950871
-0.961463
-0.968276
-0.972546
-0.974516
-0.975217
-0.974367
-0.972079
-0.96807
-0.962859
-0.950418
-0.932455
-0.901187
-0.838956
-0.678183
-0.675102
-0.841775
-0.903308
-0.933669
-0.95088
-0.961472
-0.968281
-0.972509
-0.974521
-0.975227
-0.97438
-0.972092
-0.968082
-0.96287
-0.950427
-0.93246
-0.901193
-0.838964
-0.67819
-0.675109
-0.841783
-0.903317
-0.933678
-0.950889
-0.96148
-0.968287
-0.972508
-0.974527
-0.975237
-0.974391
-0.972103
-0.968092
-0.96288
-0.950439
-0.932468
-0.901201
-0.838972
-0.678196
-0.675115
-0.841791
-0.903325
-0.933687
-0.950898
-0.961488
-0.968294
-0.972514
-0.974534
-0.975245
-0.9744
-0.972112
-0.968102
-0.96289
-0.950449
-0.932476
-0.901209
-0.838979
-0.678202
-0.675121
-0.841799
-0.903334
-0.933695
-0.950906
-0.961496
-0.968302
-0.972522
-0.974542
-0.975254
-0.974409
-0.972122
-0.968111
-0.962899
-0.950458
-0.932485
-0.901217
-0.838987
-0.678208
-0.675127
-0.841806
-0.903341
-0.933703
-0.950914
-0.961505
-0.96831
-0.972529
-0.97455
-0.975262
-0.974418
-0.972131
-0.96812
-0.962908
-0.950466
-0.932493
-0.901225
-0.838994
-0.678213
-0.675132
-0.841813
-0.903349
-0.933711
-0.950922
-0.961513
-0.968318
-0.972537
-0.974558
-0.975271
-0.974426
-0.972139
-0.968128
-0.962916
-0.950474
-0.932501
-0.901232
-0.839001
-0.678219
-0.675138
-0.84182
-0.903356
-0.933718
-0.95093
-0.96152
-0.968326
-0.972545
-0.974565
-0.975279
-0.974435
-0.972147
-0.968136
-0.962924
-0.950482
-0.932508
-0.90124
-0.839008
-0.678224
-0.675143
-0.841826
-0.903363
-0.933726
-0.950937
-0.961528
-0.968333
-0.972552
-0.974573
-0.975286
-0.974442
-0.972155
-0.968144
-0.962932
-0.95049
-0.932516
-0.901247
-0.839014
-0.678229
-0.67515
-0.841834
-0.903372
-0.933764
-0.950946
-0.961535
-0.968341
-0.97256
-0.97458
-0.975294
-0.97445
-0.972162
-0.968151
-0.962939
-0.950497
-0.932523
-0.901253
-0.83902
-0.678234
-0.675155
-0.841841
-0.90338
-0.933778
-0.950955
-0.961543
-0.968348
-0.972567
-0.974587
-0.975301
-0.974457
-0.972169
-0.968159
-0.962946
-0.950504
-0.932529
-0.90126
-0.839027
-0.678239
-0.67516
-0.841847
-0.903388
-0.933787
-0.950964
-0.961551
-0.968355
-0.972574
-0.974594
-0.975308
-0.974464
-0.972176
-0.968165
-0.962953
-0.95051
-0.932536
-0.901266
-0.839032
-0.678244
-0.675165
-0.841853
-0.903395
-0.933794
-0.950971
-0.961558
-0.968362
-0.972581
-0.974601
-0.975316
-0.974475
-0.972211
-0.968177
-0.96296
-0.950517
-0.932542
-0.901272
-0.839038
-0.678248
-0.675169
-0.841859
-0.903401
-0.933801
-0.950977
-0.961564
-0.968368
-0.972587
-0.974608
-0.975323
-0.974485
-0.972224
-0.968186
-0.962968
-0.950524
-0.932548
-0.901278
-0.839043
-0.678252
-0.675174
-0.841864
-0.903407
-0.933807
-0.950984
-0.96157
-0.968375
-0.972594
-0.974615
-0.97533
-0.974492
-0.972233
-0.968194
-0.962975
-0.95053
-0.932554
-0.901284
-0.839049
-0.678256
-0.675178
-0.84187
-0.903412
-0.933813
-0.95099
-0.961576
-0.968381
-0.9726
-0.974621
-0.975337
-0.974499
-0.97224
-0.968201
-0.962981
-0.950536
-0.93256
-0.901289
-0.839054
-0.67826
-0.675182
-0.841875
-0.903418
-0.933818
-0.950995
-0.961582
-0.968387
-0.972606
-0.974627
-0.975343
-0.974506
-0.972247
-0.968207
-0.962987
-0.950542
-0.932566
-0.901294
-0.839059
-0.678264
-0.675185
-0.841879
-0.903421
-0.933792
-0.950999
-0.961587
-0.968392
-0.972611
-0.974633
-0.975349
-0.974512
-0.972253
-0.968213
-0.962993
-0.950548
-0.932571
-0.9013
-0.839063
-0.678268
-0.675189
-0.841883
-0.903424
-0.93379
-0.951002
-0.961592
-0.968398
-0.972617
-0.97464
-0.97536
-0.974519
-0.972259
-0.968219
-0.962998
-0.950553
-0.932576
-0.901305
-0.839068
-0.678272
-0.675192
-0.841887
-0.903428
-0.933793
-0.951005
-0.961596
-0.968403
-0.972623
-0.974646
-0.975366
-0.974525
-0.972264
-0.968225
-0.963004
-0.950558
-0.932581
-0.90131
-0.839073
-0.678275
-0.675195
-0.841891
-0.903431
-0.933794
-0.95101
-0.961601
-0.968408
-0.972628
-0.974651
-0.975372
-0.974531
-0.97227
-0.96823
-0.963009
-0.950563
-0.932586
-0.901314
-0.839077
-0.678279
-0.675198
-0.841894
-0.903435
-0.933798
-0.951015
-0.961606
-0.968412
-0.972633
-0.974658
-0.975382
-0.974537
-0.972275
-0.968235
-0.963014
-0.950568
-0.932591
-0.901319
-0.839081
-0.678282
-0.675201
-0.841898
-0.903439
-0.933802
-0.951019
-0.961611
-0.968417
-0.972638
-0.974663
-0.975388
-0.974543
-0.972281
-0.96824
-0.963019
-0.950573
-0.932596
-0.901323
-0.839085
-0.678285
-0.675204
-0.841902
-0.903443
-0.933806
-0.951023
-0.961615
-0.968422
-0.972643
-0.974668
-0.975393
-0.974548
-0.972285
-0.968245
-0.963024
-0.950577
-0.9326
-0.901328
-0.839089
-0.678289
-0.675207
-0.841906
-0.903447
-0.93381
-0.951027
-0.961619
-0.968426
-0.972647
-0.974673
-0.975398
-0.974553
-0.97229
-0.968249
-0.963028
-0.950582
-0.932605
-0.901332
-0.839093
-0.678292
-0.67521