# vtk DataFile Version 2.0
OUTPUT by 3D-VPM
ASCII
DATASET UNSTRUCTURED_GRID
POINTS 340 double
1.600666e+01	2.144743e-01	-2.404054e-01
1.604359e+01	1.088486e+00	-6.626721e-01
1.589846e+01	2.156035e+00	-4.985183e-01
1.590384e+01	3.187681e+00	-3.850065e-01
1.589721e+01	4.228446e+00	-3.329660e-01
1.589007e+01	5.274332e+00	-2.996003e-01
1.588585e+01	6.322915e+00	-2.786432e-01
1.588333e+01	7.372859e+00	-2.656745e-01
1.588190e+01	8.423495e+00	-2.581182e-01
1.588132e+01	9.474404e+00	-2.546100e-01
1.588132e+01	1.052560e+01	-2.546078e-01
1.588190e+01	1.157650e+01	-2.581116e-01
1.588332e+01	1.262714e+01	-2.656630e-01
1.588584e+01	1.367708e+01	-2.786263e-01
1.589006e+01	1.472566e+01	-2.995777e-01
1.589721e+01	1.577154e+01	-3.329360e-01
1.590387e+01	1.681229e+01	-3.849624e-01
1.589857e+01	1.784394e+01	-4.984248e-01
1.604374e+01	1.891163e+01	-6.625228e-01
1.600672e+01	1.978586e+01	-2.401465e-01
1.515693e+01	8.974712e-02	-7.066704e-01
1.544744e+01	7.324378e-01	-1.553488e+00
1.552722e+01	2.076064e+00	-1.501078e+00
1.558791e+01	3.158232e+00	-1.391010e+00
1.560858e+01	4.213359e+00	-1.326853e+00
1.561701e+01	5.265617e+00	-1.287729e+00
1.562096e+01	6.317478e+00	-1.263716e+00
1.562292e+01	7.369476e+00	-1.249053e+00
1.562389e+01	8.421614e+00	-1.240596e+00
1.562438e+01	9.473794e+00	-1.236713e+00
1.562438e+01	1.052620e+01	-1.236711e+00
1.562389e+01	1.157838e+01	-1.240588e+00
1.562292e+01	1.263052e+01	-1.249039e+00
1.562096e+01	1.368251e+01	-1.263694e+00
1.561701e+01	1.473437e+01	-1.287703e+00
1.560858e+01	1.578661e+01	-1.326828e+00
1.558796e+01	1.684171e+01	-1.390967e+00
1.552739e+01	1.792385e+01	-1.500829e+00
1.544783e+01	1.926701e+01	-1.552765e+00
1.515666e+01	1.990944e+01	-7.058539e-01
1.410509e+01	1.649292e-01	-6.304514e-01
1.416134e+01	5.747004e-01	-1.649065e+00
1.416329e+01	2.028007e+00	-1.647574e+00
1.419245e+01	3.146770e+00	-1.541973e+00
1.420887e+01	4.211258e+00	-1.472754e+00
1.421658e+01	5.265584e+00	-1.430474e+00
1.422034e+01	6.317897e+00	-1.404592e+00
1.422224e+01	7.369881e+00	-1.388813e+00
1.422320e+01	8.421881e+00	-1.379733e+00
1.422367e+01	9.473887e+00	-1.375597e+00
1.422367e+01	1.052611e+01	-1.375604e+00
1.422320e+01	1.157811e+01	-1.379756e+00
1.422225e+01	1.263011e+01	-1.388856e+00
1.422035e+01	1.368209e+01	-1.404659e+00
1.421659e+01	1.473440e+01	-1.430589e+00
1.420890e+01	1.578870e+01	-1.472886e+00
1.419253e+01	1.685317e+01	-1.541931e+00
1.416325e+01	1.797176e+01	-1.646605e+00
1.416260e+01	1.942602e+01	-1.650387e+00
1.410488e+01	1.983556e+01	-6.321208e-01
1.312553e+01	1.592891e-01	-5.342604e-01
1.310122e+01	5.454021e-01	-1.578679e+00
1.307867e+01	2.010811e+00	-1.593567e+00
1.309497e+01	3.139051e+00	-1.487143e+00
1.310749e+01	4.208263e+00	-1.416168e+00
1.311451e+01	5.264571e+00	-1.372531e+00
1.311832e+01	6.317635e+00	-1.345755e+00
1.312038e+01	7.369871e+00	-1.329414e+00
1.312147e+01	8.421924e+00	-1.320012e+00
1.312199e+01	9.473907e+00	-1.315731e+00
1.312199e+01	1.052609e+01	-1.315748e+00
1.312147e+01	1.157807e+01	-1.320067e+00
1.312039e+01	1.263012e+01	-1.329520e+00
1.311832e+01	1.368235e+01	-1.345929e+00
1.311451e+01	1.473541e+01	-1.372825e+00
1.310751e+01	1.579171e+01	-1.416484e+00
1.309507e+01	1.686089e+01	-1.486980e+00
1.307874e+01	1.798862e+01	-1.591582e+00
1.310219e+01	1.945797e+01	-1.583451e+00
1.312520e+01	1.984401e+01	-5.393559e-01
1.214598e+01	1.571029e-01	-4.761761e-01
1.209159e+01	5.756305e-01	-1.494431e+00
1.205918e+01	2.010247e+00	-1.501612e+00
1.206757e+01	3.135957e+00	-1.396402e+00
1.207655e+01	4.206117e+00	-1.326400e+00
1.208236e+01	5.263423e+00	-1.283276e+00
1.208584e+01	6.317086e+00	-1.256728e+00
1.208786e+01	7.369630e+00	-1.240477e+00
1.208897e+01	8.421829e+00	-1.231110e+00
1.208951e+01	9.473881e+00	-1.226838e+00
1.208951e+01	1.052611e+01	-1.226854e+00
1.208896e+01	1.157816e+01	-1.231164e+00
1.208785e+01	1.263036e+01	-1.240581e+00
1.208582e+01	1.368290e+01	-1.256903e+00
1.208234e+01	1.473656e+01	-1.283575e+00
1.207654e+01	1.579386e+01	-1.326668e+00
1.206768e+01	1.686397e+01	-1.395869e+00
1.205940e+01	1.798884e+01	-1.498540e+00
1.209157e+01	1.942791e+01	-1.500111e+00
1.214546e+01	1.984629e+01	-4.825514e-01
1.116037e+01	1.541206e-01	-4.333167e-01
1.109360e+01	6.301630e-01	-1.411852e+00
1.105836e+01	2.019101e+00	-1.404588e+00
1.106213e+01	3.136373e+00	-1.303061e+00
1.106838e+01	4.205177e+00	-1.236054e+00
1.107292e+01	5.262573e+00	-1.194762e+00
1.107586e+01	6.316526e+00	-1.169283e+00
1.107768e+01	7.369306e+00	-1.153640e+00
1.107872e+01	8.421667e+00	-1.144606e+00
1.107925e+01	9.473832e+00	-1.140477e+00
1.107925e+01	1.052616e+01	-1.140489e+00
1.107872e+01	1.157832e+01	-1.144648e+00
1.107767e+01	1.263068e+01	-1.153721e+00
1.107585e+01	1.368346e+01	-1.169416e+00
1.107289e+01	1.473741e+01	-1.194984e+00
1.106838e+01	1.579480e+01	-1.236150e+00
1.106229e+01	1.686354e+01	-1.302099e+00
1.105873e+01	1.797985e+01	-1.400711e+00
1.109317e+01	1.937303e+01	-1.417318e+00
1.115978e+01	1.984911e+01	-4.396175e-01
1.016938e+01	1.457309e-01	-4.030131e-01
1.009782e+01	6.952163e-01	-1.330880e+00
1.006258e+01	2.032465e+00	-1.309075e+00
1.006383e+01	3.138995e+00	-1.213463e+00
1.006816e+01	4.205287e+00	-1.151089e+00
1.007162e+01	5.262164e+00	-1.112678e+00
1.007400e+01	6.316117e+00	-1.088938e+00
1.007555e+01	7.369014e+00	-1.074322e+00
1.007647e+01	8.421500e+00	-1.065867e+00
1.007694e+01	9.473779e+00	-1.061995e+00
1.007694e+01	1.052621e+01	-1.062003e+00
1.007646e+01	1.157849e+01	-1.065893e+00
1.007554e+01	1.263097e+01	-1.074373e+00
1.007400e+01	1.368387e+01	-1.089018e+00
1.007161e+01	1.473782e+01	-1.112801e+00
1.006819e+01	1.579469e+01	-1.150992e+00
1.006403e+01	1.686090e+01	-1.212156e+00
1.006306e+01	1.796650e+01	-1.304731e+00
1.009726e+01	1.930743e+01	-1.335818e+00
1.016877e+01	1.985720e+01	-4.090205e-01
9.174509e+00	1.337331e-01	-3.829305e-01
9.101638e+00	7.635177e-01	-1.248805e+00
9.067909e+00	2.047406e+00	-1.215500e+00
9.067856e+00	3.142726e+00	-1.127755e+00
9.070922e+00	4.206101e+00	-1.071327e+00
9.073544e+00	5.262144e+00	-1.036638e+00
9.075428e+00	6.315901e+00	-1.015178e+00
9.076693e+00	7.368807e+00	-1.001938e+00
9.077463e+00	8.421365e+00	-9.942625e-01
9.077879e+00	9.473733e+00	-9.907418e-01
9.077879e+00	1.052626e+01	-9.907448e-01
9.077462e+00	1.157862e+01	-9.942722e-01
9.076692e+00	1.263118e+01	-1.001955e+00
9.075425e+00	1.368409e+01	-1.015212e+00
9.073545e+00	1.473783e+01	-1.036673e+00
9.070975e+00	1.579387e+01	-1.071067e+00
9.068092e+00	1.685717e+01	-1.126236e+00
9.068459e+00	1.795165e+01	-1.211000e+00
9.101075e+00	1.923856e+01	-1.253132e+00
9.173891e+00	1.986876e+01	-3.885508e-01
8.177038e+00	1.198597e-01	-3.706362e-01
8.104657e+00	8.304437e-01	-1.163244e+00
8.073345e+00	2.062191e+00	-1.122964e+00
8.072698e+00	3.146792e+00	-1.044773e+00
8.074935e+00	4.207277e+00	-9.952786e-01
8.076938e+00	5.262393e+00	-9.649560e-01
8.078412e+00	6.315845e+00	-9.462009e-01
8.079424e+00	7.368691e+00	-9.346058e-01
8.080051e+00	8.421275e+00	-9.278662e-01
8.080403e+00	9.473701e+00	-9.247692e-01
8.080404e+00	1.052629e+01	-9.247665e-01
8.080054e+00	1.157871e+01	-9.278571e-01
8.079427e+00	1.263130e+01	-9.345896e-01
8.078415e+00	1.368414e+01	-9.461821e-01
8.076954e+00	1.473759e+01	-9.649074e-01
8.075008e+00	1.579269e+01	-9.949050e-01
8.072954e+00	1.685311e+01	-1.043171e+00
8.073923e+00	1.793700e+01	-1.118559e+00
8.104131e+00	1.917111e+01	-1.166951e+00
8.176432e+00	1.988214e+01	-3.758066e-01
7.177892e+00	1.054490e-01	-3.641574e-01
7.107105e+00	8.928038e-01	-1.072618e+00
7.078849e+00	2.075788e+00	-1.030345e+00
7.078006e+00	3.150692e+00	-9.631499e-01
7.079694e+00	4.208551e+00	-9.213084e-01
7.081238e+00	5.262775e+00	-8.958014e-01
7.082384e+00	6.315898e+00	-8.800542e-01
7.083184e+00	7.368648e+00	-8.702922e-01
7.083683e+00	8.421225e+00	-8.645854e-01
7.083976e+00	9.473681e+00	-8.619588e-01
7.083978e+00	1.052631e+01	-8.619483e-01
7.083691e+00	1.157877e+01	-8.645455e-01
7.083197e+00	1.263134e+01	-8.702062e-01
7.082402e+00	1.368408e+01	-8.799444e-01
7.081275e+00	1.473720e+01	-8.956171e-01
7.079787e+00	1.579142e+01	-9.208104e-01
7.078270e+00	1.684921e+01	-9.615639e-01
7.079423e+00	1.792356e+01	-1.026229e+00
7.106635e+00	1.910832e+01	-1.075728e+00
7.177317e+00	1.989606e+01	-3.688232e-01
6.177712e+00	9.148254e-02	-3.617525e-01
6.109409e+00	9.482266e-01	-9.759184e-01
6.084742e+00	2.087565e+00	-9.364609e-01
6.083925e+00	3.154108e+00	-8.814452e-01
6.085233e+00	4.209730e+00	-8.477292e-01
6.086431e+00	5.263177e+00	-8.272792e-01
6.087346e+00	6.315993e+00	-8.145112e-01
6.087963e+00	7.368667e+00	-8.066876e-01
6.088318e+00	8.421207e+00	-8.022645e-01
6.088557e+00	9.473671e+00	-8.001558e-01
6.088560e+00	1.052632e+01	-8.001362e-01
6.088327e+00	1.157879e+01	-8.022076e-01
6.087946e+00	1.263134e+01	-8.067495e-01
6.087340e+00	1.368397e+01	-8.145303e-01
6.086480e+00	1.473680e+01	-8.270362e-01
6.085336e+00	1.579023e+01	-8.471906e-01
6.084184e+00	1.684580e+01	-8.799538e-01
6.085286e+00	1.791195e+01	-9.327877e-01
6.109004e+00	1.905256e+01	-9.784686e-01
6.177186e+00	1.990957e+01	-3.658575e-01
5.176977e+00	7.861378e-02	-3.617032e-01
5.112155e+00	9.948120e-01	-8.723421e-01
5.091604e+00	2.097101e+00	-8.399444e-01
5.090941e+00	3.156837e+00	-7.979623e-01
5.091960e+00	4.210688e+00	-7.725847e-01
5.092874e+00	5.263530e+00	-7.572658e-01
5.093558e+00	6.316129e+00	-7.476447e-01
5.094017e+00	7.368671e+00	-7.417643e-01
5.094278e+00	8.421204e+00	-7.385088e-01
5.094460e+00	9.473675e+00	-7.369394e-01
5.094460e+00	1.052632e+01	-7.369174e-01
5.094280e+00	1.157879e+01	-7.384622e-01
5.093999e+00	1.263132e+01	-7.418896e-01
5.093553e+00	1.368385e+01	-7.477124e-01
5.092921e+00	1.473644e+01	-7.570403e-01
5.092060e+00	1.578927e+01	-7.720843e-01
5.091182e+00	1.684308e+01	-7.966377e-01
5.092094e+00	1.790256e+01	-8.368377e-01
5.111821e+00	1.900572e+01	-8.743809e-01
5.176516e+00	1.992203e+01	-3.651908e-01
4.176141e+00	6.715752e-02	-3.620392e-01
4.116295e+00	1.030886e+00	-7.608126e-01
4.100459e+00	2.104083e+00	-7.388328e-01
4.100023e+00	3.158752e+00	-7.102615e-01
4.100781e+00	4.211353e+00	-6.931279e-01
4.101426e+00	5.263782e+00	-6.828113e-01
4.101881e+00	6.316223e+00	-6.764155e-01
4.102182e+00	7.368714e+00	-6.724344e-01
4.102360e+00	8.421203e+00	-6.701358e-01
4.102501e+00	9.473668e+00	-6.690734e-01
4.102504e+00	1.052632e+01	-6.690571e-01
4.102370e+00	1.157879e+01	-6.700975e-01
4.102187e+00	1.263128e+01	-6.724121e-01
4.101894e+00	1.368376e+01	-6.763343e-01
4.101471e+00	1.473619e+01	-6.825926e-01
4.100873e+00	1.578861e+01	-6.926761e-01
4.100233e+00	1.684118e+01	-7.091636e-01
4.100873e+00	1.789572e+01	-7.363887e-01
4.116034e+00	1.896947e+01	-7.623922e-01
4.175762e+00	1.993315e+01	-3.648552e-01
3.175916e+00	5.710065e-02	-3.599998e-01
3.123873e+00	1.054821e+00	-6.390796e-01
3.113497e+00	2.108288e+00	-6.294131e-01
3.113291e+00	3.159816e+00	-6.138174e-01
3.113751e+00	4.211710e+00	-6.043779e-01
3.114110e+00	5.263924e+00	-5.986526e-01
3.114344e+00	6.316281e+00	-5.950947e-01
3.114496e+00	7.368726e+00	-5.928735e-01
3.114586e+00	8.421215e+00	-5.915675e-01
3.114684e+00	9.473662e+00	-5.909648e-01
3.114690e+00	1.052632e+01	-5.909561e-01
3.114599e+00	1.157878e+01	-5.915330e-01
3.114510e+00	1.263126e+01	-5.928124e-01
3.114367e+00	1.368370e+01	-5.949848e-01
3.114150e+00	1.473606e+01	-5.984556e-01
3.113827e+00	1.578826e+01	-6.040043e-01
3.113455e+00	1.684013e+01	-6.129930e-01
3.113809e+00	1.789162e+01	-6.277031e-01
3.123696e+00	1.894543e+01	-6.402499e-01
3.175638e+00	1.994297e+01	-3.620941e-01
2.178639e+00	4.730625e-02	-3.476213e-01
2.140968e+00	1.065421e+00	-5.005339e-01
2.136804e+00	2.109995e+00	-5.019565e-01
2.136712e+00	3.160248e+00	-4.973154e-01
2.136830e+00	4.211867e+00	-4.942456e-01
2.136913e+00	5.263989e+00	-4.923105e-01
2.136960e+00	6.316309e+00	-4.910811e-01
2.136988e+00	7.368740e+00	-4.903016e-01
2.137002e+00	8.421223e+00	-4.898336e-01
2.137055e+00	9.473673e+00	-4.896146e-01
2.137061e+00	1.052631e+01	-4.896066e-01
2.137012e+00	1.157877e+01	-4.898027e-01
2.136999e+00	1.263125e+01	-4.902405e-01
2.136977e+00	1.368368e+01	-4.909849e-01
2.136940e+00	1.473599e+01	-4.921652e-01
2.136876e+00	1.578811e+01	-4.939965e-01
2.136804e+00	1.683971e+01	-4.968215e-01
2.136972e+00	1.788998e+01	-5.010391e-01
2.140892e+00	1.893478e+01	-5.013400e-01
2.178489e+00	1.995261e+01	-3.489113e-01
1.201057e+00	0.000000e+00	-3.090170e-01
1.201057e+00	1.052632e+00	-3.090170e-01
1.201057e+00	2.105263e+00	-3.090170e-01
1.201057e+00	3.157895e+00	-3.090170e-01
1.201057e+00	4.210526e+00	-3.090170e-01
1.201057e+00	5.263158e+00	-3.090170e-01
1.201057e+00	6.315789e+00	-3.090170e-01
1.201057e+00	7.368421e+00	-3.090170e-01
1.201057e+00	8.421053e+00	-3.090170e-01
1.201057e+00	9.473684e+00	-3.090170e-01
1.201057e+00	1.052632e+01	-3.090170e-01
1.201057e+00	1.157895e+01	-3.090170e-01
1.201057e+00	1.263158e+01	-3.090170e-01
1.201057e+00	1.368421e+01	-3.090170e-01
1.201057e+00	1.473684e+01	-3.090170e-01
1.201057e+00	1.578947e+01	-3.090170e-01
1.201057e+00	1.684211e+01	-3.090170e-01
1.201057e+00	1.789474e+01	-3.090170e-01
1.201057e+00	1.894737e+01	-3.090170e-01
1.201057e+00	2.000000e+01	-3.090170e-01
9.510565e-01	0.000000e+00	-3.090170e-01
9.510565e-01	1.052632e+00	-3.090170e-01
9.510565e-01	2.105263e+00	-3.090170e-01
9.510565e-01	3.157895e+00	-3.090170e-01
9.510565e-01	4.210526e+00	-3.090170e-01
9.510565e-01	5.263158e+00	-3.090170e-01
9.510565e-01	6.315789e+00	-3.090170e-01
9.510565e-01	7.368421e+00	-3.090170e-01
9.510565e-01	8.421053e+00	-3.090170e-01
9.510565e-01	9.473684e+00	-3.090170e-01
9.510565e-01	1.052632e+01	-3.090170e-01
9.510565e-01	1.157895e+01	-3.090170e-01
9.510565e-01	1.263158e+01	-3.090170e-01
9.510565e-01	1.368421e+01	-3.090170e-01
9.510565e-01	1.473684e+01	-3.090170e-01
9.510565e-01	1.578947e+01	-3.090170e-01
9.510565e-01	1.684211e+01	-3.090170e-01
9.510565e-01	1.789474e+01	-3.090170e-01
9.510565e-01	1.894737e+01	-3.090170e-01
9.510565e-01	2.000000e+01	-3.090170e-01

CELLS 304 1520
4 20 0 1 21 
4 21 1 2 22 
4 22 2 3 23 
4 23 3 4 24 
4 24 4 5 25 
4 25 5 6 26 
4 26 6 7 27 
4 27 7 8 28 
4 28 8 9 29 
4 29 9 10 30 
4 30 10 11 31 
4 31 11 12 32 
4 32 12 13 33 
4 33 13 14 34 
4 34 14 15 35 
4 35 15 16 36 
4 36 16 17 37 
4 37 17 18 38 
4 38 18 19 39 
4 40 20 21 41 
4 41 21 22 42 
4 42 22 23 43 
4 43 23 24 44 
4 44 24 25 45 
4 45 25 26 46 
4 46 26 27 47 
4 47 27 28 48 
4 48 28 29 49 
4 49 29 30 50 
4 50 30 31 51 
4 51 31 32 52 
4 52 32 33 53 
4 53 33 34 54 
4 54 34 35 55 
4 55 35 36 56 
4 56 36 37 57 
4 57 37 38 58 
4 58 38 39 59 
4 60 40 41 61 
4 61 41 42 62 
4 62 42 43 63 
4 63 43 44 64 
4 64 44 45 65 
4 65 45 46 66 
4 66 46 47 67 
4 67 47 48 68 
4 68 48 49 69 
4 69 49 50 70 
4 70 50 51 71 
4 71 51 52 72 
4 72 52 53 73 
4 73 53 54 74 
4 74 54 55 75 
4 75 55 56 76 
4 76 56 57 77 
4 77 57 58 78 
4 78 58 59 79 
4 80 60 61 81 
4 81 61 62 82 
4 82 62 63 83 
4 83 63 64 84 
4 84 64 65 85 
4 85 65 66 86 
4 86 66 67 87 
4 87 67 68 88 
4 88 68 69 89 
4 89 69 70 90 
4 90 70 71 91 
4 91 71 72 92 
4 92 72 73 93 
4 93 73 74 94 
4 94 74 75 95 
4 95 75 76 96 
4 96 76 77 97 
4 97 77 78 98 
4 98 78 79 99 
4 100 80 81 101 
4 101 81 82 102 
4 102 82 83 103 
4 103 83 84 104 
4 104 84 85 105 
4 105 85 86 106 
4 106 86 87 107 
4 107 87 88 108 
4 108 88 89 109 
4 109 89 90 110 
4 110 90 91 111 
4 111 91 92 112 
4 112 92 93 113 
4 113 93 94 114 
4 114 94 95 115 
4 115 95 96 116 
4 116 96 97 117 
4 117 97 98 118 
4 118 98 99 119 
4 120 100 101 121 
4 121 101 102 122 
4 122 102 103 123 
4 123 103 104 124 
4 124 104 105 125 
4 125 105 106 126 
4 126 106 107 127 
4 127 107 108 128 
4 128 108 109 129 
4 129 109 110 130 
4 130 110 111 131 
4 131 111 112 132 
4 132 112 113 133 
4 133 113 114 134 
4 134 114 115 135 
4 135 115 116 136 
4 136 116 117 137 
4 137 117 118 138 
4 138 118 119 139 
4 140 120 121 141 
4 141 121 122 142 
4 142 122 123 143 
4 143 123 124 144 
4 144 124 125 145 
4 145 125 126 146 
4 146 126 127 147 
4 147 127 128 148 
4 148 128 129 149 
4 149 129 130 150 
4 150 130 131 151 
4 151 131 132 152 
4 152 132 133 153 
4 153 133 134 154 
4 154 134 135 155 
4 155 135 136 156 
4 156 136 137 157 
4 157 137 138 158 
4 158 138 139 159 
4 160 140 141 161 
4 161 141 142 162 
4 162 142 143 163 
4 163 143 144 164 
4 164 144 145 165 
4 165 145 146 166 
4 166 146 147 167 
4 167 147 148 168 
4 168 148 149 169 
4 169 149 150 170 
4 170 150 151 171 
4 171 151 152 172 
4 172 152 153 173 
4 173 153 154 174 
4 174 154 155 175 
4 175 155 156 176 
4 176 156 157 177 
4 177 157 158 178 
4 178 158 159 179 
4 180 160 161 181 
4 181 161 162 182 
4 182 162 163 183 
4 183 163 164 184 
4 184 164 165 185 
4 185 165 166 186 
4 186 166 167 187 
4 187 167 168 188 
4 188 168 169 189 
4 189 169 170 190 
4 190 170 171 191 
4 191 171 172 192 
4 192 172 173 193 
4 193 173 174 194 
4 194 174 175 195 
4 195 175 176 196 
4 196 176 177 197 
4 197 177 178 198 
4 198 178 179 199 
4 200 180 181 201 
4 201 181 182 202 
4 202 182 183 203 
4 203 183 184 204 
4 204 184 185 205 
4 205 185 186 206 
4 206 186 187 207 
4 207 187 188 208 
4 208 188 189 209 
4 209 189 190 210 
4 210 190 191 211 
4 211 191 192 212 
4 212 192 193 213 
4 213 193 194 214 
4 214 194 195 215 
4 215 195 196 216 
4 216 196 197 217 
4 217 197 198 218 
4 218 198 199 219 
4 220 200 201 221 
4 221 201 202 222 
4 222 202 203 223 
4 223 203 204 224 
4 224 204 205 225 
4 225 205 206 226 
4 226 206 207 227 
4 227 207 208 228 
4 228 208 209 229 
4 229 209 210 230 
4 230 210 211 231 
4 231 211 212 232 
4 232 212 213 233 
4 233 213 214 234 
4 234 214 215 235 
4 235 215 216 236 
4 236 216 217 237 
4 237 217 218 238 
4 238 218 219 239 
4 240 220 221 241 
4 241 221 222 242 
4 242 222 223 243 
4 243 223 224 244 
4 244 224 225 245 
4 245 225 226 246 
4 246 226 227 247 
4 247 227 228 248 
4 248 228 229 249 
4 249 229 230 250 
4 250 230 231 251 
4 251 231 232 252 
4 252 232 233 253 
4 253 233 234 254 
4 254 234 235 255 
4 255 235 236 256 
4 256 236 237 257 
4 257 237 238 258 
4 258 238 239 259 
4 260 240 241 261 
4 261 241 242 262 
4 262 242 243 263 
4 263 243 244 264 
4 264 244 245 265 
4 265 245 246 266 
4 266 246 247 267 
4 267 247 248 268 
4 268 248 249 269 
4 269 249 250 270 
4 270 250 251 271 
4 271 251 252 272 
4 272 252 253 273 
4 273 253 254 274 
4 274 254 255 275 
4 275 255 256 276 
4 276 256 257 277 
4 277 257 258 278 
4 278 258 259 279 
4 280 260 261 281 
4 281 261 262 282 
4 282 262 263 283 
4 283 263 264 284 
4 284 264 265 285 
4 285 265 266 286 
4 286 266 267 287 
4 287 267 268 288 
4 288 268 269 289 
4 289 269 270 290 
4 290 270 271 291 
4 291 271 272 292 
4 292 272 273 293 
4 293 273 274 294 
4 294 274 275 295 
4 295 275 276 296 
4 296 276 277 297 
4 297 277 278 298 
4 298 278 279 299 
4 300 280 281 301 
4 301 281 282 302 
4 302 282 283 303 
4 303 283 284 304 
4 304 284 285 305 
4 305 285 286 306 
4 306 286 287 307 
4 307 287 288 308 
4 308 288 289 309 
4 309 289 290 310 
4 310 290 291 311 
4 311 291 292 312 
4 312 292 293 313 
4 313 293 294 314 
4 314 294 295 315 
4 315 295 296 316 
4 316 296 297 317 
4 317 297 298 318 
4 318 298 299 319 
4 320 300 301 321 
4 321 301 302 322 
4 322 302 303 323 
4 323 303 304 324 
4 324 304 305 325 
4 325 305 306 326 
4 326 306 307 327 
4 327 307 308 328 
4 328 308 309 329 
4 329 309 310 330 
4 330 310 311 331 
4 331 311 312 332 
4 332 312 313 333 
4 333 313 314 334 
4 334 314 315 335 
4 335 315 316 336 
4 336 316 317 337 
4 337 317 318 338 
4 338 318 319 339 

CELL_TYPES 304
9
9
9
9
9
9
9
9
9
9
9
9
9
9
9
9
9
9
9
9
9
9
9
9
9
9
9
9
9
9
9
9
9
9
9
9
9
9
9
9
9
9
9
9
9
9
9
9
9
9
9
9
9
9
9
9
9
9
9
9
9
9
9
9
9
9
9
9
9
9
9
9
9
9
9
9
9
9
9
9
9
9
9
9
9
9
9
9
9
9
9
9
9
9
9
9
9
9
9
9
9
9
9
9
9
9
9
9
9
9
9
9
9
9
9
9
9
9
9
9
9
9
9
9
9
9
9
9
9
9
9
9
9
9
9
9
9
9
9
9
9
9
9
9
9
9
9
9
9
9
9
9
9
9
9
9
9
9
9
9
9
9
9
9
9
9
9
9
9
9
9
9
9
9
9
9
9
9
9
9
9
9
9
9
9
9
9
9
9
9
9
9
9
9
9
9
9
9
9
9
9
9
9
9
9
9
9
9
9
9
9
9
9
9
9
9
9
9
9
9
9
9
9
9
9
9
9
9
9
9
9
9
9
9
9
9
9
9
9
9
9
9
9
9
9
9
9
9
9
9
9
9
9
9
9
9
9
9
9
9
9
9
9
9
9
9
9
9
9
9
9
9
9
9
9
9
9
9
9
9
9
9
9
9
9
9
9
9
9
9
9
9
9
9
9
9
9
9
9
9
9
9
9
9

CELL_DATA 304
SCALARS Mu double 1
LOOKUP_TABLE default
-0.388429
-0.434839
-0.445113
-0.448285
-0.449531
-0.450112
-0.450415
-0.45058
-0.450664
-0.450691
-0.450664
-0.45058
-0.450415
-0.450112
-0.449531
-0.448285
-0.445113
-0.434839
-0.388429
-0.510131
-0.594683
-0.616974
-0.624665
-0.627855
-0.629376
-0.630171
-0.630603
-0.630824
-0.630893
-0.630827
-0.630608
-0.630178
-0.629383
-0.627864
-0.624669
-0.616953
-0.594531
-0.509768
-0.565402
-0.676259
-0.708906
-0.721304
-0.726769
-0.729481
-0.73093
-0.731726
-0.732133
-0.732261
-0.732142
-0.731746
-0.730963
-0.729527
-0.726831
-0.721339
-0.708845
-0.676044
-0.567553
-0.5965
-0.724128
-0.764294
-0.780705
-0.788374
-0.792329
-0.794491
-0.79569
-0.796305
-0.796497
-0.796315
-0.795713
-0.794527
-0.792381
-0.788441
-0.780711
-0.764093
-0.72369
-0.599882
-0.616157
-0.754595
-0.800147
-0.819703
-0.829262
-0.834366
-0.837218
-0.838823
-0.839649
-0.839907
-0.839656
-0.838838
-0.837242
-0.834395
-0.829287
-0.81961
-0.799729
-0.753863
-0.620006
-0.629462
-0.77515
-0.824573
-0.846525
-0.857613
-0.863703
-0.867176
-0.869157
-0.870184
-0.870502
-0.870184
-0.869157
-0.867173
-0.863686
-0.85756
-0.846289
-0.823906
-0.774108
-0.633433
-0.63891
-0.789621
-0.841854
-0.865629
-0.87793
-0.884838
-0.888843
-0.891155
-0.892362
-0.892735
-0.892353
-0.891135
-0.888804
-0.884767
-0.877784
-0.865235
-0.840944
-0.78829
-0.642855
-0.645861
-0.800146
-0.854446
-0.879611
-0.892871
-0.900442
-0.904899
-0.907495
-0.908859
-0.909278
-0.908838
-0.907451
-0.904819
-0.900312
-0.892624
-0.879062
-0.853314
-0.798557
-0.649722
-0.651118
-0.808004
-0.863847
-0.890074
-0.904089
-0.912208
-0.917035
-0.91987
-0.921366
-0.921824
-0.921333
-0.919799
-0.916913
-0.912002
-0.903739
-0.889378
-0.86252
-0.80619
-0.654877
-0.655184
-0.813999
-0.871014
-0.898055
-0.91267
-0.921219
-0.926358
-0.929393
-0.931
-0.93149
-0.930954
-0.929291
-0.926181
-0.920941
-0.912171
-0.897221
-0.869514
-0.811993
-0.658841
-0.658388
-0.818659
-0.87657
-0.904239
-0.919324
-0.928202
-0.933353
-0.936781
-0.938511
-0.939032
-0.938454
-0.936687
-0.933422
-0.927882
-0.918774
-0.903285
-0.874921
-0.816489
-0.661948
-0.660949
-0.822338
-0.88094
-0.909098
-0.924554
-0.933726
-0.939242
-0.942613
-0.944431
-0.944972
-0.944365
-0.94251
-0.939127
-0.933362
-0.923934
-0.908042
-0.879166
-0.820031
-0.664423
-0.663021
-0.825283
-0.884419
-0.91296
-0.928706
-0.938104
-0.943837
-0.947298
-0.94915
-0.949712
-0.94908
-0.947156
-0.943615
-0.937678
-0.92802
-0.911817
-0.882541
-0.82286
-0.666419
-0.664715
-0.827667
-0.887216
-0.916056
-0.932031
-0.941591
-0.947475
-0.951026
-0.95292
-0.953498
-0.952849
-0.950851
-0.947181
-0.941111
-0.931284
-0.91484
-0.885252
-0.825147
-0.668047
-0.666097
-0.829594
-0.889464
-0.918544
-0.934709
-0.944423
-0.950403
-0.954048
-0.955985
-0.956559
-0.955888
-0.953846
-0.950085
-0.943903
-0.933924
-0.917287
-0.887452
-0.827017
-0.669388

