# vtk DataFile Version 2.0
OUTPUT by 3D-VPM
ASCII
DATASET UNSTRUCTURED_GRID
POINTS 680 double
3.239087e+01	7.814703e-01	-5.469259e-01
3.274200e+01	1.123688e+00	-1.134652e+00
3.237967e+01	2.320232e+00	-1.111647e+00
3.237808e+01	3.306846e+00	-7.690629e-01
3.242031e+01	4.309346e+00	-6.887626e-01
3.239957e+01	5.327348e+00	-6.348788e-01
3.238708e+01	6.356552e+00	-5.883992e-01
3.238016e+01	7.393422e+00	-5.595620e-01
3.237558e+01	8.434630e+00	-5.422989e-01
3.237345e+01	9.477931e+00	-5.340585e-01
3.237344e+01	1.052205e+01	-5.340622e-01
3.237558e+01	1.156535e+01	-5.423092e-01
3.238015e+01	1.260655e+01	-5.595748e-01
3.238709e+01	1.364340e+01	-5.884035e-01
3.239959e+01	1.467259e+01	-6.348581e-01
3.242038e+01	1.569056e+01	-6.886925e-01
3.237832e+01	1.669305e+01	-7.689043e-01
3.238019e+01	1.767965e+01	-1.111149e+00
3.274278e+01	1.887695e+01	-1.134157e+00
3.239126e+01	1.921944e+01	-5.437218e-01
3.213782e+01	2.680314e-01	-1.095272e+00
3.296292e+01	2.092989e-01	-1.698833e+00
3.336625e+01	2.043647e+00	-1.435111e+00
3.342413e+01	3.088639e+00	-1.096026e+00
3.347116e+01	4.174623e+00	-9.593965e-01
3.346821e+01	5.244784e+00	-8.472135e-01
3.346268e+01	6.303443e+00	-7.763874e-01
3.345840e+01	7.360433e+00	-7.336018e-01
3.345546e+01	8.416531e+00	-7.088577e-01
3.345408e+01	9.472137e+00	-6.974368e-01
3.345408e+01	1.052784e+01	-6.974305e-01
3.345546e+01	1.158344e+01	-7.088393e-01
3.345840e+01	1.263953e+01	-7.335702e-01
3.346268e+01	1.369650e+01	-7.763394e-01
3.346823e+01	1.475511e+01	-8.471722e-01
3.347125e+01	1.582519e+01	-9.593957e-01
3.342442e+01	1.691108e+01	-1.096058e+00
3.336677e+01	1.795612e+01	-1.434477e+00
3.296408e+01	1.978974e+01	-1.697575e+00
3.213754e+01	1.973004e+01	-1.097006e+00
3.085901e+01	4.729308e-01	-1.222336e+00
3.126634e+01	-4.464854e-01	-1.641360e+00
3.148498e+01	1.731238e+00	-2.624867e+00
3.164300e+01	3.079396e+00	-2.474437e+00
3.173065e+01	4.193825e+00	-2.329413e+00
3.177257e+01	5.261797e+00	-2.231215e+00
3.179477e+01	6.318056e+00	-2.166117e+00
3.180670e+01	7.370692e+00	-2.124653e+00
3.181287e+01	8.422477e+00	-2.100221e+00
3.181561e+01	9.474084e+00	-2.088896e+00
3.181562e+01	1.052588e+01	-2.088911e+00
3.181288e+01	1.157748e+01	-2.100266e+00
3.180672e+01	1.262926e+01	-2.124736e+00
3.179479e+01	1.368187e+01	-2.166247e+00
3.177261e+01	1.473807e+01	-2.231441e+00
3.173080e+01	1.580594e+01	-2.329707e+00
3.164353e+01	1.692023e+01	-2.474511e+00
3.148539e+01	1.826795e+01	-2.624166e+00
3.127039e+01	2.044828e+01	-1.641473e+00
3.085905e+01	1.953035e+01	-1.224106e+00
2.991676e+01	4.852754e-01	-9.552299e-01
3.018927e+01	-5.790257e-01	-1.432449e+00
3.016930e+01	1.558565e+00	-2.698790e+00
3.024421e+01	3.006999e+00	-2.598325e+00
3.030369e+01	4.167454e+00	-2.457896e+00
3.033735e+01	5.251661e+00	-2.355732e+00
3.035573e+01	6.313896e+00	-2.287625e+00
3.036577e+01	7.369103e+00	-2.243987e+00
3.037105e+01	8.421943e+00	-2.218128e+00
3.037341e+01	9.473958e+00	-2.206141e+00
3.037342e+01	1.052599e+01	-2.206183e+00
3.037108e+01	1.157799e+01	-2.218264e+00
3.036582e+01	1.263081e+01	-2.244243e+00
3.035581e+01	1.368598e+01	-2.288046e+00
3.033750e+01	1.474815e+01	-2.356445e+00
3.030399e+01	1.583223e+01	-2.458752e+00
3.024484e+01	1.699238e+01	-2.598535e+00
3.016972e+01	1.843932e+01	-2.697417e+00
3.019421e+01	2.058780e+01	-1.434515e+00
2.991785e+01	1.952446e+01	-9.563591e-01
2.898616e+01	4.338194e-01	-8.513486e-01
2.914351e+01	-6.359630e-01	-1.339256e+00
2.906591e+01	1.477983e+00	-2.632060e+00
2.909813e+01	2.963645e+00	-2.541604e+00
2.913673e+01	4.145686e+00	-2.396775e+00
2.916252e+01	5.241020e+00	-2.289524e+00
2.917805e+01	6.308666e+00	-2.217527e+00
2.918704e+01	7.366568e+00	-2.171200e+00
2.919195e+01	8.420808e+00	-2.143675e+00
2.919419e+01	9.473630e+00	-2.130891e+00
2.919419e+01	1.052629e+01	-2.130940e+00
2.919196e+01	1.157910e+01	-2.143833e+00
2.918706e+01	1.263332e+01	-2.171503e+00
2.917807e+01	1.369117e+01	-2.218031e+00
2.916258e+01	1.475874e+01	-2.290382e+00
2.913692e+01	1.585394e+01	-2.397713e+00
2.909861e+01	1.703546e+01	-2.541265e+00
2.906621e+01	1.851829e+01	-2.629465e+00
2.914554e+01	2.064735e+01	-1.342070e+00
2.898704e+01	1.957889e+01	-8.545872e-01
2.804233e+01	4.494303e-01	-7.930819e-01
2.812279e+01	-6.325200e-01	-1.246790e+00
2.803470e+01	1.449204e+00	-2.538923e+00
2.804597e+01	2.941696e+00	-2.446615e+00
2.807077e+01	4.131521e+00	-2.297398e+00
2.808993e+01	5.232520e+00	-2.186561e+00
2.810262e+01	6.303783e+00	-2.111968e+00
2.811047e+01	7.363885e+00	-2.063837e+00
2.811496e+01	8.419482e+00	-2.035186e+00
2.811705e+01	9.473229e+00	-2.021857e+00
2.811705e+01	1.052668e+01	-2.021905e+00
2.811496e+01	1.158042e+01	-2.035341e+00
2.811046e+01	1.263598e+01	-2.064131e+00
2.810260e+01	1.369603e+01	-2.112441e+00
2.808992e+01	1.476722e+01	-2.187343e+00
2.807086e+01	1.586807e+01	-2.298054e+00
2.804633e+01	1.705720e+01	-2.445360e+00
2.803496e+01	1.854609e+01	-2.534915e+00
2.812358e+01	2.064451e+01	-1.248682e+00
2.804294e+01	1.956309e+01	-7.959363e-01
2.708907e+01	4.677183e-01	-7.244619e-01
2.712270e+01	-6.080562e-01	-1.189383e+00
2.702947e+01	1.448320e+00	-2.445326e+00
2.702993e+01	2.933990e+00	-2.347647e+00
2.704579e+01	4.123902e+00	-2.195531e+00
2.705980e+01	5.226755e+00	-2.082706e+00
2.706984e+01	6.299909e+00	-2.006688e+00
2.707642e+01	7.361504e+00	-1.957527e+00
2.708034e+01	8.418213e+00	-1.928219e+00
2.708222e+01	9.472831e+00	-1.914565e+00
2.708221e+01	1.052708e+01	-1.914608e+00
2.708033e+01	1.158168e+01	-1.928357e+00
2.707640e+01	1.263836e+01	-1.957780e+00
2.706980e+01	1.369991e+01	-2.007088e+00
2.705976e+01	1.477298e+01	-2.083324e+00
2.704585e+01	1.587568e+01	-2.195767e+00
2.703025e+01	1.706478e+01	-2.345460e+00
2.702984e+01	1.854641e+01	-2.439990e+00
2.712289e+01	2.062016e+01	-1.191283e+00
2.708946e+01	1.954519e+01	-7.263660e-01
2.612418e+01	4.752090e-01	-6.652157e-01
2.612666e+01	-5.754475e-01	-1.166500e+00
2.603359e+01	1.464944e+00	-2.358126e+00
2.602779e+01	2.935589e+00	-2.253542e+00
2.603781e+01	4.121261e+00	-2.100179e+00
2.604799e+01	5.223553e+00	-1.986828e+00
2.605577e+01	6.297279e+00	-1.910416e+00
2.606112e+01	7.359686e+00	-1.860914e+00
2.606442e+01	8.417173e+00	-1.831348e+00
2.606604e+01	9.472495e+00	-1.817554e+00
2.606603e+01	1.052741e+01	-1.817590e+00
2.606441e+01	1.158272e+01	-1.831459e+00
2.606110e+01	1.264018e+01	-1.861110e+00
2.605573e+01	1.370255e+01	-1.910748e+00
2.604795e+01	1.477620e+01	-1.987284e+00
2.603787e+01	1.587833e+01	-2.100000e+00
2.602813e+01	1.706312e+01	-2.250574e+00
2.603411e+01	1.852944e+01	-2.351688e+00
2.612637e+01	2.058734e+01	-1.168693e+00
2.612428e+01	1.953791e+01	-6.669202e-01
2.514960e+01	4.779533e-01	-6.136132e-01
2.513040e+01	-5.366983e-01	-1.167362e+00
2.504016e+01	1.492814e+00	-2.277909e+00
2.503074e+01	2.943229e+00	-2.165845e+00
2.503693e+01	4.122165e+00	-2.012648e+00
2.504433e+01	5.222442e+00	-1.900047e+00
2.505031e+01	6.295827e+00	-1.824159e+00
2.505458e+01	7.358499e+00	-1.774899e+00
2.505727e+01	8.416434e+00	-1.745415e+00
2.505863e+01	9.472248e+00	-1.731640e+00
2.505862e+01	1.052766e+01	-1.731664e+00
2.505727e+01	1.158347e+01	-1.745486e+00
2.505456e+01	1.264138e+01	-1.775024e+00
2.505028e+01	1.370401e+01	-1.824372e+00
2.504430e+01	1.477733e+01	-1.900306e+00
2.503701e+01	1.587744e+01	-2.012115e+00
2.503112e+01	1.705546e+01	-2.162282e+00
2.504081e+01	1.850139e+01	-2.270585e+00
2.512979e+01	2.054820e+01	-1.169921e+00
2.514942e+01	1.953506e+01	-6.153260e-01
2.416768e+01	4.757318e-01	-5.668626e-01
2.413317e+01	-4.921431e-01	-1.184375e+00
2.404662e+01	1.527620e+00	-2.203363e+00
2.403524e+01	2.954669e+00	-2.084023e+00
2.403891e+01	4.125477e+00	-1.932171e+00
2.404433e+01	5.222894e+00	-1.821354e+00
2.404893e+01	6.295356e+00	-1.746790e+00
2.405231e+01	7.357896e+00	-1.698277e+00
2.405447e+01	8.416000e+00	-1.669106e+00
2.405558e+01	9.472095e+00	-1.655460e+00
2.405558e+01	1.052782e+01	-1.655461e+00
2.405447e+01	1.158391e+01	-1.669080e+00
2.405229e+01	1.264199e+01	-1.698165e+00
2.404891e+01	1.370448e+01	-1.746705e+00
2.404433e+01	1.477688e+01	-1.821176e+00
2.403902e+01	1.587412e+01	-1.931145e+00
2.403565e+01	1.704403e+01	-2.080007e+00
2.404737e+01	1.846654e+01	-2.195326e+00
2.413235e+01	2.050313e+01	-1.187354e+00
2.416724e+01	1.953709e+01	-5.687425e-01
2.318030e+01	4.687960e-01	-5.246127e-01
2.313481e+01	-4.413792e-01	-1.211718e+00
2.305217e+01	1.566485e+00	-2.132964e+00
2.303987e+01	2.968381e+00	-2.007032e+00
2.304192e+01	4.130350e+00	-1.857495e+00
2.304596e+01	5.224456e+00	-1.749198e+00
2.304955e+01	6.295672e+00	-1.675652e+00
2.305221e+01	7.357805e+00	-1.628275e+00
2.305392e+01	8.415830e+00	-1.600537e+00
2.305482e+01	9.472026e+00	-1.587208e+00
2.305482e+01	1.052790e+01	-1.587178e+00
2.305392e+01	1.158409e+01	-1.600456e+00
2.305217e+01	1.264211e+01	-1.628910e+00
2.304951e+01	1.370418e+01	-1.676238e+00
2.304598e+01	1.477532e+01	-1.748767e+00
2.304206e+01	1.586926e+01	-1.856148e+00
2.304030e+01	1.703036e+01	-2.002669e+00
2.305299e+01	1.842774e+01	-2.124359e+00
2.313386e+01	2.045177e+01	-1.215119e+00
2.317965e+01	1.954376e+01	-5.268121e-01
2.218894e+01	4.578148e-01	-4.865420e-01
2.213546e+01	-3.839518e-01	-1.244795e+00
2.205670e+01	1.607483e+00	-2.065390e+00
2.204413e+01	2.983332e+00	-1.933821e+00
2.204517e+01	4.136175e+00	-1.787382e+00
2.204824e+01	5.226777e+00	-1.682222e+00
2.205108e+01	6.296566e+00	-1.610699e+00
2.205321e+01	7.358047e+00	-1.564663e+00
2.205456e+01	8.415871e+00	-1.537990e+00
2.205529e+01	9.472032e+00	-1.525158e+00
2.205529e+01	1.052790e+01	-1.525116e+00
2.205455e+01	1.158404e+01	-1.537976e+00
2.205315e+01	1.264186e+01	-1.565724e+00
2.205103e+01	1.370333e+01	-1.611631e+00
2.204827e+01	1.477302e+01	-1.681840e+00
2.204531e+01	1.586347e+01	-1.785967e+00
2.204458e+01	1.701546e+01	-1.929230e+00
2.205757e+01	1.838689e+01	-2.056354e+00
2.213443e+01	2.039368e+01	-1.248584e+00
2.218812e+01	1.955439e+01	-4.891591e-01
2.119469e+01	4.433476e-01	-4.523990e-01
2.113535e+01	-3.196486e-01	-1.279993e+00
2.106029e+01	1.649300e+00	-1.999600e+00
2.104788e+01	2.998821e+00	-1.863512e+00
2.104831e+01	4.142518e+00	-1.720840e+00
2.105072e+01	5.229564e+00	-1.619294e+00
2.105298e+01	6.297785e+00	-1.551087e+00
[...]
CELL_DATA 627
SCALARS Mu double 1
LOOKUP_TABLE default
-0.388429
-0.434839
-0.445113
-0.448285
-0.449531
-0.450112
-0.450415
-0.45058
-0.450664
-0.450691
-0.450664
-0.45058
-0.450415
-0.450112
-0.449531
-0.448285
-0.445113
-0.434839
-0.388429
-0.510131
-0.594683
-0.616974
-0.624665
-0.627855
-0.629376
-0.630171
-0.630603
-0.630824
-0.630893
-0.630827
-0.630608
-0.630178
-0.629383
-0.627864
-0.624669
-0.616953
-0.594531
-0.509768
-0.565402
-0.676259
-0.708906
-0.721304
-0.726769
-0.729481
-0.73093
-0.731726
-0.732133
-0.732261
-0.732142
-0.731746
-0.730963
-0.729527
-0.726831
-0.721339
-0.708845
-0.676044
-0.567553
-0.5965
-0.724128
-0.764294
-0.780705
-0.788374
-0.792329
-0.794491
-0.79569
-0.796305
-0.796497
-0.796315
-0.795713
-0.794527
-0.792381
-0.788441
-0.780711
-0.764093
-0.72369
-0.599882
-0.616157
-0.754595
-0.800147
-0.819703
-0.829262
-0.834366
-0.837218
-0.838823
-0.839649
-0.839907
-0.839656
-0.838838
-0.837242
-0.834395
-0.829287
-0.81961
-0.799729
-0.753863
-0.620006
-0.629462
-0.77515
-0.824573
-0.846525
-0.857613
-0.863703
-0.867176
-0.869157
-0.870184
-0.870502
-0.870184
-0.869157
-0.867173
-0.863686
-0.85756
-0.846289
-0.823906
-0.774108
-0.633433
-0.63891
-0.789621
-0.841854
-0.865629
-0.87793
-0.884838
-0.888843
-0.891155
-0.892362
-0.892735
-0.892353
-0.891135
-0.888804
-0.884767
-0.877784
-0.865235
-0.840944
-0.78829
-0.642855
-0.645861
-0.800146
-0.854446
-0.879611
-0.892871
-0.900442
-0.904899
-0.907495
-0.908859
-0.909278
-0.908838
-0.907451
-0.904819
-0.900312
-0.892624
-0.879062
-0.853314
-0.798557
-0.649722
-0.651118
-0.808004
-0.863847
-0.890074
-0.904089
-0.912208
-0.917035
-0.91987
-0.921366
-0.921824
-0.921333
-0.919799
-0.916913
-0.912002
-0.903739
-0.889378
-0.86252
-0.80619
-0.654877
-0.655184
-0.813999
-0.871014
-0.898055
-0.91267
-0.921219
-0.926358
-0.929393
-0.931
-0.93149
-0.930954
-0.929291
-0.926181
-0.920941
-0.912171
-0.897221
-0.869514
-0.811993
-0.658841
-0.658388
-0.818659
-0.87657
-0.904239
-0.919324
-0.928202
-0.933353
-0.936781
-0.938511
-0.939032
-0.938454
-0.936687
-0.933422
-0.927882
-0.918774
-0.903285
-0.874921
-0.816489
-0.661948
-0.660949
-0.822338
-0.88094
-0.909098
-0.924554
-0.933726
-0.939242
-0.942613
-0.944431
-0.944972
-0.944365
-0.94251
-0.939127
-0.933362
-0.923934
-0.908042
-0.879166
-0.820031
-0.664423
-0.663021
-0.825283
-0.884419
-0.91296
-0.928706
-0.938104
-0.943837
-0.947298
-0.94915
-0.949712
-0.94908
-0.947156
-0.943615
-0.937678
-0.92802
-0.911817
-0.882541
-0.82286
-0.666419
-0.664715
-0.827667
-0.887216
-0.916056
-0.932031
-0.941591
-0.947475
-0.951026
-0.95292
-0.953498
-0.952849
-0.950851
-0.947181
-0.941111
-0.931284
-0.91484
-0.885252
-0.825147
-0.668047
-0.666097
-0.829594
-0.889464
-0.918544
-0.934709
-0.944423
-0.950403
-0.954048
-0.955985
-0.956559
-0.955888
-0.953846
-0.950085
-0.943903
-0.933924
-0.917287
-0.887452
-0.827017
-0.669388
-0.667253
-0.831199
-0.891318
-0.920587
-0.936901
-0.946741
-0.952803
-0.956494
-0.958367
-0.959029
-0.958341
-0.955882
-0.952377
-0.946158
-0.93607
-0.919281
-0.889251
-0.828559
-0.670503
-0.668225
-0.832528
-0.892849
-0.922268
-0.938724
-0.948632
-0.95476
-0.958469
-0.960483
-0.961076
-0.960326
-0.958144
-0.954299
-0.947591
-0.937793
-0.920911
-0.890737
-0.829835
-0.671435
-0.669047
-0.833641
-0.894119
-0.923653
-0.940183
-0.950182
-0.956367
-0.960143
-0.962458
-0.963208
-0.962042
-0.959854
-0.955938
-0.949468
-0.93926
-0.922276
-0.89198
-0.830914
-0.672233
-0.669767
-0.834672
-0.895229
-0.924909
-0.941505
-0.951463
-0.957689
-0.96148
-0.963593
-0.96431
-0.963546
-0.961351
-0.957315
-0.950829
-0.940496
-0.923416
-0.893019
-0.831825
-0.672916
-0.670312
-0.835344
-0.896019
-0.925722
-0.942395
-0.952498
-0.958791
-0.962623
-0.964705
-0.965348
-0.964681
-0.962445
-0.958452
-0.951955
-0.941544
-0.924384
-0.893894
-0.832588
-0.673485
-0.670778
-0.835965
-0.896752
-0.926487
-0.943239
-0.953408
-0.959746
-0.963602
-0.965689
-0.966309
-0.965575
-0.963436
-0.959372
-0.952866
-0.942406
-0.9252
-0.894666
-0.833238
-0.673966
-0.671201
-0.836527
-0.897403
-0.927221
-0.943991
-0.954198
-0.960565
-0.964442
-0.966536
-0.96716
-0.966427
-0.964225
-0.960186
-0.953631
-0.94313
-0.925872
-0.895265
-0.833767
-0.674364
-0.671574
-0.837024
-0.897976
-0.927847
-0.944655
-0.954893
-0.961277
-0.965168
-0.967284
-0.96792
-0.96719
-0.964957
-0.96089
-0.954257
-0.943745
-0.926479
-0.895817
-0.834246
-0.674719
-0.671901
-0.837465
-0.898476
-0.928371
-0.945229
-0.955506
-0.961918
-0.965836
-0.967943
-0.9686
-0.967847
-0.965649
-0.961531
-0.954898
-0.944353
-0.927025
-0.896261
-0.834667
-0.67503
-0.672181
-0.837848
-0.89886
-0.928876
-0.945762
-0.956053
-0.96248
-0.966416
-0.968528
-0.96916
-0.968423
-0.96618
-0.96197
-0.955345
-0.944872
-0.92751
-0.896732
-0.835035
-0.675302
-0.672432
-0.838191
-0.899304
-0.929302
-0.946225
-0.956537
-0.962983
-0.966931
-0.969046
-0.969698
-0.968958
-0.966693
-0.962563
-0.955913
-0.945337
-0.927944
-0.897097
-0.835372
-0.675543
-0.67265
-0.838473
-0.899433
-0.929681
-0.946642
-0.956974
-0.963416
-0.967382
-0.969528
-0.970182
-0.969434
-0.967162
-0.963034
-0.95637
-0.945756
-0.928334
-0.897476
-0.835673
-0.675758
-0.672843
-0.838734
-0.899801
-0.930017
-0.94701
-0.957366
-0.963823
-0.96782
-0.969982
-0.970669
-0.969866
-0.967549
-0.963444
-0.956781
-0.946143
-0.928686
-0.89776
-0.835933
-0.675947
-0.673019
-0.838981
-0.900132
-0.930327
-0.947327
-0.957681
-0.964209
-0.968202
-0.970361
-0.971052
-0.970207
-0.967921
-0.963822
-0.957088
-0.946483
-0.928995
-0.898061
-0.836171
-0.676117
-0.673184
-0.839214
-0.900475
-0.930633
-0.947652
-0.958038
-0.964544
-0.968532
-0.9707
-0.971412
-0.970585
-0.968296
-0.964105
-0.957431
-0.946776
-0.929278
-0.898315
-0.836391
-0.676271
-0.673336
-0.839438
-0.900733
-0.930907
-0.947952
-0.958539
-0.96489
-0.96909
-0.971099
-0.971747
-0.971032
-0.968664
-0.964525
-0.957764
-0.947021
-0.929528
-0.898543
-0.836589
-0.676412
-0.673093
-0.832934
-0.900547
-0.931022
-0.948003
-0.95862
-0.965148
-0.969415
-0.971412
-0.972045
-0.971313
-0.969027
-0.965407
-0.958068
-0.947317
-0.929762
-0.898751
-0.83677
-0.676538

