# vtk DataFile Version 2.0
OUTPUT by 3D-VPM
ASCII
DATASET UNSTRUCTURED_GRID
POINTS 1660 double
8.132012e+01	1.023483e+00	-3.298327e+00
8.115622e+01	1.991643e+00	-1.588592e+00
8.202149e+01	2.407546e+00	-2.728619e+00
8.138466e+01	3.459146e+00	-2.565212e+00
8.150153e+01	4.471492e+00	-1.796275e+00
8.176816e+01	5.523301e+00	-1.734745e+00
8.170038e+01	6.523463e+00	-1.722144e+00
8.163274e+01	7.502093e+00	-1.566518e+00
8.166032e+01	8.496990e+00	-1.502895e+00
8.165550e+01	9.498695e+00	-1.493812e+00
8.165546e+01	1.050172e+01	-1.493844e+00
8.166022e+01	1.150346e+01	-1.502992e+00
8.163254e+01	1.249845e+01	-1.566658e+00
8.169995e+01	1.347728e+01	-1.722297e+00
8.176728e+01	1.447779e+01	-1.735047e+00
8.150085e+01	1.553119e+01	-1.796551e+00
8.138119e+01	1.655256e+01	-2.563462e+00
8.199691e+01	1.760093e+01	-2.740680e+00
8.122368e+01	1.805534e+01	-1.537520e+00
8.092770e+01	1.884174e+01	-3.148031e+00
8.051661e+01	1.171925e+00	-3.497019e+00
8.085896e+01	1.309982e+00	-8.914142e-01
8.063310e+01	2.447336e+00	-3.502291e+00
8.011182e+01	3.485031e+00	-1.700607e+00
8.036247e+01	4.509351e+00	-1.079357e+00
8.038216e+01	5.487423e+00	-1.252190e+00
8.029197e+01	6.435856e+00	-1.049808e+00
8.027824e+01	7.453319e+00	-9.517311e-01
8.026873e+01	8.470450e+00	-9.250754e-01
8.025950e+01	9.488692e+00	-9.059020e-01
8.025948e+01	1.051163e+01	-9.059448e-01
8.026868e+01	1.152993e+01	-9.252120e-01
8.027816e+01	1.254718e+01	-9.519808e-01
8.029185e+01	1.356491e+01	-1.050289e+00
8.038199e+01	1.451388e+01	-1.253134e+00
8.036204e+01	1.549256e+01	-1.081585e+00
8.011350e+01	1.651957e+01	-1.708334e+00
8.065971e+01	1.759144e+01	-3.507273e+00
8.084636e+01	1.866749e+01	-8.801550e-01
8.089891e+01	1.881994e+01	-3.574699e+00
7.950183e+01	1.313378e+00	-2.070052e+00
7.905992e+01	1.398093e+00	-3.001448e+00
8.132486e+01	4.958081e-01	-2.670134e+00
8.145245e+01	2.775772e+00	-2.004240e+00
8.225540e+01	3.647489e+00	-1.491716e+00
8.270408e+01	5.018342e+00	-1.338813e+00
8.252445e+01	6.199499e+00	-1.031991e+00
8.249322e+01	7.269781e+00	-8.749185e-01
8.247950e+01	8.373356e+00	-7.839176e-01
8.245248e+01	9.460524e+00	-7.394718e-01
8.245247e+01	1.053963e+01	-7.395245e-01
8.247949e+01	1.162678e+01	-7.840997e-01
8.249324e+01	1.273032e+01	-8.752861e-01
8.252449e+01	1.380054e+01	-1.032686e+00
8.270386e+01	1.498139e+01	-1.340083e+00
8.225424e+01	1.635260e+01	-1.492542e+00
8.143880e+01	1.723933e+01	-2.005732e+00
8.145042e+01	1.964075e+01	-2.716827e+00
7.909987e+01	1.866096e+01	-3.035833e+00
7.951743e+01	1.868893e+01	-2.067263e+00
7.839865e+01	3.002685e-01	-2.352308e+00
7.847697e+01	1.618003e+00	-2.630418e+00
7.995849e+01	-4.175441e-01	-3.105114e+00
8.016686e+01	2.237718e+00	-4.711492e+00
8.058065e+01	3.946808e+00	-4.482648e+00
8.079609e+01	5.163452e+00	-4.245324e+00
8.090700e+01	6.281935e+00	-4.079987e+00
8.097706e+01	7.363022e+00	-3.958010e+00
8.101743e+01	8.422398e+00	-3.880469e+00
8.103543e+01	9.474618e+00	-3.843981e+00
8.103543e+01	1.052561e+01	-3.844014e+00
8.101745e+01	1.157789e+01	-3.880573e+00
8.097708e+01	1.263741e+01	-3.958173e+00
8.090699e+01	1.371877e+01	-4.080175e+00
8.079632e+01	1.483788e+01	-4.245347e+00
8.058197e+01	1.605570e+01	-4.481015e+00
8.017250e+01	1.776388e+01	-4.701393e+00
7.995427e+01	2.042072e+01	-3.125763e+00
7.849000e+01	1.837369e+01	-2.630239e+00
7.843228e+01	1.969419e+01	-2.346188e+00
7.751402e+01	1.659416e-01	-2.053740e+00
7.757959e+01	1.633998e+00	-1.489561e+00
7.855740e+01	-9.416683e-01	-2.917245e+00
7.847454e+01	1.889917e+00	-4.821233e+00
7.866158e+01	3.748437e+00	-4.771303e+00
7.882348e+01	5.087042e+00	-4.585713e+00
7.892426e+01	6.247487e+00	-4.430716e+00
7.898479e+01	7.343590e+00	-4.320053e+00
7.901952e+01	8.413255e+00	-4.250107e+00
7.903545e+01	9.472022e+00	-4.216538e+00
7.903550e+01	1.052810e+01	-4.216607e+00
7.901969e+01	1.158689e+01	-4.250332e+00
7.898514e+01	1.265660e+01	-4.320461e+00
7.892490e+01	1.375275e+01	-4.431328e+00
7.882501e+01	1.491322e+01	-4.586636e+00
7.866504e+01	1.625113e+01	-4.771561e+00
7.848020e+01	1.810350e+01	-4.819810e+00
7.855734e+01	2.093708e+01	-2.946567e+00
7.758312e+01	1.836654e+01	-1.487209e+00
7.752820e+01	1.982792e+01	-2.045665e+00
7.672401e+01	2.005656e-01	-1.630199e+00
7.659280e+01	1.387487e+00	-1.845060e+00
7.738689e+01	-1.197356e+00	-2.878289e+00
7.718629e+01	1.704141e+00	-4.765497e+00
7.727917e+01	3.612823e+00	-4.746567e+00
7.738613e+01	5.006068e+00	-4.572472e+00
7.746348e+01	6.202101e+00	-4.417852e+00
7.751335e+01	7.318219e+00	-4.305293e+00
7.754273e+01	8.400271e+00	-4.233838e+00
7.755640e+01	9.467996e+00	-4.199465e+00
7.755645e+01	1.053197e+01	-4.199558e+00
7.754291e+01	1.159966e+01	-4.234139e+00
7.751373e+01	1.268164e+01	-4.305840e+00
7.746413e+01	1.379757e+01	-4.418669e+00
7.738750e+01	1.499317e+01	-4.573768e+00
7.728173e+01	1.638490e+01	-4.747379e+00
7.718892e+01	1.828715e+01	-4.764846e+00
7.738367e+01	2.118837e+01	-2.908043e+00
7.659619e+01	1.861318e+01	-1.855469e+00
7.673396e+01	1.979479e+01	-1.630947e+00
7.583296e+01	-7.557913e-02	-1.539013e+00
7.580849e+01	1.380747e+00	-1.811156e+00
7.619955e+01	-1.345696e+00	-2.732165e+00
7.604660e+01	1.592068e+00	-4.654496e+00
7.609965e+01	3.525259e+00	-4.646257e+00
7.617172e+01	4.946102e+00	-4.471308e+00
7.622901e+01	6.164040e+00	-4.312722e+00
7.626847e+01	7.295398e+00	-4.196262e+00
7.629265e+01	8.388143e+00	-4.122104e+00
7.630414e+01	9.464158e+00	-4.086380e+00
7.630419e+01	1.053566e+01	-4.086479e+00
7.629281e+01	1.161162e+01	-4.122417e+00
7.626877e+01	1.270422e+01	-4.196812e+00
7.622952e+01	1.383526e+01	-4.313527e+00
7.617270e+01	1.505256e+01	-4.472495e+00
7.610128e+01	1.647166e+01	-4.646581e+00
7.604787e+01	1.839842e+01	-4.652727e+00
7.619714e+01	2.133399e+01	-2.759895e+00
7.581371e+01	1.861459e+01	-1.811870e+00
7.584106e+01	2.007019e+01	-1.538118e+00
7.487810e+01	3.043137e-02	-1.533961e+00
7.491804e+01	1.486516e+00	-1.579083e+00
7.509543e+01	-1.397994e+00	-2.459693e+00
7.498063e+01	1.516845e+00	-4.527643e+00
7.501439e+01	3.466957e+00	-4.526389e+00
7.506444e+01	4.903465e+00	-4.347834e+00
7.510665e+01	6.134741e+00	-4.184448e+00
7.513719e+01	7.276689e+00	-4.064000e+00
7.515658e+01	8.377794e+00	-3.987136e+00
7.516598e+01	9.460821e+00	-3.950069e+00
7.516602e+01	1.053889e+01	-3.950159e+00
7.515670e+01	1.162184e+01	-3.987412e+00
7.513741e+01	1.272277e+01	-4.064456e+00
7.510702e+01	1.386436e+01	-4.185177e+00
7.506512e+01	1.509493e+01	-4.348749e+00
7.501545e+01	1.652961e+01	-4.525889e+00
7.498140e+01	1.847315e+01	-4.524541e+00
7.509424e+01	2.138704e+01	-2.489158e+00
7.492085e+01	1.850870e+01	-1.574733e+00
7.488557e+01	1.996207e+01	-1.534395e+00
7.396526e+01	1.463524e-01	-1.335838e+00
7.396472e+01	1.484805e+00	-1.495032e+00
7.407226e+01	-1.398754e+00	-2.258921e+00
7.395536e+01	1.467033e+00	-4.403503e+00
7.397654e+01	3.428622e+00	-4.407212e+00
7.401179e+01	4.874166e+00	-4.224812e+00
7.404286e+01	6.113377e+00	-4.057165e+00
7.406618e+01	7.262326e+00	-3.933234e+00
7.408139e+01	8.369559e+00	-3.854003e+00
7.408892e+01	9.458119e+00	-3.815754e+00
7.408895e+01	1.054152e+01	-3.815818e+00
7.408149e+01	1.163000e+01	-3.854185e+00
7.406634e+01	1.273705e+01	-3.933526e+00
7.404311e+01	1.388561e+01	-4.057610e+00
7.401227e+01	1.512413e+01	-4.225273e+00
7.397733e+01	1.656779e+01	-4.405886e+00
7.395601e+01	1.852254e+01	-4.399224e+00
7.407139e+01	2.138860e+01	-2.289308e+00
7.396610e+01	1.851118e+01	-1.491085e+00
7.397111e+01	1.984535e+01	-1.333258e+00
7.302272e+01	1.108954e-01	-1.248711e+00
7.303273e+01	1.501992e+00	-1.416501e+00
7.305486e+01	-1.384843e+00	-2.119147e+00
7.295158e+01	1.439117e+00	-4.291417e+00
7.296311e+01	3.405395e+00	-4.296402e+00
7.298775e+01	4.855193e+00	-4.110339e+00
7.301060e+01	6.098619e+00	-3.939416e+00
7.302821e+01	7.251950e+00	-3.812735e+00
7.303987e+01	8.363436e+00	-3.731363e+00
7.304575e+01	9.456077e+00	-3.692062e+00
7.304578e+01	1.054352e+01	-3.692063e+00
7.303992e+01	1.163610e+01	-3.731264e+00
7.302818e+01	1.274736e+01	-3.812297e+00
7.301062e+01	1.390024e+01	-3.938966e+00
7.298800e+01	1.514294e+01	-4.109588e+00
7.296369e+01	1.659082e+01	-4.293779e+00
7.295221e+01	1.855010e+01	-4.286108e+00
7.305439e+01	2.137504e+01	-2.149690e+00
7.303416e+01	1.849346e+01	-1.410291e+00
7.302711e+01	1.988251e+01	-1.245828e+00
7.206960e+01	1.450095e-01	-1.235914e+00
7.208316e+01	1.543229e+00	-1.308392e+00
7.204468e+01	-1.353513e+00	-2.002882e+00
7.195707e+01	1.428172e+00	-4.193305e+00
7.196183e+01	3.393902e+00	-4.195976e+00
7.197872e+01	4.844341e+00	-4.006190e+00
7.199512e+01	6.089570e+00	-3.829936e+00
7.200829e+01	7.245083e+00	-3.701112e+00
7.201741e+01	8.359125e+00	-3.620852e+00
7.202195e+01	9.454623e+00	-3.580950e+00
7.202197e+01	1.054494e+01	-3.580859e+00
7.201743e+01	1.164035e+01	-3.620598e+00
7.200848e+01	1.275428e+01	-3.703084e+00
7.199532e+01	1.390944e+01	-3.831638e+00
7.197891e+01	1.515370e+01	-4.004719e+00
7.196235e+01	1.660217e+01	-4.192431e+00
7.195769e+01	1.856077e+01	-4.187066e+00
7.204435e+01	2.134414e+01	-2.033470e+00
7.208412e+01	1.845176e+01	-1.299563e+00
7.207284e+01	1.984811e+01	-1.233235e+00
7.110790e+01	1.858408e-01	-1.185492e+00
7.111600e+01	1.572739e+00	-1.205594e+00
7.104426e+01	-1.315019e+00	-1.920814e+00
7.096620e+01	1.429696e+00	-4.107636e+00
7.096627e+01	3.391364e+00	-4.105454e+00
7.097748e+01	4.839822e+00	-3.912100e+00
7.098930e+01	6.084803e+00	-3.732870e+00
7.099910e+01	7.240933e+00	-3.602167e+00
7.100601e+01	8.356359e+00	-3.521637e+00
7.100948e+01	9.453673e+00	-3.481602e+00
7.100949e+01	1.054585e+01	-3.481474e+00
7.100600e+01	1.164301e+01	-3.521600e+00
7.099925e+01	1.275840e+01	-3.605541e+00
7.098949e+01	1.391437e+01	-3.735724e+00
7.097771e+01	1.515829e+01	-3.910783e+00
7.096678e+01	1.660471e+01	-4.101629e+00
7.096685e+01	1.855907e+01	-4.100606e+00
7.104362e+01	2.130539e+01	-1.950772e+00
7.111720e+01	1.842177e+01	-1.194736e+00
7.111026e+01	1.980513e+01	-1.180048e+00
7.012842e+01	2.343906e-01	-1.146453e+00
7.014664e+01	1.600685e+00	-1.101983e+00
7.004520e+01	-1.271923e+00	-1.865597e+00
6.997659e+01	1.440768e+00	-4.032693e+00
6.997311e+01	3.395545e+00	-4.023648e+00
6.998018e+01	4.840004e+00	-3.826910e+00
6.998873e+01	6.083006e+00	-3.648239e+00
[...]
CELL_DATA 1558
SCALARS Mu double 1
LOOKUP_TABLE default
-0.388429
-0.434839
-0.445113
-0.448285
-0.449531
-0.450112
-0.450415
-0.45058
-0.450664
-0.450691
-0.450664
-0.45058
-0.450415
-0.450112
-0.449531
-0.448285
-0.445113
-0.434839
-0.388429
-0.510131
-0.594683
-0.616974
-0.624665
-0.627855
-0.629376
-0.630171
-0.630603
-0.630824
-0.630893
-0.630827
-0.630608
-0.630178
-0.629383
-0.627864
-0.624669
-0.616953
-0.594531
-0.509768
-0.565402
-0.676259
-0.708906
-0.721304
-0.726769
-0.729481
-0.73093
-0.731726
-0.732133
-0.732261
-0.732142
-0.731746
-0.730963
-0.729527
-0.726831
-0.721339
-0.708845
-0.676044
-0.567553
-0.5965
-0.724128
-0.764294
-0.780705
-0.788374
-0.792329
-0.794491
-0.79569
-0.796305
-0.796497
-0.796315
-0.795713
-0.794527
-0.792381
-0.788441
-0.780711
-0.764093
-0.72369
-0.599882
-0.616157
-0.754595
-0.800147
-0.819703
-0.829262
-0.834366
-0.837218
-0.838823
-0.839649
-0.839907
-0.839656
-0.838838
-0.837242
-0.834395
-0.829287
-0.81961
-0.799729
-0.753863
-0.620006
-0.629462
-0.77515
-0.824573
-0.846525
-0.857613
-0.863703
-0.867176
-0.869157
-0.870184
-0.870502
-0.870184
-0.869157
-0.867173
-0.863686
-0.85756
-0.846289
-0.823906
-0.774108
-0.633433
-0.63891
-0.789621
-0.841854
-0.865629
-0.87793
-0.884838
-0.888843
-0.891155
-0.892362
-0.892735
-0.892353
-0.891135
-0.888804
-0.884767
-0.877784
-0.865235
-0.840944
-0.78829
-0.642855
-0.645861
-0.800146
-0.854446
-0.879611
-0.892871
-0.900442
-0.904899
-0.907495
-0.908859
-0.909278
-0.908838
-0.907451
-0.904819
-0.900312
-0.892624
-0.879062
-0.853314
-0.798557
-0.649722
-0.651118
-0.808004
-0.863847
-0.890074
-0.904089
-0.912208
-0.917035
-0.91987
-0.921366
-0.921824
-0.921333
-0.919799
-0.916913
-0.912002
-0.903739
-0.889378
-0.86252
-0.80619
-0.654877
-0.655184
-0.813999
-0.871014
-0.898055
-0.91267
-0.921219
-0.926358
-0.929393
-0.931
-0.93149
-0.930954
-0.929291
-0.926181
-0.920941
-0.912171
-0.897221
-0.869514
-0.811993
-0.658841
-0.658388
-0.818659
-0.87657
-0.904239
-0.919324
-0.928202
-0.933353
-0.936781
-0.938511
-0.939032
-0.938454
-0.936687
-0.933422
-0.927882
-0.918774
-0.903285
-0.874921
-0.816489
-0.661948
-0.660949
-0.822338
-0.88094
-0.909098
-0.924554
-0.933726
-0.939242
-0.942613
-0.944431
-0.944972
-0.944365
-0.94251
-0.939127
-0.933362
-0.923934
-0.908042
-0.879166
-0.820031
-0.664423
-0.663021
-0.825283
-0.884419
-0.91296
-0.928706
-0.938104
-0.943837
-0.947298
-0.94915
-0.949712
-0.94908
-0.947156
-0.943615
-0.937678
-0.92802
-0.911817
-0.882541
-0.82286
-0.666419
-0.664715
-0.827667
-0.887216
-0.916056
-0.932031
-0.941591
-0.947475
-0.951026
-0.95292
-0.953498
-0.952849
-0.950851
-0.947181
-0.941111
-0.931284
-0.91484
-0.885252
-0.825147
-0.668047
-0.666097
-0.829594
-0.889464
-0.918544
-0.934709
-0.944423
-0.950403
-0.954048
-0.955985
-0.956559
-0.955888
-0.953846
-0.950085
-0.943903
-0.933924
-0.917287
-0.887452
-0.827017
-0.669388
-0.667253
-0.831199
-0.891318
-0.920587
-0.936901
-0.946741
-0.952803
-0.956494
-0.958367
-0.959029
-0.958341
-0.955882
-0.952377
-0.946158
-0.93607
-0.919281
-0.889251
-0.828559
-0.670503
-0.668225
-0.832528
-0.892849
-0.922268
-0.938724
-0.948632
-0.95476
-0.958469
-0.960483
-0.961076
-0.960326
-0.958144
-0.954299
-0.947591
-0.937793
-0.920911
-0.890737
-0.829835
-0.671435
-0.669047
-0.833641
-0.894119
-0.923653
-0.940183
-0.950182
-0.956367
-0.960143
-0.962458
-0.963208
-0.962042
-0.959854
-0.955938
-0.949468
-0.93926
-0.922276
-0.89198
-0.830914
-0.672233
-0.669767
-0.834672
-0.895229
-0.924909
-0.941505
-0.951463
-0.957689
-0.96148
-0.963593
-0.96431
-0.963546
-0.961351
-0.957315
-0.950829
-0.940496
-0.923416
-0.893019
-0.831825
-0.672916
-0.670312
-0.835344
-0.896019
-0.925722
-0.942395
-0.952498
-0.958791
-0.962623
-0.964705
-0.965348
-0.964681
-0.962445
-0.958452
-0.951955
-0.941544
-0.924384
-0.893894
-0.832588
-0.673485
-0.670778
-0.835965
-0.896752
-0.926487
-0.943239
-0.953408
-0.959746
-0.963602
-0.965689
-0.966309
-0.965575
-0.963436
-0.959372
-0.952866
-0.942406
-0.9252
-0.894666
-0.833238
-0.673966
-0.671201
-0.836527
-0.897403
-0.927221
-0.943991
-0.954198
-0.960565
-0.964442
-0.966536
-0.96716
-0.966427
-0.964225
-0.960186
-0.953631
-0.94313
-0.925872
-0.895265
-0.833767
-0.674364
-0.671574
-0.837024
-0.897976
-0.927847
-0.944655
-0.954893
-0.961277
-0.965168
-0.967284
-0.96792
-0.96719
-0.964957
-0.96089
-0.954257
-0.943745
-0.926479
-0.895817
-0.834246
-0.674719
-0.671901
-0.837465
-0.898476
-0.928371
-0.945229
-0.955506
-0.961918
-0.965836
-0.967943
-0.9686
-0.967847
-0.965649
-0.961531
-0.954898
-0.944353
-0.927025
-0.896261
-0.834667
-0.67503
-0.672181
-0.837848
-0.89886
-0.928876
-0.945762
-0.956053
-0.96248
-0.966416
-0.968528
-0.96916
-0.968423
-0.96618
-0.96197
-0.955345
-0.944872
-0.92751
-0.896732
-0.835035
-0.675302
-0.672432
-0.838191
-0.899304
-0.929302
-0.946225
-0.956537
-0.962983
-0.966931
-0.969046
-0.969698
-0.968958
-0.966693
-0.962563
-0.955913
-0.945337
-0.927944
-0.897097
-0.835372
-0.675543
-0.67265
-0.838473
-0.899433
-0.929681
-0.946642
-0.956974
-0.963416
-0.967382
-0.969528
-0.970182
-0.969434
-0.967162
-0.963034
-0.95637
-0.945756
-0.928334
-0.897476
-0.835673
-0.675758
-0.672843
-0.838734
-0.899801
-0.930017
-0.94701
-0.957366
-0.963823
-0.96782
-0.969982
-0.970669
-0.969866
-0.967549
-0.963444
-0.956781
-0.946143
-0.928686
-0.89776
-0.835933
-0.675947
-0.673019
-0.838981
-0.900132
-0.930327
-0.947327
-0.957681
-0.964209
-0.968202
-0.970361
-0.971052
-0.970207
-0.967921
-0.963822
-0.957088
-0.946483
-0.928995
-0.898061
-0.836171
-0.676117
-0.673184
-0.839214
-0.900475
-0.930633
-0.947652
-0.958038
-0.964544
-0.968532
-0.9707
-0.971412
-0.970585
-0.968296
-0.964105
-0.957431
-0.946776
-0.929278
-0.898315
-0.836391
-0.676271
-0.673336
-0.839438
-0.900733
-0.930907
-0.947952
-0.958539
-0.96489
-0.96909
-0.971099
-0.971747
-0.971032
-0.968664
-0.964525
-0.957764
-0.947021
-0.929528
-0.898543
-0.836589
-0.676412
-0.673093
-0.832934
-0.900547
-0.931022
-0.948003
-0.95862
-0.965148
-0.969415
-0.971412
-0.972045
-0.971313
-0.969027
-0.965407
-0.958068
-0.947317
-0.929762
-0.898751
-0.83677
-0.676538
-0.673109
-0.838233
-0.900522
-0.931105
-0.948293
-0.958806
-0.965382
-0.969683
-0.971677
-0.972301
-0.971567
-0.969306
-0.965783
-0.95836
-0.947568
-0.929975
-0.898935
-0.83693
-0.676652
-0.673397
-0.839334
-0.900867
-0.931315
-0.948502
-0.959012
-0.965615
-0.970051
-0.972024
-0.97254
-0.971793
-0.969506
-0.96541
-0.958569
-0.947775
-0.930156
-0.899072
-0.83707
-0.676757
-0.673604
-0.839754
-0.901216
-0.931532
-0.948696
-0.959212
-0.965862
-0.970156
-0.972154
-0.972747
-0.971998
-0.969691
-0.965496
-0.958798
-0.947957
-0.930312
-0.899211
-0.837196
-0.676852
-0.673756
-0.839992
-0.901407
-0.931681
-0.948861
-0.959426
-0.966021
-0.970411
-0.972329
-0.972929
-0.972154
-0.969843
-0.965629
-0.958887
-0.948089
-0.930449
-0.899337
-0.83731
-0.676936
-0.673875
-0.840163
-0.901591
-0.931873
-0.949026
-0.959545
-0.966179
-0.970492
-0.972491
-0.973094
-0.972311
-0.970005
-0.965796
-0.959061
-0.948218
-0.930574
-0.899452
-0.83741
-0.677013
-0.673972
-0.840299
-0.90173
-0.932019
-0.949157
-0.959648
-0.966291
-0.970629
-0.972706
-0.973241
-0.972472
-0.970159
-0.965913
-0.959131
-0.948335
-0.93073
-0.899558
-0.837505
-0.677083
-0.674055
-0.840414
-0.901851
-0.932148
-0.949367
-0.959803
-0.966422
-0.970753
-0.972774
-0.973387
-0.972691
-0.970305
-0.966032
-0.95925
-0.948466
-0.930802
-0.899682
-0.837596
-0.677151
-0.67413
-0.840515
-0.901958
-0.932259
-0.94945
-0.959925
-0.966547
-0.97095
-0.972724
-0.973462
-0.972732
-0.970365
-0.96615
-0.959404
-0.948576
-0.930894
-0.899772
-0.837678
-0.677212
-0.674198
-0.840603
-0.90205
-0.932345
-0.94942
-0.960026
-0.966664
-0.970992
-0.972961
-0.973695
-0.972848
-0.970146
-0.966318
-0.959473
-0.948614
-0.930956
-0.899821
-0.837742
-0.677265
-0.674258
-0.84068
-0.902131
-0.932425
-0.949485
-0.960115
-0.966749
-0.971085
-0.973081
-0.973718
-0.972906
-0.970484
-0.966326
-0.959536
-0.948734
-0.93109
-0.899936
-0.83783
-0.677332
-0.67431
-0.84075
-0.902206
-0.932504
-0.949582
-0.96021
-0.967018
-0.971233
-0.973196
-0.973804
-0.973005
-0.970645
-0.966413
-0.959631
-0.948933
-0.93116
-0.900019
-0.837902
-0.677385
-0.674361
-0.840818
-0.902278
-0.932589
-0.949749
-0.960329
-0.966975
-0.971287
-0.973286
-0.973891
-0.973088
-0.970748
-0.966503
-0.959712
-0.948919
-0.931231
-0.90009
-0.837968
-0.677434
-0.674408
-0.84088
-0.902346
-0.932665
-0.949841
-0.960414
-0.967024
-0.97135
-0.973367
-0.974031
-0.97314
-0.970837
-0.966663
-0.959791
-0.948975
-0.931295
-0.900155
-0.838031
-0.67748
-0.67445
-0.840931
-0.902395
-0.932701
-0.949911
-0.960555
-0.967096
-0.971419
-0.973434
-0.974045
-0.973248
-0.970958
-0.966758
-0.959867
-0.949038
-0.931354
-0.900214
-0.838086
-0.677522
-0.674494
-0.840983
-0.902448
-0.932754
-0.949967
-0.960535
-0.967169
-0.971481
-0.973485
-0.974101
-0.973326
-0.971033
-0.966759
-0.959927
-0.949097
-0.931411
-0.900268
-0.838137
-0.677563
-0.674532
-0.841035
-0.902512
-0.932835
-0.950032
-0.96057
-0.96722
-0.971574
-0.973597
-0.974172
-0.973392
-0.971098
-0.966815
-0.959977
-0.949151
-0.931465
-0.90032
-0.838186
-0.677601
-0.674563
-0.841077
-0.902561
-0.932881
-0.949981
-0.960609
-0.967262
-0.971636
-0.973667
-0.974236
-0.973453
-0.971158
-0.966875
-0.960066
-0.949221
-0.931526
-0.90037
-0.838231
-0.677636
-0.674597
-0.841121
-0.902607
-0.932929
-0.950109
-0.960653
-0.967309
-0.971687
-0.973721
-0.974284
-0.973456
-0.97113
-0.966912
-0.960116
-0.949275
-0.931577
-0.900417
-0.838273
-0.677668
-0.674628
-0.841162
-0.90265
-0.932977
-0.95017
-0.960703
-0.967357
-0.971735
-0.973766
-0.974328
-0.973492
-0.971168
-0.967092
-0.960134
-0.949308
-0.931614
-0.900459
-0.838313
-0.677699
-0.674656
-0.8412
-0.902692
-0.933023
-0.950252
-0.960752
-0.967403
-0.971781
-0.973811
-0.974371
-0.973531
-0.971212
-0.967153
-0.960184
-0.949349
-0.931655
-0.900498
-0.83835
-0.677728
-0.674684
-0.841236
-0.902732
-0.933066
-0.950302
-0.960796
-0.967442
-0.971794
-0.973849
-0.974408
-0.973574
-0.971267
-0.967281
-0.960261
-0.949395
-0.931694
-0.900536
-0.838385
-0.677755
-0.67471
-0.84127
-0.90277
-0.933108
-0.950345
-0.960838
-0.967482
-0.971834
-0.973904
-0.974506
-0.973629
-0.97135
-0.967322
-0.960292
-0.949434
-0.931732
-0.900572
-0.838419
-0.677781
-0.674735
-0.841302
-0.902806
-0.933151
-0.950391
-0.960933
-0.967553
-0.971876
-0.973897
-0.974498
-0.973663
-0.97135
-0.967205
-0.960267
-0.949464
-0.931766
-0.900606
-0.83845
-0.677805
-0.674759
-0.841335
-0.902839
-0.933187
-0.950428
-0.960939
-0.967594
-0.971912
-0.973932
-0.974602
-0.973733
-0.971418
-0.967176
-0.960304
-0.949493
-0.931798
-0.900637
-0.838479
-0.677828
-0.674781
-0.841364
-0.90287
-0.933216
-0.950411
-0.960962
-0.967628
-0.971945
-0.973957
-0.974573
-0.973748
-0.971466
-0.967192
-0.960335
-0.949592
-0.931833
-0.900668
-0.838507
-0.67785
-0.674804
-0.84139
-0.902899
-0.933245
-0.950432
-0.96099
-0.967662
-0.972023
-0.973995
-0.974628
-0.973778
-0.971495
-0.96722
-0.960368
-0.949636
-0.931868
-0.900698
-0.838534
-0.677869
-0.674824
-0.841417
-0.902924
-0.933269
-0.950456
-0.961015
-0.96769
-0.97206
-0.97402
-0.97463
-0.973798
-0.971486
-0.967243
-0.960397
-0.949669
-0.931899
-0.900726
-0.838559
-0.677889
-0.674839
-0.841437
-0.902946
-0.933288
-0.950481
-0.961041
-0.967719
-0.972119
-0.974049
-0.974651
-0.973817
-0.971502
-0.967263
-0.960396
-0.949697
-0.931927
-0.900752
-0.838583
-0.677907
-0.674856
-0.841458
-0.90297
-0.933315
-0.950521
-0.961071
-0.96775
-0.972159
-0.974092
-0.974728
-0.973845
-0.971524
-0.967276
-0.960413
-0.949721
-0.931953
-0.900777
-0.838606
-0.677925
-0.674876
-0.841481
-0.902995
-0.93334
-0.95055
-0.961098
-0.967774
-0.97216
-0.974122
-0.974765
-0.973875
-0.971551
-0.967298
-0.960435
-0.949745
-0.931976
-0.9008
-0.838627
-0.677942
-0.67489
-0.841502
-0.903017
-0.933365
-0.950565
-0.961167
-0.967803
-0.972182
-0.974148
-0.974794
-0.973902
-0.971577
-0.967322
-0.960459
-0.949779
-0.932001
-0.900822
-0.838648
-0.677958
-0.674906
-0.841521
-0.903038
-0.933388
-0.950589
-0.961201
-0.967837
-0.972208
-0.974173
-0.974819
-0.973926
-0.9716
-0.967343
-0.960476
-0.949733
-0.932018
-0.900842
-0.838667
-0.677973
-0.674921
-0.841543
-0.903059
-0.933409
-0.950609
-0.961185
-0.967865
-0.972259
-0.974629
-0.974899
-0.973964
-0.971643
-0.967457
-0.961978
-0.949833
-0.932052
-0.900866
-0.838687
-0.677988
-0.674935
-0.841562
-0.903079
-0.93343
-0.950629
-0.961202
-0.967896
-0.972312
-0.974752
-0.97497
-0.974015
-0.971713
-0.967635
-0.962331
-0.949975
-0.93211
-0.900898
-0.83871
-0.678004
-0.674949
-0.841579
-0.903098
-0.93345
-0.950651
-0.961225
-0.967926
-0.972352
-0.97481
-0.975024
-0.974065
-0.971777
-0.967727
-0.962467
-0.950076
-0.932165
-0.900932
-0.838734
-0.678021
-0.674962
-0.841596
-0.903116
-0.933469
-0.950671
-0.961246
-0.967948
-0.972359
-0.974421
-0.975038
-0.974101
-0.971824
-0.96779
-0.962543
-0.950139
-0.932207
-0.900963
-0.838762
-0.678038
-0.674975
-0.841612
-0.903133
-0.933486
-0.950689
-0.961264
-0.967961
-0.972357
-0.974359
-0.975035
-0.974123
-0.971858
-0.967834
-0.962594
-0.950183
-0.932241
-0.90099
-0.838784
-0.678053
-0.674986
-0.841627
-0.903149
-0.933503
-0.950705
-0.961279
-0.967973
-0.972365
-0.974354
-0.97504
-0.974142
-0.971885
-0.967867
-0.962631
-0.950216
-0.932268
-0.901014
-0.838804
-0.678068
-0.674997
-0.841641
-0.903165
-0.933518
-0.950721
-0.961294
-0.967986
-0.972376
-0.974362
-0.975054
-0.974169
-0.971909
-0.967894
-0.962661
-0.950243
-0.932292
-0.901035
-0.838822
-0.678081
-0.675008
-0.841655
-0.903179
-0.933533
-0.950736
-0.961309
-0.968
-0.972387
-0.974374
-0.975071
-0.974192
-0.971931
-0.967917
-0.962685
-0.950266
-0.932312
-0.901055
-0.838839
-0.678093
-0.675018
-0.841668
-0.903193
-0.933548
-0.950752
-0.961333
-0.968121
-0.97241
-0.97439
-0.975087
-0.97421
-0.971949
-0.967937
-0.962707
-0.950286
-0.93233
-0.901072
-0.838854
-0.678105
-0.675028
-0.841681
-0.903207
-0.933563
-0.950769
-0.961355
-0.96816
-0.972434
-0.974407
-0.975103
-0.974227
-0.971966
-0.967955
-0.962726
-0.950303
-0.932346
-0.901087
-0.838868
-0.678116
-0.675038
-0.841693
-0.90322
-0.933577
-0.950785
-0.961373
-0.968182
-0.972453
-0.974424
-0.975119
-0.974243
-0.971982
-0.967971
-0.962743
-0.95032
-0.932361
-0.901101
-0.838881
-0.678126
-0.675047
-0.841705
-0.903233
-0.933591
-0.950799
-0.961389
-0.968199
-0.97247
-0.974439
-0.975134
-0.974257
-0.971997
-0.967987
-0.962759
-0.950334
-0.932375
-0.901114
-0.838893
-0.678135
-0.675056
-0.841716
-0.903245
-0.933603
-0.950813
-0.961403
-0.968214
-0.972485
-0.974453
-0.975148
-0.974271
-0.97201
-0.968001
-0.962773
-0.950348
-0.932388
-0.901127
-0.838904
-0.678144
-0.675064
-0.841727
-0.903257
-0.933616
-0.950826
-0.961416
-0.968228
-0.972498
-0.974466
-0.975161
-0.974285
-0.972023
-0.968014
-0.962787
-0.950361
-0.9324
-0.901138
-0.838915
-0.678152
-0.675072
-0.841737
-0.903268
-0.933627
-0.950838
-0.961429
-0.968241
-0.972511
-0.974479
-0.975174
-0.974297
-0.972036
-0.968029
-0.962815
-0.950376
-0.932412
-0.901149
-0.838925
-0.67816
-0.67508
-0.841747
-0.903278
-0.933638
-0.950849
-0.96144
-0.968253
-0.972523
-0.974491
-0.975186
-0.974309
-0.972048
-0.968044
-0.962833
-0.950397
-0.932556
-0.901167
-0.838936
-0.678168
-0.675088
-0.841757
-0.903289
-0.933649
-0.95086
-0.961452
-0.968264
-0.972535
-0.974504
-0.975203
-0.974349
-0.972065
-0.968058
-0.962849
-0.950411
-0.932463
-0.901181
-0.838947
-0.678176

