# vtk DataFile Version 2.0
OUTPUT by 3D-VPM
ASCII
DATASET UNSTRUCTURED_GRID
POINTS 1520 double
7.405235e+01	1.059033e+00	-3.222608e+00
7.454209e+01	1.728955e+00	-1.531475e+00
7.475744e+01	2.547473e+00	-2.786866e+00
7.430098e+01	3.536785e+00	-2.364876e+00
7.449292e+01	4.481157e+00	-1.689095e+00
7.467195e+01	5.511534e+00	-1.668241e+00
7.458730e+01	6.504108e+00	-1.636940e+00
7.455237e+01	7.488086e+00	-1.502263e+00
7.456648e+01	8.488514e+00	-1.456937e+00
7.455914e+01	9.495525e+00	-1.444048e+00
7.455913e+01	1.050456e+01	-1.444058e+00
7.456645e+01	1.151156e+01	-1.456964e+00
7.455230e+01	1.251198e+01	-1.502279e+00
7.458715e+01	1.349596e+01	-1.636893e+00
7.467170e+01	1.448858e+01	-1.668073e+00
7.449258e+01	1.551950e+01	-1.688598e+00
7.430010e+01	1.646654e+01	-2.364728e+00
7.475209e+01	1.745389e+01	-2.786221e+00
7.456945e+01	1.829410e+01	-1.503884e+00
7.392113e+01	1.900973e+01	-3.050705e+00
7.339092e+01	1.189781e+00	-3.207601e+00
7.416118e+01	1.024748e+00	-8.497900e-01
7.351249e+01	2.410832e+00	-2.878237e+00
7.339141e+01	3.329291e+00	-1.193261e+00
7.366060e+01	4.385866e+00	-6.821088e-01
7.358605e+01	5.402401e+00	-7.751748e-01
7.352933e+01	6.381477e+00	-6.152652e-01
7.351003e+01	7.414322e+00	-5.309325e-01
7.349296e+01	8.447691e+00	-5.010889e-01
7.348338e+01	9.481624e+00	-4.830536e-01
7.348336e+01	1.051841e+01	-4.830681e-01
7.349293e+01	1.155236e+01	-5.011312e-01
7.350996e+01	1.258576e+01	-5.309904e-01
7.352922e+01	1.361868e+01	-6.153691e-01
7.358591e+01	1.459792e+01	-7.753631e-01
7.366037e+01	1.561477e+01	-6.826272e-01
7.339159e+01	1.667252e+01	-1.196133e+00
7.352998e+01	1.759890e+01	-2.892526e+00
7.415628e+01	1.896894e+01	-8.408163e-01
7.358618e+01	1.871160e+01	-3.330783e+00
7.264508e+01	8.592767e-01	-1.969439e+00
7.217461e+01	1.674259e+00	-2.191807e+00
7.450062e+01	4.749085e-01	-2.970765e+00
7.521326e+01	2.867347e+00	-2.142056e+00
7.549430e+01	3.777950e+00	-1.852873e+00
7.576013e+01	5.071361e+00	-1.734429e+00
7.569900e+01	6.230430e+00	-1.441543e+00
7.567692e+01	7.302593e+00	-1.285590e+00
7.566799e+01	8.387904e+00	-1.198809e+00
7.565472e+01	9.464144e+00	-1.154032e+00
7.565473e+01	1.053577e+01	-1.154067e+00
7.566801e+01	1.161198e+01	-1.198938e+00
7.567698e+01	1.269721e+01	-1.285865e+00
7.569909e+01	1.376922e+01	-1.442085e+00
7.576015e+01	1.492791e+01	-1.735394e+00
7.549428e+01	1.622046e+01	-1.853834e+00
7.521178e+01	1.712865e+01	-2.141928e+00
7.452655e+01	1.956571e+01	-2.996914e+00
7.217244e+01	1.834613e+01	-2.242422e+00
7.266510e+01	1.914323e+01	-1.953715e+00
7.141168e+01	2.870713e-01	-2.270197e+00
7.160150e+01	1.595795e+00	-1.850325e+00
7.282280e+01	-2.884918e-01	-3.372500e+00
7.300928e+01	2.385240e+00	-4.492671e+00
7.335284e+01	3.988148e+00	-4.281550e+00
7.353886e+01	5.185786e+00	-4.068309e+00
7.363726e+01	6.293344e+00	-3.916086e+00
7.369822e+01	7.367061e+00	-3.807091e+00
7.373292e+01	8.423790e+00	-3.738945e+00
7.374846e+01	9.474904e+00	-3.706816e+00
7.374847e+01	1.052498e+01	-3.706863e+00
7.373296e+01	1.157609e+01	-3.739097e+00
7.369827e+01	1.263282e+01	-3.807367e+00
7.363730e+01	1.370652e+01	-3.916532e+00
7.353905e+01	1.481410e+01	-4.069010e+00
7.335354e+01	1.601196e+01	-4.281915e+00
7.301151e+01	1.761511e+01	-4.489380e+00
7.282579e+01	2.027599e+01	-3.383572e+00
7.160772e+01	1.840102e+01	-1.845149e+00
7.143489e+01	1.971135e+01	-2.269882e+00
7.052102e+01	2.101569e-01	-1.980729e+00
7.078364e+01	1.314424e+00	-9.504157e-01
7.143754e+01	-7.352184e-01	-3.189616e+00
7.139772e+01	2.089968e+00	-4.587301e+00
7.156512e+01	3.823191e+00	-4.487699e+00
7.170056e+01	5.116466e+00	-4.307187e+00
7.178511e+01	6.259870e+00	-4.161519e+00
7.183592e+01	7.348549e+00	-4.058862e+00
7.186489e+01	8.414956e+00	-3.994569e+00
7.187812e+01	9.472326e+00	-3.963869e+00
7.187815e+01	1.052750e+01	-3.963950e+00
7.186497e+01	1.158486e+01	-3.994835e+00
7.183609e+01	1.265122e+01	-4.059363e+00
7.178540e+01	1.373981e+01	-4.162329e+00
7.170133e+01	1.488309e+01	-4.308534e+00
7.156698e+01	1.617591e+01	-4.488863e+00
7.140136e+01	1.790562e+01	-4.586289e+00
7.143959e+01	2.072387e+01	-3.211611e+00
7.078599e+01	1.868797e+01	-9.441556e-01
7.053335e+01	1.978727e+01	-1.972931e+00
6.974194e+01	1.101011e-01	-1.549404e+00
6.977090e+01	1.296570e+00	-1.170997e+00
7.027930e+01	-9.272091e-01	-3.110143e+00
7.014489e+01	1.923586e+00	-4.523899e+00
7.023496e+01	3.711338e+00	-4.446054e+00
7.032606e+01	5.050203e+00	-4.268722e+00
7.039087e+01	6.222346e+00	-4.120368e+00
7.043249e+01	7.327491e+00	-4.014493e+00
7.045692e+01	8.404204e+00	-3.947938e+00
7.046826e+01	9.469012e+00	-3.916085e+00
7.046828e+01	1.053074e+01	-3.916183e+00
7.045699e+01	1.159551e+01	-3.948255e+00
7.043265e+01	1.267212e+01	-4.015080e+00
7.039114e+01	1.377708e+01	-4.121272e+00
7.032674e+01	1.494888e+01	-4.270177e+00
7.023645e+01	1.628673e+01	-4.447118e+00
7.014693e+01	1.806955e+01	-4.522758e+00
7.027833e+01	2.091414e+01	-3.132788e+00
6.977285e+01	1.870100e+01	-1.174863e+00
6.975230e+01	1.988634e+01	-1.545373e+00
6.881394e+01	-5.463628e-02	-1.567369e+00
6.893240e+01	1.325122e+00	-1.147483e+00
6.913124e+01	-1.044789e+00	-2.956120e+00
6.902921e+01	1.824747e+00	-4.413727e+00
6.908244e+01	3.638546e+00	-4.342247e+00
6.914476e+01	5.001311e+00	-4.161121e+00
6.919317e+01	6.191350e+00	-4.007745e+00
6.922625e+01	7.308875e+00	-3.897683e+00
6.924644e+01	8.394313e+00	-3.828354e+00
6.925602e+01	9.465897e+00	-3.795132e+00
6.925604e+01	1.053379e+01	-3.795231e+00
6.924650e+01	1.160532e+01	-3.828667e+00
6.922636e+01	1.269063e+01	-3.898240e+00
6.919336e+01	1.380790e+01	-4.008576e+00
6.914523e+01	1.499747e+01	-4.162347e+00
6.908341e+01	1.635896e+01	-4.342604e+00
6.903029e+01	1.816726e+01	-4.411319e+00
6.913019e+01	2.103045e+01	-2.977752e+00
6.893679e+01	1.867192e+01	-1.144095e+00
6.882238e+01	2.005173e+01	-1.563810e+00
6.787097e+01	7.568906e-02	-1.498396e+00
6.801927e+01	1.374549e+00	-9.534857e-01
6.805796e+01	-1.098719e+00	-2.727545e+00
6.797792e+01	1.761271e+00	-4.293086e+00
6.801211e+01	3.590941e+00	-4.224168e+00
6.805568e+01	4.966819e+00	-4.038153e+00
6.809160e+01	6.167642e+00	-3.879819e+00
6.811736e+01	7.293702e+00	-3.765925e+00
6.813363e+01	8.385911e+00	-3.694064e+00
6.814152e+01	9.463200e+00	-3.659597e+00
6.814153e+01	1.053644e+01	-3.659685e+00
6.813367e+01	1.161367e+01	-3.694334e+00
6.811742e+01	1.270573e+01	-3.766377e+00
6.809173e+01	1.383152e+01	-3.880544e+00
6.805601e+01	1.503182e+01	-4.039064e+00
6.801278e+01	1.640628e+01	-4.223648e+00
6.797864e+01	1.823006e+01	-4.289292e+00
6.805748e+01	2.108457e+01	-2.750302e+00
6.802199e+01	1.862322e+01	-9.458165e-01
6.787891e+01	1.991801e+01	-1.493883e+00
6.696029e+01	1.268614e-01	-1.324160e+00
6.705374e+01	1.391878e+00	-8.679972e-01
6.704410e+01	-1.107640e+00	-2.557589e+00
6.696060e+01	1.722060e+00	-4.177125e+00
6.698224e+01	3.560898e+00	-4.108865e+00
6.701298e+01	4.943613e+00	-3.918337e+00
6.703954e+01	6.150558e+00	-3.755920e+00
6.705931e+01	7.282145e+00	-3.638868e+00
6.707215e+01	8.379265e+00	-3.564899e+00
6.707848e+01	9.461027e+00	-3.529385e+00
6.707849e+01	1.053859e+01	-3.529448e+00
6.707217e+01	1.162029e+01	-3.565078e+00
6.705935e+01	1.271727e+01	-3.639160e+00
6.703962e+01	1.384856e+01	-3.756369e+00
6.701322e+01	1.505498e+01	-3.918798e+00
6.698278e+01	1.643619e+01	-4.107522e+00
6.696127e+01	1.826875e+01	-4.172129e+00
6.704379e+01	2.109368e+01	-2.580907e+00
6.705526e+01	1.860617e+01	-8.599881e-01
6.696682e+01	1.986704e+01	-1.317252e+00
6.601674e+01	1.196699e-01	-1.274482e+00
6.609887e+01	1.408276e+00	-7.876711e-01
6.603614e+01	-1.096424e+00	-2.435771e+00
6.596022e+01	1.702765e+00	-4.072562e+00
6.597261e+01	3.544024e+00	-4.002324e+00
6.599417e+01	4.929171e+00	-3.807872e+00
6.601378e+01	6.139010e+00	-3.642485e+00
6.602878e+01	7.273910e+00	-3.523055e+00
6.603867e+01	8.374374e+00	-3.447248e+00
6.604365e+01	9.459399e+00	-3.410833e+00
6.604366e+01	1.054021e+01	-3.410837e+00
6.603867e+01	1.162519e+01	-3.447169e+00
6.602869e+01	1.272548e+01	-3.522684e+00
6.601370e+01	1.386002e+01	-3.642115e+00
6.599428e+01	1.506931e+01	-3.807206e+00
6.597305e+01	1.645288e+01	-3.999746e+00
6.596092e+01	1.828764e+01	-4.066533e+00
6.603609e+01	2.108248e+01	-2.459033e+00
6.610015e+01	1.859003e+01	-7.776206e-01
6.602181e+01	1.987496e+01	-1.267872e+00
6.506222e+01	1.655062e-01	-1.243745e+00
6.513202e+01	1.422234e+00	-6.872622e-01
6.503481e+01	-1.069799e+00	-2.339658e+00
6.496682e+01	1.698535e+00	-3.980251e+00
6.497277e+01	3.537176e+00	-3.905760e+00
6.498766e+01	4.921560e+00	-3.707698e+00
6.500186e+01	6.132235e+00	-3.537625e+00
6.501313e+01	7.268602e+00	-3.416445e+00
6.502089e+01	8.370991e+00	-3.341782e+00
6.502476e+01	9.458258e+00	-3.304889e+00
6.502477e+01	1.054135e+01	-3.304809e+00
6.502088e+01	1.162854e+01	-3.341560e+00
6.501323e+01	1.273086e+01	-3.418256e+00
6.500194e+01	1.386695e+01	-3.539206e+00
6.498777e+01	1.507685e+01	-3.706359e+00
6.497319e+01	1.645959e+01	-3.902309e+00
6.496754e+01	1.829154e+01	-3.973317e+00
6.503496e+01	2.105590e+01	-2.362691e+00
6.513270e+01	1.857654e+01	-6.750018e-01
6.506646e+01	1.982832e+01	-1.236725e+00
6.409801e+01	2.031298e-01	-1.201558e+00
6.415277e+01	1.424805e+00	-5.910433e-01
6.403967e+01	-1.034466e+00	-2.273184e+00
6.397590e+01	1.705389e+00	-3.898703e+00
6.397736e+01	3.537832e+00	-3.818393e+00
6.398744e+01	4.919208e+00	-3.617174e+00
6.399777e+01	6.129010e+00	-3.444667e+00
6.400625e+01	7.265540e+00	-3.322021e+00
6.401216e+01	8.368888e+00	-3.247272e+00
6.401513e+01	9.457534e+00	-3.210336e+00
6.401513e+01	1.054206e+01	-3.210222e+00
6.401213e+01	1.163058e+01	-3.247248e+00
6.400632e+01	1.273390e+01	-3.325104e+00
6.399787e+01	1.387033e+01	-3.447295e+00
6.398759e+01	1.507927e+01	-3.615971e+00
6.397779e+01	1.645893e+01	-3.814674e+00
6.397667e+01	1.828445e+01	-3.891033e+00
6.403983e+01	2.102037e+01	-2.295650e+00
6.415309e+01	1.857441e+01	-5.770815e-01
6.410149e+01	1.978988e+01	-1.192654e+00
6.311520e+01	2.368239e-01	-1.169415e+00
6.316892e+01	1.418437e+00	-4.977150e-01
6.304562e+01	-9.937071e-01	-2.230868e+00
6.298546e+01	1.720626e+00	-3.826213e+00
6.298367e+01	3.543993e+00	-3.738961e+00
6.299030e+01	4.920695e+00	-3.535019e+00
6.299790e+01	6.128213e+00	-3.363387e+00
[...]
CELL_DATA 1425
SCALARS Mu double 1
LOOKUP_TABLE default
-0.388429
-0.434839
-0.445113
-0.448285
-0.449531
-0.450112
-0.450415
-0.45058
-0.450664
-0.450691
-0.450664
-0.45058
-0.450415
-0.450112
-0.449531
-0.448285
-0.445113
-0.434839
-0.388429
-0.510131
-0.594683
-0.616974
-0.624665
-0.627855
-0.629376
-0.630171
-0.630603
-0.630824
-0.630893
-0.630827
-0.630608
-0.630178
-0.629383
-0.627864
-0.624669
-0.616953
-0.594531
-0.509768
-0.565402
-0.676259
-0.708906
-0.721304
-0.726769
-0.729481
-0.73093
-0.731726
-0.732133
-0.732261
-0.732142
-0.731746
-0.730963
-0.729527
-0.726831
-0.721339
-0.708845
-0.676044
-0.567553
-0.5965
-0.724128
-0.764294
-0.780705
-0.788374
-0.792329
-0.794491
-0.79569
-0.796305
-0.796497
-0.796315
-0.795713
-0.794527
-0.792381
-0.788441
-0.780711
-0.764093
-0.72369
-0.599882
-0.616157
-0.754595
-0.800147
-0.819703
-0.829262
-0.834366
-0.837218
-0.838823
-0.839649
-0.839907
-0.839656
-0.838838
-0.837242
-0.834395
-0.829287
-0.81961
-0.799729
-0.753863
-0.620006
-0.629462
-0.77515
-0.824573
-0.846525
-0.857613
-0.863703
-0.867176
-0.869157
-0.870184
-0.870502
-0.870184
-0.869157
-0.867173
-0.863686
-0.85756
-0.846289
-0.823906
-0.774108
-0.633433
-0.63891
-0.789621
-0.841854
-0.865629
-0.87793
-0.884838
-0.888843
-0.891155
-0.892362
-0.892735
-0.892353
-0.891135
-0.888804
-0.884767
-0.877784
-0.865235
-0.840944
-0.78829
-0.642855
-0.645861
-0.800146
-0.854446
-0.879611
-0.892871
-0.900442
-0.904899
-0.907495
-0.908859
-0.909278
-0.908838
-0.907451
-0.904819
-0.900312
-0.892624
-0.879062
-0.853314
-0.798557
-0.649722
-0.651118
-0.808004
-0.863847
-0.890074
-0.904089
-0.912208
-0.917035
-0.91987
-0.921366
-0.921824
-0.921333
-0.919799
-0.916913
-0.912002
-0.903739
-0.889378
-0.86252
-0.80619
-0.654877
-0.655184
-0.813999
-0.871014
-0.898055
-0.91267
-0.921219
-0.926358
-0.929393
-0.931
-0.93149
-0.930954
-0.929291
-0.926181
-0.920941
-0.912171
-0.897221
-0.869514
-0.811993
-0.658841
-0.658388
-0.818659
-0.87657
-0.904239
-0.919324
-0.928202
-0.933353
-0.936781
-0.938511
-0.939032
-0.938454
-0.936687
-0.933422
-0.927882
-0.918774
-0.903285
-0.874921
-0.816489
-0.661948
-0.660949
-0.822338
-0.88094
-0.909098
-0.924554
-0.933726
-0.939242
-0.942613
-0.944431
-0.944972
-0.944365
-0.94251
-0.939127
-0.933362
-0.923934
-0.908042
-0.879166
-0.820031
-0.664423
-0.663021
-0.825283
-0.884419
-0.91296
-0.928706
-0.938104
-0.943837
-0.947298
-0.94915
-0.949712
-0.94908
-0.947156
-0.943615
-0.937678
-0.92802
-0.911817
-0.882541
-0.82286
-0.666419
-0.664715
-0.827667
-0.887216
-0.916056
-0.932031
-0.941591
-0.947475
-0.951026
-0.95292
-0.953498
-0.952849
-0.950851
-0.947181
-0.941111
-0.931284
-0.91484
-0.885252
-0.825147
-0.668047
-0.666097
-0.829594
-0.889464
-0.918544
-0.934709
-0.944423
-0.950403
-0.954048
-0.955985
-0.956559
-0.955888
-0.953846
-0.950085
-0.943903
-0.933924
-0.917287
-0.887452
-0.827017
-0.669388
-0.667253
-0.831199
-0.891318
-0.920587
-0.936901
-0.946741
-0.952803
-0.956494
-0.958367
-0.959029
-0.958341
-0.955882
-0.952377
-0.946158
-0.93607
-0.919281
-0.889251
-0.828559
-0.670503
-0.668225
-0.832528
-0.892849
-0.922268
-0.938724
-0.948632
-0.95476
-0.958469
-0.960483
-0.961076
-0.960326
-0.958144
-0.954299
-0.947591
-0.937793
-0.920911
-0.890737
-0.829835
-0.671435
-0.669047
-0.833641
-0.894119
-0.923653
-0.940183
-0.950182
-0.956367
-0.960143
-0.962458
-0.963208
-0.962042
-0.959854
-0.955938
-0.949468
-0.93926
-0.922276
-0.89198
-0.830914
-0.672233
-0.669767
-0.834672
-0.895229
-0.924909
-0.941505
-0.951463
-0.957689
-0.96148
-0.963593
-0.96431
-0.963546
-0.961351
-0.957315
-0.950829
-0.940496
-0.923416
-0.893019
-0.831825
-0.672916
-0.670312
-0.835344
-0.896019
-0.925722
-0.942395
-0.952498
-0.958791
-0.962623
-0.964705
-0.965348
-0.964681
-0.962445
-0.958452
-0.951955
-0.941544
-0.924384
-0.893894
-0.832588
-0.673485
-0.670778
-0.835965
-0.896752
-0.926487
-0.943239
-0.953408
-0.959746
-0.963602
-0.965689
-0.966309
-0.965575
-0.963436
-0.959372
-0.952866
-0.942406
-0.9252
-0.894666
-0.833238
-0.673966
-0.671201
-0.836527
-0.897403
-0.927221
-0.943991
-0.954198
-0.960565
-0.964442
-0.966536
-0.96716
-0.966427
-0.964225
-0.960186
-0.953631
-0.94313
-0.925872
-0.895265
-0.833767
-0.674364
-0.671574
-0.837024
-0.897976
-0.927847
-0.944655
-0.954893
-0.961277
-0.965168
-0.967284
-0.96792
-0.96719
-0.964957
-0.96089
-0.954257
-0.943745
-0.926479
-0.895817
-0.834246
-0.674719
-0.671901
-0.837465
-0.898476
-0.928371
-0.945229
-0.955506
-0.961918
-0.965836
-0.967943
-0.9686
-0.967847
-0.965649
-0.961531
-0.954898
-0.944353
-0.927025
-0.896261
-0.834667
-0.67503
-0.672181
-0.837848
-0.89886
-0.928876
-0.945762
-0.956053
-0.96248
-0.966416
-0.968528
-0.96916
-0.968423
-0.96618
-0.96197
-0.955345
-0.944872
-0.92751
-0.896732
-0.835035
-0.675302
-0.672432
-0.838191
-0.899304
-0.929302
-0.946225
-0.956537
-0.962983
-0.966931
-0.969046
-0.969698
-0.968958
-0.966693
-0.962563
-0.955913
-0.945337
-0.927944
-0.897097
-0.835372
-0.675543
-0.67265
-0.838473
-0.899433
-0.929681
-0.946642
-0.956974
-0.963416
-0.967382
-0.969528
-0.970182
-0.969434
-0.967162
-0.963034
-0.95637
-0.945756
-0.928334
-0.897476
-0.835673
-0.675758
-0.672843
-0.838734
-0.899801
-0.930017
-0.94701
-0.957366
-0.963823
-0.96782
-0.969982
-0.970669
-0.969866
-0.967549
-0.963444
-0.956781
-0.946143
-0.928686
-0.89776
-0.835933
-0.675947
-0.673019
-0.838981
-0.900132
-0.930327
-0.947327
-0.957681
-0.964209
-0.968202
-0.970361
-0.971052
-0.970207
-0.967921
-0.963822
-0.957088
-0.946483
-0.928995
-0.898061
-0.836171
-0.676117
-0.673184
-0.839214
-0.900475
-0.930633
-0.947652
-0.958038
-0.964544
-0.968532
-0.9707
-0.971412
-0.970585
-0.968296
-0.964105
-0.957431
-0.946776
-0.929278
-0.898315
-0.836391
-0.676271
-0.673336
-0.839438
-0.900733
-0.930907
-0.947952
-0.958539
-0.96489
-0.96909
-0.971099
-0.971747
-0.971032
-0.968664
-0.964525
-0.957764
-0.947021
-0.929528
-0.898543
-0.836589
-0.676412
-0.673093
-0.832934
-0.900547
-0.931022
-0.948003
-0.95862
-0.965148
-0.969415
-0.971412
-0.972045
-0.971313
-0.969027
-0.965407
-0.958068
-0.947317
-0.929762
-0.898751
-0.83677
-0.676538
-0.673109
-0.838233
-0.900522
-0.931105
-0.948293
-0.958806
-0.965382
-0.969683
-0.971677
-0.972301
-0.971567
-0.969306
-0.965783
-0.95836
-0.947568
-0.929975
-0.898935
-0.83693
-0.676652
-0.673397
-0.839334
-0.900867
-0.931315
-0.948502
-0.959012
-0.965615
-0.970051
-0.972024
-0.97254
-0.971793
-0.969506
-0.96541
-0.958569
-0.947775
-0.930156
-0.899072
-0.83707
-0.676757
-0.673604
-0.839754
-0.901216
-0.931532
-0.948696
-0.959212
-0.965862
-0.970156
-0.972154
-0.972747
-0.971998
-0.969691
-0.965496
-0.958798
-0.947957
-0.930312
-0.899211
-0.837196
-0.676852
-0.673756
-0.839992
-0.901407
-0.931681
-0.948861
-0.959426
-0.966021
-0.970411
-0.972329
-0.972929
-0.972154
-0.969843
-0.965629
-0.958887
-0.948089
-0.930449
-0.899337
-0.83731
-0.676936
-0.673875
-0.840163
-0.901591
-0.931873
-0.949026
-0.959545
-0.966179
-0.970492
-0.972491
-0.973094
-0.972311
-0.970005
-0.965796
-0.959061
-0.948218
-0.930574
-0.899452
-0.83741
-0.677013
-0.673972
-0.840299
-0.90173
-0.932019
-0.949157
-0.959648
-0.966291
-0.970629
-0.972706
-0.973241
-0.972472
-0.970159
-0.965913
-0.959131
-0.948335
-0.93073
-0.899558
-0.837505
-0.677083
-0.674055
-0.840414
-0.901851
-0.932148
-0.949367
-0.959803
-0.966422
-0.970753
-0.972774
-0.973387
-0.972691
-0.970305
-0.966032
-0.95925
-0.948466
-0.930802
-0.899682
-0.837596
-0.677151
-0.67413
-0.840515
-0.901958
-0.932259
-0.94945
-0.959925
-0.966547
-0.97095
-0.972724
-0.973462
-0.972732
-0.970365
-0.96615
-0.959404
-0.948576
-0.930894
-0.899772
-0.837678
-0.677212
-0.674198
-0.840603
-0.90205
-0.932345
-0.94942
-0.960026
-0.966664
-0.970992
-0.972961
-0.973695
-0.972848
-0.970146
-0.966318
-0.959473
-0.948614
-0.930956
-0.899821
-0.837742
-0.677265
-0.674258
-0.84068
-0.902131
-0.932425
-0.949485
-0.960115
-0.966749
-0.971085
-0.973081
-0.973718
-0.972906
-0.970484
-0.966326
-0.959536
-0.948734
-0.93109
-0.899936
-0.83783
-0.677332
-0.67431
-0.84075
-0.902206
-0.932504
-0.949582
-0.96021
-0.967018
-0.971233
-0.973196
-0.973804
-0.973005
-0.970645
-0.966413
-0.959631
-0.948933
-0.93116
-0.900019
-0.837902
-0.677385
-0.674361
-0.840818
-0.902278
-0.932589
-0.949749
-0.960329
-0.966975
-0.971287
-0.973286
-0.973891
-0.973088
-0.970748
-0.966503
-0.959712
-0.948919
-0.931231
-0.90009
-0.837968
-0.677434
-0.674408
-0.84088
-0.902346
-0.932665
-0.949841
-0.960414
-0.967024
-0.97135
-0.973367
-0.974031
-0.97314
-0.970837
-0.966663
-0.959791
-0.948975
-0.931295
-0.900155
-0.838031
-0.67748
-0.67445
-0.840931
-0.902395
-0.932701
-0.949911
-0.960555
-0.967096
-0.971419
-0.973434
-0.974045
-0.973248
-0.970958
-0.966758
-0.959867
-0.949038
-0.931354
-0.900214
-0.838086
-0.677522
-0.674494
-0.840983
-0.902448
-0.932754
-0.949967
-0.960535
-0.967169
-0.971481
-0.973485
-0.974101
-0.973326
-0.971033
-0.966759
-0.959927
-0.949097
-0.931411
-0.900268
-0.838137
-0.677563
-0.674532
-0.841035
-0.902512
-0.932835
-0.950032
-0.96057
-0.96722
-0.971574
-0.973597
-0.974172
-0.973392
-0.971098
-0.966815
-0.959977
-0.949151
-0.931465
-0.90032
-0.838186
-0.677601
-0.674563
-0.841077
-0.902561
-0.932881
-0.949981
-0.960609
-0.967262
-0.971636
-0.973667
-0.974236
-0.973453
-0.971158
-0.966875
-0.960066
-0.949221
-0.931526
-0.90037
-0.838231
-0.677636
-0.674597
-0.841121
-0.902607
-0.932929
-0.950109
-0.960653
-0.967309
-0.971687
-0.973721
-0.974284
-0.973456
-0.97113
-0.966912
-0.960116
-0.949275
-0.931577
-0.900417
-0.838273
-0.677668
-0.674628
-0.841162
-0.90265
-0.932977
-0.95017
-0.960703
-0.967357
-0.971735
-0.973766
-0.974328
-0.973492
-0.971168
-0.967092
-0.960134
-0.949308
-0.931614
-0.900459
-0.838313
-0.677699
-0.674656
-0.8412
-0.902692
-0.933023
-0.950252
-0.960752
-0.967403
-0.971781
-0.973811
-0.974371
-0.973531
-0.971212
-0.967153
-0.960184
-0.949349
-0.931655
-0.900498
-0.83835
-0.677728
-0.674684
-0.841236
-0.902732
-0.933066
-0.950302
-0.960796
-0.967442
-0.971794
-0.973849
-0.974408
-0.973574
-0.971267
-0.967281
-0.960261
-0.949395
-0.931694
-0.900536
-0.838385
-0.677755
-0.67471
-0.84127
-0.90277
-0.933108
-0.950345
-0.960838
-0.967482
-0.971834
-0.973904
-0.974506
-0.973629
-0.97135
-0.967322
-0.960292
-0.949434
-0.931732
-0.900572
-0.838419
-0.677781
-0.674735
-0.841302
-0.902806
-0.933151
-0.950391
-0.960933
-0.967553
-0.971876
-0.973897
-0.974498
-0.973663
-0.97135
-0.967205
-0.960267
-0.949464
-0.931766
-0.900606
-0.83845
-0.677805
-0.674759
-0.841335
-0.902839
-0.933187
-0.950428
-0.960939
-0.967594
-0.971912
-0.973932
-0.974602
-0.973733
-0.971418
-0.967176
-0.960304
-0.949493
-0.931798
-0.900637
-0.838479
-0.677828
-0.674781
-0.841364
-0.90287
-0.933216
-0.950411
-0.960962
-0.967628
-0.971945
-0.973957
-0.974573
-0.973748
-0.971466
-0.967192
-0.960335
-0.949592
-0.931833
-0.900668
-0.838507
-0.67785
-0.674804
-0.84139
-0.902899
-0.933245
-0.950432
-0.96099
-0.967662
-0.972023
-0.973995
-0.974628
-0.973778
-0.971495
-0.96722
-0.960368
-0.949636
-0.931868
-0.900698
-0.838534
-0.677869
-0.674824
-0.841417
-0.902924
-0.933269
-0.950456
-0.961015
-0.96769
-0.97206
-0.97402
-0.97463
-0.973798
-0.971486
-0.967243
-0.960397
-0.949669
-0.931899
-0.900726
-0.838559
-0.677889
-0.674839
-0.841437
-0.902946
-0.933288
-0.950481
-0.961041
-0.967719
-0.972119
-0.974049
-0.974651
-0.973817
-0.971502
-0.967263
-0.960396
-0.949697
-0.931927
-0.900752
-0.838583
-0.677907
-0.674856
-0.841458
-0.90297
-0.933315
-0.950521
-0.961071
-0.96775
-0.972159
-0.974092
-0.974728
-0.973845
-0.971524
-0.967276
-0.960413
-0.949721
-0.931953
-0.900777
-0.838606
-0.677925
-0.674876
-0.841481
-0.902995
-0.93334
-0.95055
-0.961098
-0.967774
-0.97216
-0.974122
-0.974765
-0.973875
-0.971551
-0.967298
-0.960435
-0.949745
-0.931976
-0.9008
-0.838627
-0.677942
-0.67489
-0.841502
-0.903017
-0.933365
-0.950565
-0.961167
-0.967803
-0.972182
-0.974148
-0.974794
-0.973902
-0.971577
-0.967322
-0.960459
-0.949779
-0.932001
-0.900822
-0.838648
-0.677958
-0.674906
-0.841521
-0.903038
-0.933388
-0.950589
-0.961201
-0.967837
-0.972208
-0.974173
-0.974819
-0.973926
-0.9716
-0.967343
-0.960476
-0.949733
-0.932018
-0.900842
-0.838667
-0.677973
-0.674921
-0.841543
-0.903059
-0.933409
-0.950609
-0.961185
-0.967865
-0.972259
-0.974629
-0.974899
-0.973964
-0.971643
-0.967457
-0.961978
-0.949833
-0.932052
-0.900866
-0.838687
-0.677988
-0.674935
-0.841562
-0.903079
-0.93343
-0.950629
-0.961202
-0.967896
-0.972312
-0.974752
-0.97497
-0.974015
-0.971713
-0.967635
-0.962331
-0.949975
-0.93211
-0.900898
-0.83871
-0.678004
-0.674949
-0.841579
-0.903098
-0.93345
-0.950651
-0.961225
-0.967926
-0.972352
-0.97481
-0.975024
-0.974065
-0.971777
-0.967727
-0.962467
-0.950076
-0.932165
-0.900932
-0.838734
-0.678021
-0.674962
-0.841596
-0.903116
-0.933469
-0.950671
-0.961246
-0.967948
-0.972359
-0.974421
-0.975038
-0.974101
-0.971824
-0.96779
-0.962543
-0.950139
-0.932207
-0.900963
-0.838762
-0.678038
-0.674975
-0.841612
-0.903133
-0.933486
-0.950689
-0.961264
-0.967961
-0.972357
-0.974359
-0.975035
-0.974123
-0.971858
-0.967834
-0.962594
-0.950183
-0.932241
-0.90099
-0.838784
-0.678053
-0.674986
-0.841627
-0.903149
-0.933503
-0.950705
-0.961279
-0.967973
-0.972365
-0.974354
-0.97504
-0.974142
-0.971885
-0.967867
-0.962631
-0.950216
-0.932268
-0.901014
-0.838804
-0.678068
-0.674997
-0.841641
-0.903165
-0.933518
-0.950721
-0.961294
-0.967986
-0.972376
-0.974362
-0.975054
-0.974169
-0.971909
-0.967894
-0.962661
-0.950243
-0.932292
-0.901035
-0.838822
-0.678081
-0.675008
-0.841655
-0.903179
-0.933533
-0.950736
-0.961309
-0.968
-0.972387
-0.974374
-0.975071
-0.974192
-0.971931
-0.967917
-0.962685
-0.950266
-0.932312
-0.901055
-0.838839
-0.678093
-0.675018
-0.841668
-0.903193
-0.933548
-0.950752
-0.961333
-0.968121
-0.97241
-0.97439
-0.975087
-0.97421
-0.971949
-0.967937
-0.962707
-0.950286
-0.93233
-0.901072
-0.838854
-0.678105
-0.675028
-0.841681
-0.903207
-0.933563
-0.950769
-0.961355
-0.96816
-0.972434
-0.974407
-0.975103
-0.974227
-0.971966
-0.967955
-0.962726
-0.950303
-0.932346
-0.901087
-0.838868
-0.678116

