# vtk DataFile Version 2.0
OUTPUT by 3D-VPM
ASCII
DATASET UNSTRUCTURED_GRID
POINTS 800 double
3.808816e+01	1.037061e+00	-1.078720e+00
3.870580e+01	1.135189e+00	-1.466846e+00
3.832139e+01	2.384019e+00	-1.442397e+00
3.826431e+01	3.364357e+00	-1.016885e+00
3.835785e+01	4.349489e+00	-9.055526e-01
3.833668e+01	5.356470e+00	-8.498052e-01
3.832012e+01	6.375661e+00	-7.904695e-01
3.831339e+01	7.405258e+00	-7.542021e-01
3.830816e+01	8.441075e+00	-7.329472e-01
3.830557e+01	9.479976e+00	-7.227125e-01
3.830557e+01	1.052000e+01	-7.227178e-01
3.830816e+01	1.155890e+01	-7.329617e-01
3.831339e+01	1.259471e+01	-7.542195e-01
3.832014e+01	1.362428e+01	-7.904744e-01
3.833673e+01	1.464344e+01	-8.497719e-01
3.835795e+01	1.565038e+01	-9.054518e-01
3.826463e+01	1.663551e+01	-1.016643e+00
3.832206e+01	1.761576e+01	-1.441663e+00
3.870753e+01	1.886617e+01	-1.466471e+00
3.808811e+01	1.896248e+01	-1.070003e+00
3.812204e+01	3.583341e-01	-1.253073e+00
3.905330e+01	1.222862e-01	-1.535181e+00
3.934265e+01	2.029616e+00	-1.114852e+00
3.936935e+01	3.038667e+00	-7.892338e-01
3.945063e+01	4.149154e+00	-6.390919e-01
3.942735e+01	5.230891e+00	-5.111077e-01
3.941153e+01	6.293404e+00	-4.300687e-01
3.940182e+01	7.354054e+00	-3.811412e-01
3.939546e+01	8.413016e+00	-3.527323e-01
3.939250e+01	9.471004e+00	-3.396048e-01
3.939250e+01	1.052897e+01	-3.395978e-01
3.939544e+01	1.158695e+01	-3.527112e-01
3.940180e+01	1.264590e+01	-3.811029e-01
3.941152e+01	1.370652e+01	-4.300054e-01
3.942737e+01	1.476898e+01	-5.110382e-01
3.945077e+01	1.585061e+01	-6.390494e-01
3.936985e+01	1.696099e+01	-7.891909e-01
3.934313e+01	1.797010e+01	-1.114044e+00
3.905455e+01	1.987680e+01	-1.533710e+00
3.812327e+01	1.964142e+01	-1.256879e+00
3.674225e+01	4.815857e-01	-1.523568e+00
3.725706e+01	-5.052625e-01	-1.276119e+00
3.764568e+01	1.599794e+00	-2.876763e+00
3.788146e+01	3.052722e+00	-2.708293e+00
3.800575e+01	4.183328e+00	-2.531171e+00
3.806436e+01	5.258072e+00	-2.412969e+00
3.809670e+01	6.317360e+00	-2.331669e+00
3.811444e+01	7.370676e+00	-2.279196e+00
3.812371e+01	8.422561e+00	-2.248190e+00
3.812782e+01	9.474118e+00	-2.233762e+00
3.812782e+01	1.052583e+01	-2.233776e+00
3.812372e+01	1.157738e+01	-2.248236e+00
3.811446e+01	1.262925e+01	-2.279280e+00
3.809671e+01	1.368253e+01	-2.331804e+00
3.806439e+01	1.474173e+01	-2.413205e+00
3.800591e+01	1.581633e+01	-2.531475e+00
3.788215e+01	1.694674e+01	-2.708310e+00
3.764645e+01	1.839903e+01	-2.876269e+00
3.726149e+01	2.050607e+01	-1.275276e+00
3.674292e+01	1.952236e+01	-1.524218e+00
3.581114e+01	5.625017e-01	-1.197178e+00
3.623708e+01	-6.027226e-01	-1.058734e+00
3.622098e+01	1.334287e+00	-2.987710e+00
3.632802e+01	2.939829e+00	-2.934350e+00
3.641443e+01	4.146231e+00	-2.779905e+00
3.646301e+01	5.244573e+00	-2.661541e+00
3.648963e+01	6.311733e+00	-2.580812e+00
3.650436e+01	7.368630e+00	-2.528378e+00
3.651218e+01	8.421936e+00	-2.497079e+00
3.651567e+01	9.473982e+00	-2.482509e+00
3.651568e+01	1.052593e+01	-2.482556e+00
3.651223e+01	1.157797e+01	-2.497230e+00
3.650444e+01	1.263125e+01	-2.528663e+00
3.648975e+01	1.368809e+01	-2.581281e+00
3.646324e+01	1.475515e+01	-2.662337e+00
3.641490e+01	1.585329e+01	-2.780865e+00
3.632894e+01	1.705918e+01	-2.934653e+00
3.622183e+01	1.866278e+01	-2.987155e+00
3.624288e+01	2.061184e+01	-1.058929e+00
3.581314e+01	1.944709e+01	-1.195390e+00
3.490315e+01	4.709166e-01	-1.047975e+00
3.518133e+01	-7.174540e-01	-9.633084e-01
3.508246e+01	1.207004e+00	-2.919106e+00
3.512459e+01	2.869727e+00	-2.897111e+00
3.517893e+01	4.111496e+00	-2.740852e+00
3.521543e+01	5.227860e+00	-2.616613e+00
3.523747e+01	6.303460e+00	-2.530950e+00
3.525027e+01	7.364534e+00	-2.475054e+00
3.525729e+01	8.420060e+00	-2.441583e+00
3.526046e+01	9.473434e+00	-2.425973e+00
3.526046e+01	1.052645e+01	-2.426030e+00
3.525731e+01	1.157981e+01	-2.441768e+00
3.525031e+01	1.263530e+01	-2.475409e+00
3.523752e+01	1.369629e+01	-2.531537e+00
3.521556e+01	1.477177e+01	-2.617615e+00
3.517926e+01	1.588789e+01	-2.741957e+00
3.512529e+01	1.712880e+01	-2.896880e+00
3.508297e+01	1.878795e+01	-2.917867e+00
3.518396e+01	2.072959e+01	-9.633552e-01
3.490507e+01	1.954292e+01	-1.047198e+00
3.397314e+01	4.741526e-01	-9.995655e-01
3.414610e+01	-7.152791e-01	-8.450800e-01
3.403612e+01	1.154286e+00	-2.822328e+00
3.404887e+01	2.832040e+00	-2.804794e+00
3.408284e+01	4.088359e+00	-2.643360e+00
3.410950e+01	5.214358e+00	-2.514012e+00
3.412726e+01	6.295790e+00	-2.424531e+00
3.413828e+01	7.360319e+00	-2.365983e+00
3.414460e+01	8.417969e+00	-2.330861e+00
3.414752e+01	9.472799e+00	-2.314455e+00
3.414752e+01	1.052707e+01	-2.314513e+00
3.414460e+01	1.158188e+01	-2.331048e+00
3.413829e+01	1.263948e+01	-2.366336e+00
3.412726e+01	1.370393e+01	-2.425096e+00
3.410953e+01	1.478523e+01	-2.514944e+00
3.408303e+01	1.591095e+01	-2.644153e+00
3.404934e+01	1.716612e+01	-2.803532e+00
3.403639e+01	1.883940e+01	-2.819873e+00
3.414756e+01	2.072752e+01	-8.433625e-01
3.397463e+01	1.953916e+01	-9.986699e-01
3.303619e+01	5.051684e-01	-9.246256e-01
3.314380e+01	-6.951319e-01	-7.671225e-01
3.302391e+01	1.138247e+00	-2.724189e+00
3.302307e+01	2.815117e+00	-2.703522e+00
3.304445e+01	4.074932e+00	-2.537486e+00
3.306368e+01	5.204907e+00	-2.404576e+00
3.307760e+01	6.289624e+00	-2.312545e+00
3.308677e+01	7.356575e+00	-2.252209e+00
3.309224e+01	8.415982e+00	-2.215969e+00
3.309484e+01	9.472176e+00	-2.199020e+00
3.309484e+01	1.052768e+01	-2.199074e+00
3.309223e+01	1.158386e+01	-2.216140e+00
3.308675e+01	1.264322e+01	-2.252519e+00
3.307757e+01	1.371009e+01	-2.313030e+00
3.306367e+01	1.479467e+01	-2.405323e+00
3.304456e+01	1.592434e+01	-2.537785e+00
3.302347e+01	1.718281e+01	-2.701167e+00
3.302422e+01	1.885468e+01	-2.720429e+00
3.314470e+01	2.070788e+01	-7.653068e-01
3.303744e+01	1.950820e+01	-9.221370e-01
3.208554e+01	5.187893e-01	-8.570987e-01
3.214671e+01	-6.799040e-01	-7.310070e-01
3.202611e+01	1.146020e+00	-2.634255e+00
3.201729e+01	2.811555e+00	-2.605987e+00
3.203063e+01	4.068749e+00	-2.436775e+00
3.204445e+01	5.199181e+00	-2.301884e+00
3.205517e+01	6.285259e+00	-2.208468e+00
3.206257e+01	7.353644e+00	-2.147136e+00
3.206715e+01	8.414325e+00	-2.110238e+00
3.206938e+01	9.471643e+00	-2.092959e+00
3.206938e+01	1.052822e+01	-2.093004e+00
3.206714e+01	1.158552e+01	-2.110379e+00
3.206255e+01	1.264615e+01	-2.147381e+00
3.205513e+01	1.371446e+01	-2.208878e+00
3.204443e+01	1.480040e+01	-2.302442e+00
3.203072e+01	1.593052e+01	-2.436573e+00
3.201769e+01	1.718623e+01	-2.602694e+00
3.202656e+01	1.884639e+01	-2.629359e+00
3.214692e+01	2.069294e+01	-7.295107e-01
3.208638e+01	1.949506e+01	-8.540986e-01
3.112227e+01	5.296910e-01	-8.008730e-01
3.114962e+01	-6.665529e-01	-7.238505e-01
3.103294e+01	1.170143e+00	-2.554232e+00
3.101934e+01	2.816895e+00	-2.515161e+00
3.102738e+01	4.067750e+00	-2.344116e+00
3.103733e+01	5.196490e+00	-2.208684e+00
3.104551e+01	6.282597e+00	-2.114947e+00
3.105139e+01	7.351622e+00	-2.053296e+00
3.105512e+01	8.413102e+00	-2.016134e+00
3.105698e+01	9.471237e+00	-1.998707e+00
3.105697e+01	1.052863e+01	-1.998738e+00
3.105511e+01	1.158674e+01	-2.016226e+00
3.105137e+01	1.264819e+01	-2.053457e+00
3.104547e+01	1.371713e+01	-2.115215e+00
3.103732e+01	1.480311e+01	-2.209008e+00
3.102749e+01	1.593153e+01	-2.343486e+00
3.101977e+01	1.718082e+01	-2.511136e+00
3.103351e+01	1.882192e+01	-2.548367e+00
3.114933e+01	2.067962e+01	-7.227939e-01
3.112268e+01	1.948419e+01	-7.977573e-01
3.014927e+01	5.378721e-01	-7.488410e-01
3.015209e+01	-6.542625e-01	-7.383818e-01
3.004039e+01	1.205034e+00	-2.482440e+00
3.002410e+01	2.828123e+00	-2.430960e+00
3.002864e+01	4.070355e+00	-2.259265e+00
3.003583e+01	5.196089e+00	-2.124479e+00
3.004207e+01	6.281355e+00	-2.031362e+00
3.004669e+01	7.350442e+00	-1.969986e+00
3.004967e+01	8.412318e+00	-1.932822e+00
3.005119e+01	9.470967e+00	-1.915375e+00
3.005119e+01	1.052890e+01	-1.915378e+00
3.004967e+01	1.158754e+01	-1.932796e+00
3.004666e+01	1.264937e+01	-1.969851e+00
3.004203e+01	1.371837e+01	-2.031262e+00
3.003582e+01	1.480351e+01	-2.124265e+00
3.002876e+01	1.592890e+01	-2.258027e+00
3.002456e+01	1.716957e+01	-2.426362e+00
3.004106e+01	1.878684e+01	-2.475731e+00
3.015145e+01	2.066725e+01	-7.379004e-01
3.014930e+01	1.947602e+01	-7.457520e-01
2.916888e+01	5.419540e-01	-7.005154e-01
2.915358e+01	-6.411332e-01	-7.691470e-01
2.904714e+01	1.246894e+00	-2.416812e+00
2.902944e+01	2.843143e+00	-2.352407e+00
2.903166e+01	4.075396e+00	-2.181066e+00
2.903690e+01	5.197359e+00	-2.047770e+00
2.904170e+01	6.281283e+00	-1.954831e+00
2.904533e+01	7.350002e+00	-1.894187e+00
2.904768e+01	8.411915e+00	-1.858428e+00
2.904891e+01	9.470819e+00	-1.841189e+00
2.904891e+01	1.052906e+01	-1.841154e+00
2.904768e+01	1.158795e+01	-1.858335e+00
2.904529e+01	1.264985e+01	-1.895012e+00
2.904166e+01	1.371848e+01	-1.955594e+00
2.903692e+01	1.480224e+01	-2.047243e+00
2.903181e+01	1.592387e+01	-2.179425e+00
2.902992e+01	1.715457e+01	-2.347357e+00
2.904788e+01	1.874493e+01	-2.409367e+00
2.915269e+01	2.065392e+01	-7.693041e-01
2.916857e+01	1.947195e+01	-6.976797e-01
2.818295e+01	5.423500e-01	-6.555895e-01
2.815411e+01	-6.249821e-01	-8.117670e-01
2.805281e+01	1.293128e+00	-2.355540e+00
2.803452e+01	2.860526e+00	-2.278394e+00
2.803522e+01	4.082036e+00	-2.108223e+00
2.803909e+01	5.199815e+00	-1.977134e+00
2.804284e+01	6.282067e+00	-1.885610e+00
2.804571e+01	7.350076e+00	-1.825935e+00
2.804757e+01	8.411824e+00	-1.791100e+00
2.804855e+01	9.470778e+00	-1.774290e+00
2.804855e+01	1.052911e+01	-1.774240e+00
2.804756e+01	1.158803e+01	-1.791093e+00
2.804565e+01	1.264977e+01	-1.827314e+00
2.804279e+01	1.371775e+01	-1.886828e+00
2.803913e+01	1.479982e+01	-1.976676e+00
2.803539e+01	1.591726e+01	-2.106496e+00
2.803501e+01	1.713724e+01	-2.273025e+00
2.805361e+01	1.869876e+01	-2.347467e+00
2.815303e+01	2.063747e+01	-8.125767e-01
2.818236e+01	1.947154e+01	-6.531756e-01
2.719296e+01	5.393397e-01	-6.136265e-01
2.715385e+01	-6.040731e-01	-8.628290e-01
2.705741e+01	1.341926e+00	-2.297187e+00
2.703907e+01	2.879286e+00	-2.207954e+00
2.703880e+01	4.089670e+00	-2.039660e+00
2.704171e+01	5.203052e+00	-1.911331e+00
2.704465e+01	6.283374e+00	-1.822850e+00
[...]
CELL_DATA 741
SCALARS Mu double 1
LOOKUP_TABLE default
-0.388429
-0.434839
-0.445113
-0.448285
-0.449531
-0.450112
-0.450415
-0.45058
-0.450664
-0.450691
-0.450664
-0.45058
-0.450415
-0.450112
-0.449531
-0.448285
-0.445113
-0.434839
-0.388429
-0.510131
-0.594683
-0.616974
-0.624665
-0.627855
-0.629376
-0.630171
-0.630603
-0.630824
-0.630893
-0.630827
-0.630608
-0.630178
-0.629383
-0.627864
-0.624669
-0.616953
-0.594531
-0.509768
-0.565402
-0.676259
-0.708906
-0.721304
-0.726769
-0.729481
-0.73093
-0.731726
-0.732133
-0.732261
-0.732142
-0.731746
-0.730963
-0.729527
-0.726831
-0.721339
-0.708845
-0.676044
-0.567553
-0.5965
-0.724128
-0.764294
-0.780705
-0.788374
-0.792329
-0.794491
-0.79569
-0.796305
-0.796497
-0.796315
-0.795713
-0.794527
-0.792381
-0.788441
-0.780711
-0.764093
-0.72369
-0.599882
-0.616157
-0.754595
-0.800147
-0.819703
-0.829262
-0.834366
-0.837218
-0.838823
-0.839649
-0.839907
-0.839656
-0.838838
-0.837242
-0.834395
-0.829287
-0.81961
-0.799729
-0.753863
-0.620006
-0.629462
-0.77515
-0.824573
-0.846525
-0.857613
-0.863703
-0.867176
-0.869157
-0.870184
-0.870502
-0.870184
-0.869157
-0.867173
-0.863686
-0.85756
-0.846289
-0.823906
-0.774108
-0.633433
-0.63891
-0.789621
-0.841854
-0.865629
-0.87793
-0.884838
-0.888843
-0.891155
-0.892362
-0.892735
-0.892353
-0.891135
-0.888804
-0.884767
-0.877784
-0.865235
-0.840944
-0.78829
-0.642855
-0.645861
-0.800146
-0.854446
-0.879611
-0.892871
-0.900442
-0.904899
-0.907495
-0.908859
-0.909278
-0.908838
-0.907451
-0.904819
-0.900312
-0.892624
-0.879062
-0.853314
-0.798557
-0.649722
-0.651118
-0.808004
-0.863847
-0.890074
-0.904089
-0.912208
-0.917035
-0.91987
-0.921366
-0.921824
-0.921333
-0.919799
-0.916913
-0.912002
-0.903739
-0.889378
-0.86252
-0.80619
-0.654877
-0.655184
-0.813999
-0.871014
-0.898055
-0.91267
-0.921219
-0.926358
-0.929393
-0.931
-0.93149
-0.930954
-0.929291
-0.926181
-0.920941
-0.912171
-0.897221
-0.869514
-0.811993
-0.658841
-0.658388
-0.818659
-0.87657
-0.904239
-0.919324
-0.928202
-0.933353
-0.936781
-0.938511
-0.939032
-0.938454
-0.936687
-0.933422
-0.927882
-0.918774
-0.903285
-0.874921
-0.816489
-0.661948
-0.660949
-0.822338
-0.88094
-0.909098
-0.924554
-0.933726
-0.939242
-0.942613
-0.944431
-0.944972
-0.944365
-0.94251
-0.939127
-0.933362
-0.923934
-0.908042
-0.879166
-0.820031
-0.664423
-0.663021
-0.825283
-0.884419
-0.91296
-0.928706
-0.938104
-0.943837
-0.947298
-0.94915
-0.949712
-0.94908
-0.947156
-0.943615
-0.937678
-0.92802
-0.911817
-0.882541
-0.82286
-0.666419
-0.664715
-0.827667
-0.887216
-0.916056
-0.932031
-0.941591
-0.947475
-0.951026
-0.95292
-0.953498
-0.952849
-0.950851
-0.947181
-0.941111
-0.931284
-0.91484
-0.885252
-0.825147
-0.668047
-0.666097
-0.829594
-0.889464
-0.918544
-0.934709
-0.944423
-0.950403
-0.954048
-0.955985
-0.956559
-0.955888
-0.953846
-0.950085
-0.943903
-0.933924
-0.917287
-0.887452
-0.827017
-0.669388
-0.667253
-0.831199
-0.891318
-0.920587
-0.936901
-0.946741
-0.952803
-0.956494
-0.958367
-0.959029
-0.958341
-0.955882
-0.952377
-0.946158
-0.93607
-0.919281
-0.889251
-0.828559
-0.670503
-0.668225
-0.832528
-0.892849
-0.922268
-0.938724
-0.948632
-0.95476
-0.958469
-0.960483
-0.961076
-0.960326
-0.958144
-0.954299
-0.947591
-0.937793
-0.920911
-0.890737
-0.829835
-0.671435
-0.669047
-0.833641
-0.894119
-0.923653
-0.940183
-0.950182
-0.956367
-0.960143
-0.962458
-0.963208
-0.962042
-0.959854
-0.955938
-0.949468
-0.93926
-0.922276
-0.89198
-0.830914
-0.672233
-0.669767
-0.834672
-0.895229
-0.924909
-0.941505
-0.951463
-0.957689
-0.96148
-0.963593
-0.96431
-0.963546
-0.961351
-0.957315
-0.950829
-0.940496
-0.923416
-0.893019
-0.831825
-0.672916
-0.670312
-0.835344
-0.896019
-0.925722
-0.942395
-0.952498
-0.958791
-0.962623
-0.964705
-0.965348
-0.964681
-0.962445
-0.958452
-0.951955
-0.941544
-0.924384
-0.893894
-0.832588
-0.673485
-0.670778
-0.835965
-0.896752
-0.926487
-0.943239
-0.953408
-0.959746
-0.963602
-0.965689
-0.966309
-0.965575
-0.963436
-0.959372
-0.952866
-0.942406
-0.9252
-0.894666
-0.833238
-0.673966
-0.671201
-0.836527
-0.897403
-0.927221
-0.943991
-0.954198
-0.960565
-0.964442
-0.966536
-0.96716
-0.966427
-0.964225
-0.960186
-0.953631
-0.94313
-0.925872
-0.895265
-0.833767
-0.674364
-0.671574
-0.837024
-0.897976
-0.927847
-0.944655
-0.954893
-0.961277
-0.965168
-0.967284
-0.96792
-0.96719
-0.964957
-0.96089
-0.954257
-0.943745
-0.926479
-0.895817
-0.834246
-0.674719
-0.671901
-0.837465
-0.898476
-0.928371
-0.945229
-0.955506
-0.961918
-0.965836
-0.967943
-0.9686
-0.967847
-0.965649
-0.961531
-0.954898
-0.944353
-0.927025
-0.896261
-0.834667
-0.67503
-0.672181
-0.837848
-0.89886
-0.928876
-0.945762
-0.956053
-0.96248
-0.966416
-0.968528
-0.96916
-0.968423
-0.96618
-0.96197
-0.955345
-0.944872
-0.92751
-0.896732
-0.835035
-0.675302
-0.672432
-0.838191
-0.899304
-0.929302
-0.946225
-0.956537
-0.962983
-0.966931
-0.969046
-0.969698
-0.968958
-0.966693
-0.962563
-0.955913
-0.945337
-0.927944
-0.897097
-0.835372
-0.675543
-0.67265
-0.838473
-0.899433
-0.929681
-0.946642
-0.956974
-0.963416
-0.967382
-0.969528
-0.970182
-0.969434
-0.967162
-0.963034
-0.95637
-0.945756
-0.928334
-0.897476
-0.835673
-0.675758
-0.672843
-0.838734
-0.899801
-0.930017
-0.94701
-0.957366
-0.963823
-0.96782
-0.969982
-0.970669
-0.969866
-0.967549
-0.963444
-0.956781
-0.946143
-0.928686
-0.89776
-0.835933
-0.675947
-0.673019
-0.838981
-0.900132
-0.930327
-0.947327
-0.957681
-0.964209
-0.968202
-0.970361
-0.971052
-0.970207
-0.967921
-0.963822
-0.957088
-0.946483
-0.928995
-0.898061
-0.836171
-0.676117
-0.673184
-0.839214
-0.900475
-0.930633
-0.947652
-0.958038
-0.964544
-0.968532
-0.9707
-0.971412
-0.970585
-0.968296
-0.964105
-0.957431
-0.946776
-0.929278
-0.898315
-0.836391
-0.676271
-0.673336
-0.839438
-0.900733
-0.930907
-0.947952
-0.958539
-0.96489
-0.96909
-0.971099
-0.971747
-0.971032
-0.968664
-0.964525
-0.957764
-0.947021
-0.929528
-0.898543
-0.836589
-0.676412
-0.673093
-0.832934
-0.900547
-0.931022
-0.948003
-0.95862
-0.965148
-0.969415
-0.971412
-0.972045
-0.971313
-0.969027
-0.965407
-0.958068
-0.947317
-0.929762
-0.898751
-0.83677
-0.676538
-0.673109
-0.838233
-0.900522
-0.931105
-0.948293
-0.958806
-0.965382
-0.969683
-0.971677
-0.972301
-0.971567
-0.969306
-0.965783
-0.95836
-0.947568
-0.929975
-0.898935
-0.83693
-0.676652
-0.673397
-0.839334
-0.900867
-0.931315
-0.948502
-0.959012
-0.965615
-0.970051
-0.972024
-0.97254
-0.971793
-0.969506
-0.96541
-0.958569
-0.947775
-0.930156
-0.899072
-0.83707
-0.676757
-0.673604
-0.839754
-0.901216
-0.931532
-0.948696
-0.959212
-0.965862
-0.970156
-0.972154
-0.972747
-0.971998
-0.969691
-0.965496
-0.958798
-0.947957
-0.930312
-0.899211
-0.837196
-0.676852
-0.673756
-0.839992
-0.901407
-0.931681
-0.948861
-0.959426
-0.966021
-0.970411
-0.972329
-0.972929
-0.972154
-0.969843
-0.965629
-0.958887
-0.948089
-0.930449
-0.899337
-0.83731
-0.676936
-0.673875
-0.840163
-0.901591
-0.931873
-0.949026
-0.959545
-0.966179
-0.970492
-0.972491
-0.973094
-0.972311
-0.970005
-0.965796
-0.959061
-0.948218
-0.930574
-0.899452
-0.83741
-0.677013
-0.673972
-0.840299
-0.90173
-0.932019
-0.949157
-0.959648
-0.966291
-0.970629
-0.972706
-0.973241
-0.972472
-0.970159
-0.965913
-0.959131
-0.948335
-0.93073
-0.899558
-0.837505
-0.677083

