# vtk DataFile Version 2.0
OUTPUT by 3D-VPM
ASCII
DATASET UNSTRUCTURED_GRID
POINTS 920 double
4.397388e+01	1.067677e+00	-1.942072e+00
4.480808e+01	1.175587e+00	-1.656849e+00
4.433318e+01	2.437210e+00	-1.746059e+00
4.420543e+01	3.420376e+00	-1.271665e+00
4.435406e+01	4.387549e+00	-1.105403e+00
4.433494e+01	5.387143e+00	-1.053917e+00
4.430881e+01	6.396457e+00	-9.819419e-01
4.430226e+01	7.418288e+00	-9.368644e-01
4.429609e+01	8.448236e+00	-9.118321e-01
4.429273e+01	9.482258e+00	-8.996232e-01
4.429273e+01	1.051772e+01	-8.996289e-01
4.429610e+01	1.155174e+01	-9.118476e-01
4.430228e+01	1.258167e+01	-9.368811e-01
4.430885e+01	1.360348e+01	-9.819399e-01
4.433500e+01	1.461276e+01	-1.053864e+00
4.435417e+01	1.561229e+01	-1.105279e+00
4.420584e+01	1.657951e+01	-1.271350e+00
4.433391e+01	1.756269e+01	-1.745347e+00
4.481389e+01	1.882833e+01	-1.655315e+00
4.396932e+01	1.892377e+01	-1.933534e+00
4.400892e+01	5.126095e-01	-1.389603e+00
4.503707e+01	1.486165e-01	-1.323646e+00
4.506222e+01	2.019203e+00	-8.919453e-01
4.514138e+01	3.004508e+00	-5.690738e-01
4.526776e+01	4.133877e+00	-3.845604e-01
4.521942e+01	5.222936e+00	-2.504975e-01
4.519473e+01	6.286171e+00	-1.618542e-01
4.518070e+01	7.349427e+00	-1.077080e-01
4.517108e+01	8.410483e+00	-7.632077e-02
4.516664e+01	9.470182e+00	-6.175888e-02
4.516663e+01	1.052979e+01	-6.175308e-02
4.517105e+01	1.158948e+01	-7.630244e-02
4.518067e+01	1.265052e+01	-1.076708e-01
4.519470e+01	1.371374e+01	-1.617853e-01
4.521944e+01	1.477692e+01	-2.504019e-01
4.526791e+01	1.586589e+01	-3.844601e-01
4.514195e+01	1.699520e+01	-5.688838e-01
4.506220e+01	1.798059e+01	-8.911918e-01
4.503858e+01	1.985095e+01	-1.321845e+00
4.401493e+01	1.949163e+01	-1.391801e+00
4.264982e+01	4.163549e-01	-1.773312e+00
4.320080e+01	-2.749999e-01	-9.450695e-01
4.383265e+01	1.451279e+00	-3.098133e+00
4.416458e+01	3.030785e+00	-2.889721e+00
4.432385e+01	4.168065e+00	-2.667042e+00
4.439677e+01	5.251107e+00	-2.527621e+00
4.443854e+01	6.315333e+00	-2.425620e+00
4.446159e+01	7.369813e+00	-2.358982e+00
4.447361e+01	8.422187e+00	-2.319662e+00
4.447893e+01	9.474013e+00	-2.301281e+00
4.447893e+01	1.052592e+01	-2.301295e+00
4.447362e+01	1.157774e+01	-2.319709e+00
4.446160e+01	1.263009e+01	-2.359069e+00
4.443853e+01	1.368452e+01	-2.425764e+00
4.439675e+01	1.474863e+01	-2.527874e+00
4.432396e+01	1.583148e+01	-2.667358e+00
4.416533e+01	1.696852e+01	-2.889593e+00
4.383370e+01	1.854697e+01	-3.097715e+00
4.320500e+01	2.027318e+01	-9.441174e-01
4.265151e+01	1.958723e+01	-1.772792e+00
4.170075e+01	5.829566e-01	-1.462920e+00
4.225954e+01	-3.689011e-01	-7.525398e-01
4.227806e+01	1.080009e+00	-3.234116e+00
4.242175e+01	2.867525e+00	-3.249310e+00
4.254127e+01	4.124635e+00	-3.082205e+00
4.260775e+01	5.237689e+00	-2.948558e+00
4.264420e+01	6.310002e+00	-2.855704e+00
4.266468e+01	7.368584e+00	-2.794604e+00
4.267566e+01	8.422209e+00	-2.757891e+00
4.268055e+01	9.474104e+00	-2.740741e+00
4.268057e+01	1.052579e+01	-2.740790e+00
4.267571e+01	1.157767e+01	-2.758051e+00
4.266478e+01	1.263126e+01	-2.794905e+00
4.264435e+01	1.368977e+01	-2.856197e+00
4.260805e+01	1.476196e+01	-2.949397e+00
4.254189e+01	1.587475e+01	-3.083203e+00
4.242299e+01	1.713110e+01	-3.249609e+00
4.227944e+01	1.891598e+01	-3.234512e+00
4.226573e+01	2.037777e+01	-7.505948e-01
4.170381e+01	1.942516e+01	-1.458860e+00
4.081559e+01	4.654370e-01	-1.240523e+00
4.120840e+01	-5.711005e-01	-6.230553e-01
4.110431e+01	9.001491e-01	-3.149153e+00
4.115531e+01	2.763934e+00	-3.232256e+00
4.122839e+01	4.073388e+00	-3.070085e+00
4.127776e+01	5.213444e+00	-2.931176e+00
4.130760e+01	6.297941e+00	-2.832973e+00
4.132498e+01	7.362507e+00	-2.768048e+00
4.133455e+01	8.419385e+00	-2.728885e+00
4.133886e+01	9.473272e+00	-2.710549e+00
4.133887e+01	1.052658e+01	-2.710613e+00
4.133458e+01	1.158045e+01	-2.729092e+00
4.132504e+01	1.263727e+01	-2.768442e+00
4.130768e+01	1.370174e+01	-2.833622e+00
4.127797e+01	1.478607e+01	-2.932286e+00
4.122888e+01	1.592577e+01	-3.071296e+00
4.115625e+01	1.723394e+01	-3.232065e+00
4.110510e+01	1.909323e+01	-3.149764e+00
4.121140e+01	2.058291e+01	-6.203009e-01
4.081870e+01	1.954745e+01	-1.235578e+00
3.989551e+01	4.351721e-01	-1.198895e+00
4.016118e+01	-5.550236e-01	-4.829508e-01
4.004281e+01	8.227032e-01	-3.044651e+00
4.005407e+01	2.706623e+00	-3.143259e+00
4.009862e+01	4.038856e+00	-2.976857e+00
4.013408e+01	5.193610e+00	-2.831862e+00
4.015784e+01	6.286757e+00	-2.728831e+00
4.017263e+01	7.356356e+00	-2.660509e+00
4.018111e+01	8.416323e+00	-2.619223e+00
4.018503e+01	9.472340e+00	-2.599864e+00
4.018503e+01	1.052749e+01	-2.599930e+00
4.018112e+01	1.158348e+01	-2.619437e+00
4.017264e+01	1.264339e+01	-2.660910e+00
4.015786e+01	1.371287e+01	-2.729468e+00
4.013416e+01	1.480583e+01	-2.832908e+00
4.009891e+01	1.596016e+01	-2.977725e+00
4.005469e+01	1.729068e+01	-3.141945e+00
4.004310e+01	1.916918e+01	-3.044396e+00
4.016323e+01	2.056573e+01	-4.779898e-01
3.989800e+01	1.957730e+01	-1.194405e+00
3.897422e+01	4.839521e-01	-1.124346e+00
3.916109e+01	-5.257882e-01	-3.866583e-01
3.902117e+01	7.892447e-01	-2.937881e+00
3.901730e+01	2.677929e+00	-3.040221e+00
3.904494e+01	4.017987e+00	-2.868424e+00
3.907020e+01	5.179486e+00	-2.718544e+00
3.908864e+01	6.277711e+00	-2.611922e+00
3.910083e+01	7.350907e+00	-2.541092e+00
3.910813e+01	8.413437e+00	-2.498246e+00
3.911158e+01	9.471436e+00	-2.478132e+00
3.911158e+01	1.052838e+01	-2.478194e+00
3.910812e+01	1.158635e+01	-2.498442e+00
3.910082e+01	1.264882e+01	-2.541448e+00
3.908862e+01	1.372190e+01	-2.612473e+00
3.907022e+01	1.481993e+01	-2.719381e+00
3.904511e+01	1.598096e+01	-2.868720e+00
3.901777e+01	1.731901e+01	-3.037665e+00
3.902140e+01	1.920174e+01	-2.936454e+00
3.916279e+01	2.053741e+01	-3.813557e-01
3.897645e+01	1.952774e+01	-1.117915e+00
3.803903e+01	5.031164e-01	-1.045570e+00
3.816447e+01	-5.186587e-01	-3.310907e-01
3.802002e+01	7.850677e-01	-2.841029e+00
3.800706e+01	2.667065e+00	-2.939515e+00
3.802424e+01	4.007053e+00	-2.763196e+00
3.804226e+01	5.170498e+00	-2.610006e+00
3.805634e+01	6.271148e+00	-2.501040e+00
3.806614e+01	7.346581e+00	-2.428571e+00
3.807221e+01	8.411012e+00	-2.384669e+00
3.807515e+01	9.470657e+00	-2.364037e+00
3.807514e+01	1.052916e+01	-2.364090e+00
3.807219e+01	1.158878e+01	-2.384833e+00
3.806611e+01	1.265315e+01	-2.428853e+00
3.805631e+01	1.372847e+01	-2.501508e+00
3.804225e+01	1.482892e+01	-2.610625e+00
3.802438e+01	1.599187e+01	-2.762904e+00
3.800752e+01	1.732964e+01	-2.935874e+00
3.802038e+01	1.920525e+01	-2.838556e+00
3.816530e+01	2.053111e+01	-3.258744e-01
3.804077e+01	1.950923e+01	-1.038096e+00
3.708798e+01	5.181950e-01	-9.869194e-01
3.716687e+01	-5.196730e-01	-3.047577e-01
3.702637e+01	8.022445e-01	-2.758298e+00
3.700779e+01	2.668233e+00	-2.845653e+00
3.701811e+01	4.003192e+00	-2.665884e+00
3.703099e+01	5.165656e+00	-2.510918e+00
3.704168e+01	6.266911e+00	-2.400790e+00
3.704940e+01	7.343494e+00	-2.327436e+00
3.705433e+01	8.409176e+00	-2.282921e+00
3.705676e+01	9.470052e+00	-2.261973e+00
3.705676e+01	1.052976e+01	-2.262010e+00
3.705432e+01	1.159062e+01	-2.283029e+00
3.704938e+01	1.265625e+01	-2.327621e+00
3.704164e+01	1.373271e+01	-2.401092e+00
3.703098e+01	1.483378e+01	-2.511263e+00
3.701826e+01	1.599573e+01	-2.665085e+00
3.700828e+01	1.732832e+01	-2.841152e+00
3.702686e+01	1.918758e+01	-2.754891e+00
3.716703e+01	2.053258e+01	-2.998163e-01
3.708914e+01	1.949425e+01	-9.792260e-01
3.612483e+01	5.347903e-01	-9.335851e-01
3.616951e+01	-5.290485e-01	-3.009792e-01
3.603432e+01	8.339415e-01	-2.687385e+00
3.601260e+01	2.677611e+00	-2.759094e+00
3.601836e+01	4.004302e+00	-2.576911e+00
3.602760e+01	5.163952e+00	-2.421468e+00
3.603572e+01	6.264609e+00	-2.311246e+00
3.604177e+01	7.341552e+00	-2.237683e+00
3.604568e+01	8.407939e+00	-2.192843e+00
3.604766e+01	9.469631e+00	-2.171722e+00
3.604766e+01	1.053019e+01	-2.171726e+00
3.604567e+01	1.159187e+01	-2.192809e+00
3.604173e+01	1.265819e+01	-2.237512e+00
3.603567e+01	1.373501e+01	-2.311107e+00
3.602760e+01	1.483547e+01	-2.421175e+00
3.601853e+01	1.599458e+01	-2.575389e+00
3.601312e+01	1.731887e+01	-2.753908e+00
3.603491e+01	1.915557e+01	-2.683105e+00
3.616918e+01	2.054235e+01	-2.965265e-01
3.612547e+01	1.947770e+01	-9.256953e-01
3.515222e+01	5.481178e-01	-8.837084e-01
3.517125e+01	-5.445973e-01	-3.150863e-01
3.504197e+01	8.755207e-01	-2.625477e+00
3.501855e+01	2.692488e+00	-2.678952e+00
3.502127e+01	4.008846e+00	-2.495298e+00
3.502794e+01	5.164562e+00	-2.340311e+00
3.503413e+01	6.263921e+00	-2.229406e+00
3.503885e+01	7.340617e+00	-2.156153e+00
3.504196e+01	8.407218e+00	-2.112679e+00
3.504354e+01	9.469376e+00	-2.091652e+00
3.504355e+01	1.053046e+01	-2.091610e+00
3.504195e+01	1.159259e+01	-2.112566e+00
3.503882e+01	1.265917e+01	-2.157152e+00
3.503410e+01	1.373575e+01	-2.230318e+00
3.502797e+01	1.483485e+01	-2.339643e+00
3.502147e+01	1.599002e+01	-2.493292e+00
3.501910e+01	1.730396e+01	-2.673216e+00
3.504265e+01	1.911383e+01	-2.620385e+00
3.517054e+01	2.055818e+01	-3.112603e-01
3.515239e+01	1.946456e+01	-8.758521e-01
3.417239e+01	5.584761e-01	-8.374123e-01
3.417198e+01	-5.628593e-01	-3.435427e-01
3.404865e+01	9.238041e-01	-2.570133e+00
3.402444e+01	2.710998e+00	-2.604056e+00
3.402514e+01	4.015721e+00	-2.419733e+00
3.402999e+01	5.166845e+00	-2.266006e+00
3.403477e+01	6.264407e+00	-2.155881e+00
3.403849e+01	7.340401e+00	-2.083206e+00
3.404093e+01	8.406925e+00	-2.040500e+00
3.404220e+01	9.469265e+00	-2.019831e+00
3.404220e+01	1.053057e+01	-2.019770e+00
3.404092e+01	1.159287e+01	-2.040494e+00
3.403843e+01	1.265938e+01	-2.084885e+00
3.403473e+01	1.373533e+01	-2.157355e+00
3.403004e+01	1.483261e+01	-2.265423e+00
3.402535e+01	1.598317e+01	-2.417618e+00
3.402501e+01	1.728547e+01	-2.597923e+00
3.404938e+01	1.906550e+01	-2.564298e+00
3.417097e+01	2.057659e+01	-3.404236e-01
3.417215e+01	1.945442e+01	-8.297980e-01
3.318718e+01	5.661556e-01	-7.938439e-01
3.317191e+01	-5.811087e-01	-3.836961e-01
3.305421e+01	9.765264e-01	-2.519335e+00
3.302982e+01	2.731847e+00	-2.533346e+00
3.302917e+01	4.024130e+00	-2.349071e+00
3.303274e+01	5.170265e+00	-2.197231e+00
3.303648e+01	6.265635e+00	-2.089843e+00
[...]
CELL_DATA 855
SCALARS Mu double 1
LOOKUP_TABLE default
-0.388429
-0.434839
-0.445113
-0.448285
-0.449531
-0.450112
-0.450415
-0.45058
-0.450664
-0.450691
-0.450664
-0.45058
-0.450415
-0.450112
-0.449531
-0.448285
-0.445113
-0.434839
-0.388429
-0.510131
-0.594683
-0.616974
-0.624665
-0.627855
-0.629376
-0.630171
-0.630603
-0.630824
-0.630893
-0.630827
-0.630608
-0.630178
-0.629383
-0.627864
-0.624669
-0.616953
-0.594531
-0.509768
-0.565402
-0.676259
-0.708906
-0.721304
-0.726769
-0.729481
-0.73093
-0.731726
-0.732133
-0.732261
-0.732142
-0.731746
-0.730963
-0.729527
-0.726831
-0.721339
-0.708845
-0.676044
-0.567553
-0.5965
-0.724128
-0.764294
-0.780705
-0.788374
-0.792329
-0.794491
-0.79569
-0.796305
-0.796497
-0.796315
-0.795713
-0.794527
-0.792381
-0.788441
-0.780711
-0.764093
-0.72369
-0.599882
-0.616157
-0.754595
-0.800147
-0.819703
-0.829262
-0.834366
-0.837218
-0.838823
-0.839649
-0.839907
-0.839656
-0.838838
-0.837242
-0.834395
-0.829287
-0.81961
-0.799729
-0.753863
-0.620006
-0.629462
-0.77515
-0.824573
-0.846525
-0.857613
-0.863703
-0.867176
-0.869157
-0.870184
-0.870502
-0.870184
-0.869157
-0.867173
-0.863686
-0.85756
-0.846289
-0.823906
-0.774108
-0.633433
-0.63891
-0.789621
-0.841854
-0.865629
-0.87793
-0.884838
-0.888843
-0.891155
-0.892362
-0.892735
-0.892353
-0.891135
-0.888804
-0.884767
-0.877784
-0.865235
-0.840944
-0.78829
-0.642855
-0.645861
-0.800146
-0.854446
-0.879611
-0.892871
-0.900442
-0.904899
-0.907495
-0.908859
-0.909278
-0.908838
-0.907451
-0.904819
-0.900312
-0.892624
-0.879062
-0.853314
-0.798557
-0.649722
-0.651118
-0.808004
-0.863847
-0.890074
-0.904089
-0.912208
-0.917035
-0.91987
-0.921366
-0.921824
-0.921333
-0.919799
-0.916913
-0.912002
-0.903739
-0.889378
-0.86252
-0.80619
-0.654877
-0.655184
-0.813999
-0.871014
-0.898055
-0.91267
-0.921219
-0.926358
-0.929393
-0.931
-0.93149
-0.930954
-0.929291
-0.926181
-0.920941
-0.912171
-0.897221
-0.869514
-0.811993
-0.658841
-0.658388
-0.818659
-0.87657
-0.904239
-0.919324
-0.928202
-0.933353
-0.936781
-0.938511
-0.939032
-0.938454
-0.936687
-0.933422
-0.927882
-0.918774
-0.903285
-0.874921
-0.816489
-0.661948
-0.660949
-0.822338
-0.88094
-0.909098
-0.924554
-0.933726
-0.939242
-0.942613
-0.944431
-0.944972
-0.944365
-0.94251
-0.939127
-0.933362
-0.923934
-0.908042
-0.879166
-0.820031
-0.664423
-0.663021
-0.825283
-0.884419
-0.91296
-0.928706
-0.938104
-0.943837
-0.947298
-0.94915
-0.949712
-0.94908
-0.947156
-0.943615
-0.937678
-0.92802
-0.911817
-0.882541
-0.82286
-0.666419
-0.664715
-0.827667
-0.887216
-0.916056
-0.932031
-0.941591
-0.947475
-0.951026
-0.95292
-0.953498
-0.952849
-0.950851
-0.947181
-0.941111
-0.931284
-0.91484
-0.885252
-0.825147
-0.668047
-0.666097
-0.829594
-0.889464
-0.918544
-0.934709
-0.944423
-0.950403
-0.954048
-0.955985
-0.956559
-0.955888
-0.953846
-0.950085
-0.943903
-0.933924
-0.917287
-0.887452
-0.827017
-0.669388
-0.667253
-0.831199
-0.891318
-0.920587
-0.936901
-0.946741
-0.952803
-0.956494
-0.958367
-0.959029
-0.958341
-0.955882
-0.952377
-0.946158
-0.93607
-0.919281
-0.889251
-0.828559
-0.670503
-0.668225
-0.832528
-0.892849
-0.922268
-0.938724
-0.948632
-0.95476
-0.958469
-0.960483
-0.961076
-0.960326
-0.958144
-0.954299
-0.947591
-0.937793
-0.920911
-0.890737
-0.829835
-0.671435
-0.669047
-0.833641
-0.894119
-0.923653
-0.940183
-0.950182
-0.956367
-0.960143
-0.962458
-0.963208
-0.962042
-0.959854
-0.955938
-0.949468
-0.93926
-0.922276
-0.89198
-0.830914
-0.672233
-0.669767
-0.834672
-0.895229
-0.924909
-0.941505
-0.951463
-0.957689
-0.96148
-0.963593
-0.96431
-0.963546
-0.961351
-0.957315
-0.950829
-0.940496
-0.923416
-0.893019
-0.831825
-0.672916
-0.670312
-0.835344
-0.896019
-0.925722
-0.942395
-0.952498
-0.958791
-0.962623
-0.964705
-0.965348
-0.964681
-0.962445
-0.958452
-0.951955
-0.941544
-0.924384
-0.893894
-0.832588
-0.673485
-0.670778
-0.835965
-0.896752
-0.926487
-0.943239
-0.953408
-0.959746
-0.963602
-0.965689
-0.966309
-0.965575
-0.963436
-0.959372
-0.952866
-0.942406
-0.9252
-0.894666
-0.833238
-0.673966
-0.671201
-0.836527
-0.897403
-0.927221
-0.943991
-0.954198
-0.960565
-0.964442
-0.966536
-0.96716
-0.966427
-0.964225
-0.960186
-0.953631
-0.94313
-0.925872
-0.895265
-0.833767
-0.674364
-0.671574
-0.837024
-0.897976
-0.927847
-0.944655
-0.954893
-0.961277
-0.965168
-0.967284
-0.96792
-0.96719
-0.964957
-0.96089
-0.954257
-0.943745
-0.926479
-0.895817
-0.834246
-0.674719
-0.671901
-0.837465
-0.898476
-0.928371
-0.945229
-0.955506
-0.961918
-0.965836
-0.967943
-0.9686
-0.967847
-0.965649
-0.961531
-0.954898
-0.944353
-0.927025
-0.896261
-0.834667
-0.67503
-0.672181
-0.837848
-0.89886
-0.928876
-0.945762
-0.956053
-0.96248
-0.966416
-0.968528
-0.96916
-0.968423
-0.96618
-0.96197
-0.955345
-0.944872
-0.92751
-0.896732
-0.835035
-0.675302
-0.672432
-0.838191
-0.899304
-0.929302
-0.946225
-0.956537
-0.962983
-0.966931
-0.969046
-0.969698
-0.968958
-0.966693
-0.962563
-0.955913
-0.945337
-0.927944
-0.897097
-0.835372
-0.675543
-0.67265
-0.838473
-0.899433
-0.929681
-0.946642
-0.956974
-0.963416
-0.967382
-0.969528
-0.970182
-0.969434
-0.967162
-0.963034
-0.95637
-0.945756
-0.928334
-0.897476
-0.835673
-0.675758
-0.672843
-0.838734
-0.899801
-0.930017
-0.94701
-0.957366
-0.963823
-0.96782
-0.969982
-0.970669
-0.969866
-0.967549
-0.963444
-0.956781
-0.946143
-0.928686
-0.89776
-0.835933
-0.675947
-0.673019
-0.838981
-0.900132
-0.930327
-0.947327
-0.957681
-0.964209
-0.968202
-0.970361
-0.971052
-0.970207
-0.967921
-0.963822
-0.957088
-0.946483
-0.928995
-0.898061
-0.836171
-0.676117
-0.673184
-0.839214
-0.900475
-0.930633
-0.947652
-0.958038
-0.964544
-0.968532
-0.9707
-0.971412
-0.970585
-0.968296
-0.964105
-0.957431
-0.946776
-0.929278
-0.898315
-0.836391
-0.676271
-0.673336
-0.839438
-0.900733
-0.930907
-0.947952
-0.958539
-0.96489
-0.96909
-0.971099
-0.971747
-0.971032
-0.968664
-0.964525
-0.957764
-0.947021
-0.929528
-0.898543
-0.836589
-0.676412
-0.673093
-0.832934
-0.900547
-0.931022
-0.948003
-0.95862
-0.965148
-0.969415
-0.971412
-0.972045
-0.971313
-0.969027
-0.965407
-0.958068
-0.947317
-0.929762
-0.898751
-0.83677
-0.676538
-0.673109
-0.838233
-0.900522
-0.931105
-0.948293
-0.958806
-0.965382
-0.969683
-0.971677
-0.972301
-0.971567
-0.969306
-0.965783
-0.95836
-0.947568
-0.929975
-0.898935
-0.83693
-0.676652
-0.673397
-0.839334
-0.900867
-0.931315
-0.948502
-0.959012
-0.965615
-0.970051
-0.972024
-0.97254
-0.971793
-0.969506
-0.96541
-0.958569
-0.947775
-0.930156
-0.899072
-0.83707
-0.676757
-0.673604
-0.839754
-0.901216
-0.931532
-0.948696
-0.959212
-0.965862
-0.970156
-0.972154
-0.972747
-0.971998
-0.969691
-0.965496
-0.958798
-0.947957
-0.930312
-0.899211
-0.837196
-0.676852
-0.673756
-0.839992
-0.901407
-0.931681
-0.948861
-0.959426
-0.966021
-0.970411
-0.972329
-0.972929
-0.972154
-0.969843
-0.965629
-0.958887
-0.948089
-0.930449
-0.899337
-0.83731
-0.676936
-0.673875
-0.840163
-0.901591
-0.931873
-0.949026
-0.959545
-0.966179
-0.970492
-0.972491
-0.973094
-0.972311
-0.970005
-0.965796
-0.959061
-0.948218
-0.930574
-0.899452
-0.83741
-0.677013
-0.673972
-0.840299
-0.90173
-0.932019
-0.949157
-0.959648
-0.966291
-0.970629
-0.972706
-0.973241
-0.972472
-0.970159
-0.965913
-0.959131
-0.948335
-0.93073
-0.899558
-0.837505
-0.677083
-0.674055
-0.840414
-0.901851
-0.932148
-0.949367
-0.959803
-0.966422
-0.970753
-0.972774
-0.973387
-0.972691
-0.970305
-0.966032
-0.95925
-0.948466
-0.930802
-0.899682
-0.837596
-0.677151
-0.67413
-0.840515
-0.901958
-0.932259
-0.94945
-0.959925
-0.966547
-0.97095
-0.972724
-0.973462
-0.972732
-0.970365
-0.96615
-0.959404
-0.948576
-0.930894
-0.899772
-0.837678
-0.677212
-0.674198
-0.840603
-0.90205
-0.932345
-0.94942
-0.960026
-0.966664
-0.970992
-0.972961
-0.973695
-0.972848
-0.970146
-0.966318
-0.959473
-0.948614
-0.930956
-0.899821
-0.837742
-0.677265
-0.674258
-0.84068
-0.902131
-0.932425
-0.949485
-0.960115
-0.966749
-0.971085
-0.973081
-0.973718
-0.972906
-0.970484
-0.966326
-0.959536
-0.948734
-0.93109
-0.899936
-0.83783
-0.677332
-0.67431
-0.84075
-0.902206
-0.932504
-0.949582
-0.96021
-0.967018
-0.971233
-0.973196
-0.973804
-0.973005
-0.970645
-0.966413
-0.959631
-0.948933
-0.93116
-0.900019
-0.837902
-0.677385
-0.674361
-0.840818
-0.902278
-0.932589
-0.949749
-0.960329
-0.966975
-0.971287
-0.973286
-0.973891
-0.973088
-0.970748
-0.966503
-0.959712
-0.948919
-0.931231
-0.90009
-0.837968
-0.677434

