# vtk DataFile Version 2.0
OUTPUT by 3D-VPM
ASCII
DATASET UNSTRUCTURED_GRID
POINTS 180 double
8.141362e+00	7.766921e-02	-3.061937e-01
8.118934e+00	1.070272e+00	-5.250674e-01
8.087899e+00	2.119885e+00	-4.403450e-01
8.089311e+00	3.165951e+00	-3.976008e-01
8.088514e+00	4.215256e+00	-3.761734e-01
8.087906e+00	5.266076e+00	-3.641208e-01
8.087592e+00	6.317623e+00	-3.570926e-01
8.087441e+00	7.369543e+00	-3.529328e-01
8.087373e+00	8.421656e+00	-3.505876e-01
8.087402e+00	9.473812e+00	-3.495224e-01
8.087402e+00	1.052619e+01	-3.495210e-01
8.087372e+00	1.157834e+01	-3.505835e-01
8.087438e+00	1.263046e+01	-3.529261e-01
8.087589e+00	1.368238e+01	-3.570837e-01
8.087903e+00	1.473392e+01	-3.641105e-01
8.088513e+00	1.578474e+01	-3.761632e-01
8.089318e+00	1.683404e+01	-3.975928e-01
8.087925e+00	1.788011e+01	-4.403396e-01
8.118976e+00	1.892975e+01	-5.250637e-01
8.141369e+00	1.992239e+01	-3.061787e-01
7.166546e+00	5.287462e-02	-5.323837e-01
7.195312e+00	9.854919e-01	-1.048499e+00
7.195851e+00	2.102505e+00	-9.954704e-01
7.206105e+00	3.160455e+00	-9.529637e-01
7.210131e+00	4.212667e+00	-9.299699e-01
7.211897e+00	5.264584e+00	-9.171968e-01
7.212790e+00	6.316694e+00	-9.098363e-01
7.213278e+00	7.368968e+00	-9.055303e-01
7.213542e+00	8.421338e+00	-9.031194e-01
7.213719e+00	9.473709e+00	-9.020452e-01
7.213719e+00	1.052629e+01	-9.020442e-01
7.213542e+00	1.157866e+01	-9.031160e-01
7.213278e+00	1.263103e+01	-9.055240e-01
7.212789e+00	1.368330e+01	-9.098259e-01
7.211896e+00	1.473541e+01	-9.171845e-01
7.210131e+00	1.578733e+01	-9.299591e-01
7.206112e+00	1.683953e+01	-9.529477e-01
7.195881e+00	1.789747e+01	-9.953440e-01
7.195407e+00	1.901434e+01	-1.048052e+00
7.166512e+00	1.994698e+01	-5.319510e-01
6.159492e+00	6.682642e-02	-4.802539e-01
6.113728e+00	9.857770e-01	-1.006007e+00
6.104027e+00	2.100100e+00	-9.600904e-01
6.109843e+00	3.159726e+00	-9.198634e-01
6.113411e+00	4.212542e+00	-8.978336e-01
6.115267e+00	5.264591e+00	-8.856010e-01
6.116262e+00	6.316717e+00	-8.785895e-01
6.116814e+00	7.368985e+00	-8.745130e-01
6.117112e+00	8.421348e+00	-8.722441e-01
6.117298e+00	9.473713e+00	-8.712385e-01
6.117298e+00	1.052629e+01	-8.712412e-01
6.117112e+00	1.157865e+01	-8.722528e-01
6.116813e+00	1.263101e+01	-8.745292e-01
6.116260e+00	1.368328e+01	-8.786151e-01
6.115263e+00	1.473541e+01	-8.856460e-01
6.113408e+00	1.578745e+01	-8.978832e-01
6.109855e+00	1.684026e+01	-9.198346e-01
6.104058e+00	1.789984e+01	-9.596492e-01
6.113883e+00	1.901438e+01	-1.006833e+00
6.159372e+00	1.993321e+01	-4.811971e-01
5.165936e+00	6.296461e-02	-4.337473e-01
5.105226e+00	1.007885e+00	-8.967450e-01
5.092666e+00	2.101715e+00	-8.624942e-01
5.095705e+00	3.159349e+00	-8.291802e-01
5.098351e+00	4.212197e+00	-8.108068e-01
5.099946e+00	5.264400e+00	-8.005481e-01
5.100865e+00	6.316617e+00	-7.946532e-01
5.101389e+00	7.368933e+00	-7.912206e-01
5.101676e+00	8.421324e+00	-7.893095e-01
5.101855e+00	9.473706e+00	-7.884624e-01
5.101854e+00	1.052629e+01	-7.884670e-01
5.101673e+00	1.157868e+01	-7.893248e-01
5.101384e+00	1.263107e+01	-7.912506e-01
5.100856e+00	1.368338e+01	-7.947042e-01
5.099933e+00	1.473560e+01	-8.006362e-01
5.098339e+00	1.578779e+01	-8.108953e-01
5.095725e+00	1.684063e+01	-8.290879e-01
5.092758e+00	1.789818e+01	-8.617261e-01
5.105076e+00	1.899264e+01	-8.991396e-01
5.165651e+00	1.993736e+01	-4.363460e-01
4.170508e+00	5.836421e-02	-4.032899e-01
4.110809e+00	1.033853e+00	-7.750173e-01
4.098917e+00	2.104974e+00	-7.527219e-01
4.100298e+00	3.159444e+00	-7.287137e-01
4.102003e+00	4.211902e+00	-7.154021e-01
4.103143e+00	5.264155e+00	-7.079245e-01
4.103839e+00	6.316460e+00	-7.035979e-01
4.104250e+00	7.368842e+00	-7.010609e-01
4.104479e+00	8.421277e+00	-6.996417e-01
4.104632e+00	9.473692e+00	-6.990111e-01
4.104632e+00	1.052631e+01	-6.990135e-01
4.104476e+00	1.157872e+01	-6.996502e-01
4.104246e+00	1.263116e+01	-7.010787e-01
4.103831e+00	1.368354e+01	-7.036299e-01
4.103130e+00	1.473584e+01	-7.079832e-01
4.101994e+00	1.578809e+01	-7.154404e-01
4.100336e+00	1.684053e+01	-7.285080e-01
4.099061e+00	1.789492e+01	-7.517709e-01
4.110516e+00	1.896653e+01	-7.772976e-01
4.170193e+00	1.994177e+01	-4.058884e-01
3.173492e+00	5.261349e-02	-3.808073e-01
3.121137e+00	1.054157e+00	-6.454706e-01
3.112475e+00	2.107799e+00	-6.357280e-01
3.113024e+00	3.159662e+00	-6.221238e-01
3.113936e+00	4.211705e+00	-6.144197e-01
3.114578e+00	5.263947e+00	-6.100334e-01
3.114984e+00	6.316310e+00	-6.074663e-01
3.115230e+00	7.368748e+00	-6.059437e-01
3.115367e+00	8.421227e+00	-6.050849e-01
3.115480e+00	9.473676e+00	-6.047031e-01
3.115480e+00	1.052632e+01	-6.047030e-01
3.115366e+00	1.157877e+01	-6.050850e-01
3.115227e+00	1.263125e+01	-6.059453e-01
3.114980e+00	1.368369e+01	-6.074703e-01
3.114573e+00	1.473605e+01	-6.100444e-01
3.113939e+00	1.578828e+01	-6.143890e-01
3.113074e+00	1.684031e+01	-6.218561e-01
3.112625e+00	1.789213e+01	-6.348651e-01
3.120888e+00	1.894608e+01	-6.471758e-01
3.173232e+00	1.994738e+01	-3.828577e-01
2.177995e+00	4.525979e-02	-3.553523e-01
2.140171e+00	1.064103e+00	-5.019927e-01
2.136451e+00	2.109259e+00	-5.031691e-01
2.136562e+00	3.159833e+00	-4.990353e-01
2.136828e+00	4.211623e+00	-4.964513e-01
2.137021e+00	5.263831e+00	-4.949121e-01
2.137145e+00	6.316212e+00	-4.939855e-01
2.137221e+00	7.368680e+00	-4.934221e-01
2.137263e+00	8.421190e+00	-4.930987e-01
2.137326e+00	9.473667e+00	-4.929570e-01
2.137326e+00	1.052633e+01	-4.929551e-01
2.137263e+00	1.157881e+01	-4.930931e-01
2.137222e+00	1.263132e+01	-4.934124e-01
2.137147e+00	1.368379e+01	-4.939699e-01
2.137024e+00	1.473616e+01	-4.948894e-01
2.136838e+00	1.578836e+01	-4.963865e-01
2.136603e+00	1.684014e+01	-4.988119e-01
2.136551e+00	1.789072e+01	-5.026304e-01
2.140046e+00	1.893607e+01	-5.030635e-01
2.177841e+00	1.995462e+01	-3.566392e-01
1.201057e+00	0.000000e+00	-3.090170e-01
1.201057e+00	1.052632e+00	-3.090170e-01
1.201057e+00	2.105263e+00	-3.090170e-01
1.201057e+00	3.157895e+00	-3.090170e-01
1.201057e+00	4.210526e+00	-3.090170e-01
1.201057e+00	5.263158e+00	-3.090170e-01
1.201057e+00	6.315789e+00	-3.090170e-01
1.201057e+00	7.368421e+00	-3.090170e-01
1.201057e+00	8.421053e+00	-3.090170e-01
1.201057e+00	9.473684e+00	-3.090170e-01
1.201057e+00	1.052632e+01	-3.090170e-01
1.201057e+00	1.157895e+01	-3.090170e-01
1.201057e+00	1.263158e+01	-3.090170e-01
1.201057e+00	1.368421e+01	-3.090170e-01
1.201057e+00	1.473684e+01	-3.090170e-01
1.201057e+00	1.578947e+01	-3.090170e-01
1.201057e+00	1.684211e+01	-3.090170e-01
1.201057e+00	1.789474e+01	-3.090170e-01
1.201057e+00	1.894737e+01	-3.090170e-01
1.201057e+00	2.000000e+01	-3.090170e-01
9.510565e-01	0.000000e+00	-3.090170e-01
9.510565e-01	1.052632e+00	-3.090170e-01
9.510565e-01	2.105263e+00	-3.090170e-01
9.510565e-01	3.157895e+00	-3.090170e-01
9.510565e-01	4.210526e+00	-3.090170e-01
9.510565e-01	5.263158e+00	-3.090170e-01
9.510565e-01	6.315789e+00	-3.090170e-01
9.510565e-01	7.368421e+00	-3.090170e-01
9.510565e-01	8.421053e+00	-3.090170e-01
9.510565e-01	9.473684e+00	-3.090170e-01
9.510565e-01	1.052632e+01	-3.090170e-01
9.510565e-01	1.157895e+01	-3.090170e-01
9.510565e-01	1.263158e+01	-3.090170e-01
9.510565e-01	1.368421e+01	-3.090170e-01
9.510565e-01	1.473684e+01	-3.090170e-01
9.510565e-01	1.578947e+01	-3.090170e-01
9.510565e-01	1.684211e+01	-3.090170e-01
9.510565e-01	1.789474e+01	-3.090170e-01
9.510565e-01	1.894737e+01	-3.090170e-01
9.510565e-01	2.000000e+01	-3.090170e-01

CELLS 152 760
4 20 0 1 21 
4 21 1 2 22 
4 22 2 3 23 
4 23 3 4 24 
4 24 4 5 25 
4 25 5 6 26 
4 26 6 7 27 
4 27 7 8 28 
4 28 8 9 29 
4 29 9 10 30 
4 30 10 11 31 
4 31 11 12 32 
4 32 12 13 33 
4 33 13 14 34 
4 34 14 15 35 
4 35 15 16 36 
4 36 16 17 37 
4 37 17 18 38 
4 38 18 19 39 
4 40 20 21 41 
4 41 21 22 42 
4 42 22 23 43 
4 43 23 24 44 
4 44 24 25 45 
4 45 25 26 46 
4 46 26 27 47 
4 47 27 28 48 
4 48 28 29 49 
4 49 29 30 50 
4 50 30 31 51 
4 51 31 32 52 
4 52 32 33 53 
4 53 33 34 54 
4 54 34 35 55 
4 55 35 36 56 
4 56 36 37 57 
4 57 37 38 58 
4 58 38 39 59 
4 60 40 41 61 
4 61 41 42 62 
4 62 42 43 63 
4 63 43 44 64 
4 64 44 45 65 
4 65 45 46 66 
4 66 46 47 67 
4 67 47 48 68 
4 68 48 49 69 
4 69 49 50 70 
4 70 50 51 71 
4 71 51 52 72 
4 72 52 53 73 
4 73 53 54 74 
4 74 54 55 75 
4 75 55 56 76 
4 76 56 57 77 
4 77 57 58 78 
4 78 58 59 79 
4 80 60 61 81 
4 81 61 62 82 
4 82 62 63 83 
4 83 63 64 84 
4 84 64 65 85 
4 85 65 66 86 
4 86 66 67 87 
4 87 67 68 88 
4 88 68 69 89 
4 89 69 70 90 
4 90 70 71 91 
4 91 71 72 92 
4 92 72 73 93 
4 93 73 74 94 
4 94 74 75 95 
4 95 75 76 96 
4 96 76 77 97 
4 97 77 78 98 
4 98 78 79 99 
4 100 80 81 101 
4 101 81 82 102 
4 102 82 83 103 
4 103 83 84 104 
4 104 84 85 105 
4 105 85 86 106 
4 106 86 87 107 
4 107 87 88 108 
4 108 88 89 109 
4 109 89 90 110 
4 110 90 91 111 
4 111 91 92 112 
4 112 92 93 113 
4 113 93 94 114 
4 114 94 95 115 
4 115 95 96 116 
4 116 96 97 117 
4 117 97 98 118 
4 118 98 99 119 
4 120 100 101 121 
4 121 101 102 122 
4 122 102 103 123 
4 123 103 104 124 
4 124 104 105 125 
4 125 105 106 126 
4 126 106 107 127 
4 127 107 108 128 
4 128 108 109 129 
4 129 109 110 130 
4 130 110 111 131 
4 131 111 112 132 
4 132 112 113 133 
4 133 113 114 134 
4 134 114 115 135 
4 135 115 116 136 
4 136 116 117 137 
4 137 117 118 138 
4 138 118 119 139 
4 140 120 121 141 
4 141 121 122 142 
4 142 122 123 143 
4 143 123 124 144 
4 144 124 125 145 
4 145 125 126 146 
4 146 126 127 147 
4 147 127 128 148 
4 148 128 129 149 
4 149 129 130 150 
4 150 130 131 151 
4 151 131 132 152 
4 152 132 133 153 
4 153 133 134 154 
4 154 134 135 155 
4 155 135 136 156 
4 156 136 137 157 
4 157 137 138 158 
4 158 138 139 159 
4 160 140 141 161 
4 161 141 142 162 
4 162 142 143 163 
4 163 143 144 164 
4 164 144 145 165 
4 165 145 146 166 
4 166 146 147 167 
4 167 147 148 168 
4 168 148 149 169 
4 169 149 150 170 
4 170 150 151 171 
4 171 151 152 172 
4 172 152 153 173 
4 173 153 154 174 
4 174 154 155 175 
4 175 155 156 176 
4 176 156 157 177 
4 177 157 158 178 
4 178 158 159 179 

CELL_TYPES 152
9
9
9
9
9
9
9
9
9
9
9
9
9
9
9
9
9
9
9
9
9
9
9
9
9
9
9
9
9
9
9
9
9
9
9
9
9
9
9
9
9
9
9
9
9
9
9
9
9
9
9
9
9
9
9
9
9
9
9
9
9
9
9
9
9
9
9
9
9
9
9
9
9
9
9
9
9
9
9
9
9
9
9
9
9
9
9
9
9
9
9
9
9
9
9
9
9
9
9
9
9
9
9
9
9
9
9
9
9
9
9
9
9
9
9
9
9
9
9
9
9
9
9
9
9
9
9
9
9
9
9
9
9
9
9
9
9
9
9
9
9
9
9
9
9
9
9
9
9
9
9
9

CELL_DATA 152
SCALARS Mu double 1
LOOKUP_TABLE default
-0.388429
-0.434839
-0.445113
-0.448285
-0.449531
-0.450112
-0.450415
-0.45058
-0.450664
-0.450691
-0.450664
-0.45058
-0.450415
-0.450112
-0.449531
-0.448285
-0.445113
-0.434839
-0.388429
-0.510131
-0.594683
-0.616974
-0.624665
-0.627855
-0.629376
-0.630171
-0.630603
-0.630824
-0.630893
-0.630827
-0.630608
-0.630178
-0.629383
-0.627864
-0.624669
-0.616953
-0.594531
-0.509768
-0.565402
-0.676259
-0.708906
-0.721304
-0.726769
-0.729481
-0.73093
-0.731726
-0.732133
-0.732261
-0.732142
-0.731746
-0.730963
-0.729527
-0.726831
-0.721339
-0.708845
-0.676044
-0.567553
-0.5965
-0.724128
-0.764294
-0.780705
-0.788374
-0.792329
-0.794491
-0.79569
-0.796305
-0.796497
-0.796315
-0.795713
-0.794527
-0.792381
-0.788441
-0.780711
-0.764093
-0.72369
-0.599882
-0.616157
-0.754595
-0.800147
-0.819703
-0.829262
-0.834366
-0.837218
-0.838823
-0.839649
-0.839907
-0.839656
-0.838838
-0.837242
-0.834395
-0.829287
-0.81961
-0.799729
-0.753863
-0.620006
-0.629462
-0.77515
-0.824573
-0.846525
-0.857613
-0.863703
-0.867176
-0.869157
-0.870184
-0.870502
-0.870184
-0.869157
-0.867173
-0.863686
-0.85756
-0.846289
-0.823906
-0.774108
-0.633433
-0.63891
-0.789621
-0.841854
-0.865629
-0.87793
-0.884838
-0.888843
-0.891155
-0.892362
-0.892735
-0.892353
-0.891135
-0.888804
-0.884767
-0.877784
-0.865235
-0.840944
-0.78829
-0.642855

