# vtk DataFile Version 2.0
OUTPUT by 3D-VPM
ASCII
DATASET UNSTRUCTURED_GRID
POINTS 1740 double
8.547847e+01	1.015535e+00	-3.255240e+00
8.483354e+01	2.168429e+00	-1.690197e+00
8.610218e+01	2.329561e+00	-2.594301e+00
8.543779e+01	3.373204e+00	-2.658569e+00
8.550748e+01	4.460049e+00	-1.861797e+00
8.582258e+01	5.526582e+00	-1.759444e+00
8.576976e+01	6.531901e+00	-1.752090e+00
8.567981e+01	7.509010e+00	-1.591205e+00
8.571413e+01	8.501248e+00	-1.511906e+00
8.571241e+01	9.500507e+00	-1.505455e+00
8.571238e+01	1.050032e+01	-1.505520e+00
8.571404e+01	1.149967e+01	-1.512114e+00
8.567962e+01	1.249213e+01	-1.591547e+00
8.576924e+01	1.346972e+01	-1.752579e+00
8.582145e+01	1.447580e+01	-1.760653e+00
8.550782e+01	1.554534e+01	-1.863462e+00
8.543435e+01	1.665035e+01	-2.655892e+00
8.605211e+01	1.770660e+01	-2.622346e+00
8.494613e+01	1.788675e+01	-1.592834e+00
8.489652e+01	1.830262e+01	-3.322562e+00
8.463551e+01	1.166780e+00	-3.606065e+00
8.467591e+01	1.479852e+00	-9.286256e-01
8.478050e+01	2.479064e+00	-3.781729e+00
8.400563e+01	3.570841e+00	-2.028859e+00
8.423115e+01	4.584412e+00	-1.346790e+00
8.432873e+01	5.536173e+00	-1.549049e+00
8.420559e+01	6.469929e+00	-1.322184e+00
8.419610e+01	7.478274e+00	-1.213463e+00
8.419342e+01	8.485166e+00	-1.187778e+00
8.418439e+01	9.493291e+00	-1.167587e+00
8.418440e+01	1.050733e+01	-1.167669e+00
8.419345e+01	1.151554e+01	-1.188042e+00
8.419617e+01	1.252264e+01	-1.213968e+00
8.420576e+01	1.353140e+01	-1.323144e+00
8.432911e+01	1.446605e+01	-1.550946e+00
8.423176e+01	1.541822e+01	-1.351118e+00
8.401212e+01	1.643443e+01	-2.040049e+00
8.471761e+01	1.755005e+01	-3.747285e+00
8.466382e+01	1.848400e+01	-9.100016e-01
8.503068e+01	1.892617e+01	-3.589894e+00
8.351183e+01	1.634181e+00	-2.349375e+00
8.317905e+01	1.020765e+00	-3.213055e+00
8.517655e+01	6.020836e-01	-2.552777e+00
8.501341e+01	2.612284e+00	-2.423087e+00
8.601146e+01	3.606709e+00	-1.348990e+00
8.658097e+01	5.002141e+00	-1.135151e+00
8.631410e+01	6.188348e+00	-8.569915e-01
8.628919e+01	7.253228e+00	-6.970093e-01
8.627443e+01	8.367451e+00	-6.031406e-01
8.623824e+01	9.459438e+00	-5.629498e-01
8.623823e+01	1.054105e+01	-5.630353e-01
8.627442e+01	1.163305e+01	-6.034253e-01
8.628923e+01	1.274733e+01	-6.975618e-01
8.631414e+01	1.381236e+01	-8.580089e-01
8.658046e+01	1.499862e+01	-1.137088e+00
8.600922e+01	1.639693e+01	-1.351882e+00
8.503292e+01	1.744074e+01	-2.424588e+00
8.539723e+01	1.963139e+01	-2.572983e+00
8.321020e+01	1.902091e+01	-3.231614e+00
8.351164e+01	1.838665e+01	-2.346261e+00
8.239846e+01	3.373719e-01	-2.393851e+00
8.251479e+01	1.457482e+00	-3.043454e+00
8.400783e+01	-4.267887e-01	-2.931199e+00
8.425840e+01	2.145416e+00	-4.824203e+00
8.471697e+01	3.920251e+00	-4.580942e+00
8.494777e+01	5.147151e+00	-4.330096e+00
8.506497e+01	6.272940e+00	-4.158238e+00
8.513972e+01	7.359450e+00	-4.028691e+00
8.518303e+01	8.421002e+00	-3.945375e+00
8.520226e+01	9.474331e+00	-3.906258e+00
8.520228e+01	1.052635e+01	-3.906283e+00
8.518310e+01	1.157982e+01	-3.945444e+00
8.513986e+01	1.264171e+01	-4.028762e+00
8.506520e+01	1.372893e+01	-4.158185e+00
8.494859e+01	1.485622e+01	-4.329354e+00
8.472015e+01	1.608566e+01	-4.576606e+00
8.427178e+01	1.785380e+01	-4.807352e+00
8.399837e+01	2.045065e+01	-2.955573e+00
8.252070e+01	1.852516e+01	-3.045288e+00
8.243362e+01	1.965382e+01	-2.381512e+00
8.151286e+01	1.700117e-01	-2.078543e+00
8.146368e+01	1.746027e+00	-1.854135e+00
8.262059e+01	-9.953585e-01	-2.736942e+00
8.252198e+01	1.764657e+00	-4.938157e+00
8.271998e+01	3.702239e+00	-4.927065e+00
8.289830e+01	5.068789e+00	-4.738779e+00
8.300869e+01	6.239566e+00	-4.578486e+00
8.307492e+01	7.340330e+00	-4.463224e+00
8.311306e+01	8.412124e+00	-4.389965e+00
8.313061e+01	9.471852e+00	-4.354700e+00
8.313070e+01	1.052859e+01	-4.354762e+00
8.311337e+01	1.158837e+01	-4.390162e+00
8.307558e+01	1.266029e+01	-4.463565e+00
8.300992e+01	1.376121e+01	-4.578944e+00
8.290096e+01	1.493204e+01	-4.739349e+00
8.272553e+01	1.629715e+01	-4.926702e+00
8.252872e+01	1.822528e+01	-4.938395e+00
8.261830e+01	2.099901e+01	-2.769718e+00
8.146653e+01	1.825399e+01	-1.853505e+00
8.152616e+01	1.982289e+01	-2.070053e+00
8.070160e+01	2.569929e-01	-1.708501e+00
8.050081e+01	1.313307e+00	-2.238832e+00
8.145009e+01	-1.302841e+00	-2.720070e+00
8.121486e+01	1.570092e+00	-4.888304e+00
8.130680e+01	3.551752e+00	-4.912938e+00
8.142320e+01	4.978910e+00	-4.742208e+00
8.150813e+01	6.189657e+00	-4.584391e+00
8.156297e+01	7.312520e+00	-4.468181e+00
8.159534e+01	8.397864e+00	-4.394001e+00
8.161044e+01	9.467394e+00	-4.358214e+00
8.161054e+01	1.053275e+01	-4.358306e+00
8.159567e+01	1.160226e+01	-4.394297e+00
8.156363e+01	1.268752e+01	-4.468715e+00
8.150925e+01	1.381015e+01	-4.585175e+00
8.142532e+01	1.502024e+01	-4.743452e+00
8.131026e+01	1.644519e+01	-4.913798e+00
8.121717e+01	1.841930e+01	-4.888860e+00
8.144451e+01	2.129851e+01	-2.753512e+00
8.050485e+01	1.869078e+01	-2.251243e+00
8.071054e+01	1.973934e+01	-1.711193e+00
7.984151e+01	-4.555914e-02	-1.524606e+00
7.974130e+01	1.299528e+00	-2.186164e+00
8.024298e+01	-1.474331e+00	-2.579590e+00
8.006035e+01	1.451633e+00	-4.778165e+00
8.011131e+01	3.455532e+00	-4.815134e+00
8.018887e+01	4.912250e+00	-4.645516e+00
8.025144e+01	6.147345e+00	-4.484493e+00
8.029472e+01	7.287176e+00	-4.364634e+00
8.032131e+01	8.384387e+00	-4.287848e+00
8.033397e+01	9.463103e+00	-4.250751e+00
8.033406e+01	1.053681e+01	-4.250853e+00
8.032159e+01	1.161545e+01	-4.288169e+00
8.029523e+01	1.271248e+01	-4.365195e+00
8.025225e+01	1.385190e+01	-4.485312e+00
8.019025e+01	1.508614e+01	-4.646736e+00
8.011329e+01	1.654065e+01	-4.815590e+00
8.006124e+01	1.853760e+01	-4.777247e+00
8.023916e+01	2.146539e+01	-2.610302e+00
7.974647e+01	1.869529e+01	-2.189011e+00
7.984858e+01	2.003894e+01	-1.525359e+00
7.888172e+01	1.683768e-02	-1.552493e+00
7.885656e+01	1.452452e+00	-1.942636e+00
7.912102e+01	-1.522615e+00	-2.282617e+00
7.898469e+01	1.370092e+00	-4.647876e+00
7.901682e+01	3.391007e+00	-4.694546e+00
7.907049e+01	4.864747e+00	-4.522178e+00
7.911641e+01	6.114681e+00	-4.356506e+00
7.914981e+01	7.266329e+00	-4.232600e+00
7.917107e+01	8.372853e+00	-4.153030e+00
7.918140e+01	9.459368e+00	-4.114545e+00
7.918147e+01	1.054037e+01	-4.114639e+00
7.917127e+01	1.162679e+01	-4.153317e+00
7.915017e+01	1.273308e+01	-4.233072e+00
7.911697e+01	1.388428e+01	-4.357258e+00
7.907138e+01	1.513334e+01	-4.523132e+00
7.901802e+01	1.660491e+01	-4.694147e+00
7.898515e+01	1.861893e+01	-4.645476e+00
7.911907e+01	2.151459e+01	-2.315329e+00
7.885902e+01	1.854192e+01	-1.940272e+00
7.888850e+01	1.997600e+01	-1.555043e+00
7.796445e+01	1.788235e-01	-1.358289e+00
7.790832e+01	1.430319e+00	-1.854431e+00
7.809250e+01	-1.515323e+00	-2.064692e+00
7.795395e+01	1.314362e+00	-4.518499e+00
7.797383e+01	3.347704e+00	-4.573212e+00
7.801164e+01	4.831772e+00	-4.397567e+00
7.804539e+01	6.090726e+00	-4.227576e+00
7.807083e+01	7.250264e+00	-4.100020e+00
7.808748e+01	8.363650e+00	-4.017944e+00
7.809572e+01	9.456339e+00	-3.978203e+00
7.809577e+01	1.054328e+01	-3.978271e+00
7.808762e+01	1.163587e+01	-4.018133e+00
7.807107e+01	1.274903e+01	-4.100322e+00
7.804574e+01	1.390810e+01	-4.228032e+00
7.801223e+01	1.516622e+01	-4.398043e+00
7.797466e+01	1.664813e+01	-4.571942e+00
7.795434e+01	1.867437e+01	-4.514861e+00
7.809110e+01	2.150846e+01	-2.098466e+00
7.790928e+01	1.856555e+01	-1.852938e+00
7.796970e+01	1.981244e+01	-1.358210e+00
7.702400e+01	1.355153e-01	-1.236530e+00
7.699019e+01	1.443031e+00	-1.776171e+00
7.706964e+01	-1.498887e+00	-1.915824e+00
7.694761e+01	1.281583e+00	-4.401357e+00
7.695779e+01	3.320541e+00	-4.459869e+00
7.698425e+01	4.809998e+00	-4.280928e+00
7.700907e+01	6.073995e+00	-4.107542e+00
7.702825e+01	7.238575e+00	-3.977037e+00
7.704097e+01	8.356772e+00	-3.892650e+00
7.704741e+01	9.454041e+00	-3.851773e+00
7.704744e+01	1.054550e+01	-3.851773e+00
7.704105e+01	1.164271e+01	-3.892542e+00
7.702825e+01	1.276064e+01	-3.976564e+00
7.700912e+01	1.392468e+01	-4.107046e+00
7.698454e+01	1.518784e+01	-4.280129e+00
7.695837e+01	1.667513e+01	-4.457239e+00
7.694804e+01	1.870687e+01	-4.396655e+00
7.706879e+01	2.149255e+01	-1.949849e+00
7.699143e+01	1.855182e+01	-1.772481e+00
7.702801e+01	1.985781e+01	-1.235606e+00
7.607087e+01	1.517879e-01	-1.232994e+00
7.605037e+01	1.501292e+00	-1.668380e+00
7.605356e+01	-1.462480e+00	-1.787944e+00
7.595208e+01	1.266870e+00	-4.299145e+00
7.595540e+01	3.306059e+00	-4.357045e+00
7.597352e+01	4.797063e+00	-4.174555e+00
7.599132e+01	6.063510e+00	-3.995531e+00
7.600564e+01	7.230735e+00	-3.862673e+00
7.601559e+01	8.351886e+00	-3.779381e+00
7.602054e+01	9.452394e+00	-3.737832e+00
7.602058e+01	1.054711e+01	-3.737736e+00
7.601562e+01	1.164751e+01	-3.779109e+00
7.600587e+01	1.276852e+01	-3.864734e+00
7.599155e+01	1.393534e+01	-3.997293e+00
7.597373e+01	1.520069e+01	-4.172995e+00
7.595590e+01	1.668950e+01	-4.353447e+00
7.595251e+01	1.872135e+01	-4.293475e+00
7.605288e+01	2.145688e+01	-1.822179e+00
7.605118e+01	1.849252e+01	-1.662066e+00
7.607365e+01	1.984197e+01	-1.232516e+00
7.511034e+01	2.003730e-01	-1.176311e+00
7.508944e+01	1.543948e+00	-1.566976e+00
7.504978e+01	-1.419809e+00	-1.696433e+00
7.496098e+01	1.265415e+00	-4.210321e+00
7.495958e+01	3.301355e+00	-4.264463e+00
7.497155e+01	4.791070e+00	-4.078424e+00
7.498434e+01	6.057725e+00	-3.896180e+00
7.499498e+01	7.225885e+00	-3.761223e+00
7.500251e+01	8.348700e+00	-3.677559e+00
7.500628e+01	9.451303e+00	-3.635826e+00
7.500630e+01	1.054815e+01	-3.635688e+00
7.500250e+01	1.165058e+01	-3.677513e+00
7.499517e+01	1.277334e+01	-3.764755e+00
7.498456e+01	1.394132e+01	-3.899146e+00
7.497179e+01	1.520678e+01	-4.077018e+00
7.496006e+01	1.669422e+01	-4.260560e+00
7.496148e+01	1.872269e+01	-4.203810e+00
7.504864e+01	2.141399e+01	-1.730019e+00
7.509077e+01	1.844909e+01	-1.558719e+00
7.511227e+01	1.979012e+01	-1.172460e+00
7.413232e+01	2.550518e-01	-1.138094e+00
7.412854e+01	1.589608e+00	-1.464512e+00
7.404769e+01	-1.373657e+00	-1.633125e+00
7.397176e+01	1.274161e+00	-4.133231e+00
7.396664e+01	3.304084e+00	-4.181013e+00
7.397407e+01	4.790276e+00	-3.991462e+00
7.398328e+01	6.055223e+00	-3.809662e+00
[...]
CELL_DATA 1634
SCALARS Mu double 1
LOOKUP_TABLE default
-0.388429
-0.434839
-0.445113
-0.448285
-0.449531
-0.450112
-0.450415
-0.45058
-0.450664
-0.450691
-0.450664
-0.45058
-0.450415
-0.450112
-0.449531
-0.448285
-0.445113
-0.434839
-0.388429
-0.510131
-0.594683
-0.616974
-0.624665
-0.627855
-0.629376
-0.630171
-0.630603
-0.630824
-0.630893
-0.630827
-0.630608
-0.630178
-0.629383
-0.627864
-0.624669
-0.616953
-0.594531
-0.509768
-0.565402
-0.676259
-0.708906
-0.721304
-0.726769
-0.729481
-0.73093
-0.731726
-0.732133
-0.732261
-0.732142
-0.731746
-0.730963
-0.729527
-0.726831
-0.721339
-0.708845
-0.676044
-0.567553
-0.5965
-0.724128
-0.764294
-0.780705
-0.788374
-0.792329
-0.794491
-0.79569
-0.796305
-0.796497
-0.796315
-0.795713
-0.794527
-0.792381
-0.788441
-0.780711
-0.764093
-0.72369
-0.599882
-0.616157
-0.754595
-0.800147
-0.819703
-0.829262
-0.834366
-0.837218
-0.838823
-0.839649
-0.839907
-0.839656
-0.838838
-0.837242
-0.834395
-0.829287
-0.81961
-0.799729
-0.753863
-0.620006
-0.629462
-0.77515
-0.824573
-0.846525
-0.857613
-0.863703
-0.867176
-0.869157
-0.870184
-0.870502
-0.870184
-0.869157
-0.867173
-0.863686
-0.85756
-0.846289
-0.823906
-0.774108
-0.633433
-0.63891
-0.789621
-0.841854
-0.865629
-0.87793
-0.884838
-0.888843
-0.891155
-0.892362
-0.892735
-0.892353
-0.891135
-0.888804
-0.884767
-0.877784
-0.865235
-0.840944
-0.78829
-0.642855
-0.645861
-0.800146
-0.854446
-0.879611
-0.892871
-0.900442
-0.904899
-0.907495
-0.908859
-0.909278
-0.908838
-0.907451
-0.904819
-0.900312
-0.892624
-0.879062
-0.853314
-0.798557
-0.649722
-0.651118
-0.808004
-0.863847
-0.890074
-0.904089
-0.912208
-0.917035
-0.91987
-0.921366
-0.921824
-0.921333
-0.919799
-0.916913
-0.912002
-0.903739
-0.889378
-0.86252
-0.80619
-0.654877
-0.655184
-0.813999
-0.871014
-0.898055
-0.91267
-0.921219
-0.926358
-0.929393
-0.931
-0.93149
-0.930954
-0.929291
-0.926181
-0.920941
-0.912171
-0.897221
-0.869514
-0.811993
-0.658841
-0.658388
-0.818659
-0.87657
-0.904239
-0.919324
-0.928202
-0.933353
-0.936781
-0.938511
-0.939032
-0.938454
-0.936687
-0.933422
-0.927882
-0.918774
-0.903285
-0.874921
-0.816489
-0.661948
-0.660949
-0.822338
-0.88094
-0.909098
-0.924554
-0.933726
-0.939242
-0.942613
-0.944431
-0.944972
-0.944365
-0.94251
-0.939127
-0.933362
-0.923934
-0.908042
-0.879166
-0.820031
-0.664423
-0.663021
-0.825283
-0.884419
-0.91296
-0.928706
-0.938104
-0.943837
-0.947298
-0.94915
-0.949712
-0.94908
-0.947156
-0.943615
-0.937678
-0.92802
-0.911817
-0.882541
-0.82286
-0.666419
-0.664715
-0.827667
-0.887216
-0.916056
-0.932031
-0.941591
-0.947475
-0.951026
-0.95292
-0.953498
-0.952849
-0.950851
-0.947181
-0.941111
-0.931284
-0.91484
-0.885252
-0.825147
-0.668047
-0.666097
-0.829594
-0.889464
-0.918544
-0.934709
-0.944423
-0.950403
-0.954048
-0.955985
-0.956559
-0.955888
-0.953846
-0.950085
-0.943903
-0.933924
-0.917287
-0.887452
-0.827017
-0.669388
-0.667253
-0.831199
-0.891318
-0.920587
-0.936901
-0.946741
-0.952803
-0.956494
-0.958367
-0.959029
-0.958341
-0.955882
-0.952377
-0.946158
-0.93607
-0.919281
-0.889251
-0.828559
-0.670503
-0.668225
-0.832528
-0.892849
-0.922268
-0.938724
-0.948632
-0.95476
-0.958469
-0.960483
-0.961076
-0.960326
-0.958144
-0.954299
-0.947591
-0.937793
-0.920911
-0.890737
-0.829835
-0.671435
-0.669047
-0.833641
-0.894119
-0.923653
-0.940183
-0.950182
-0.956367
-0.960143
-0.962458
-0.963208
-0.962042
-0.959854
-0.955938
-0.949468
-0.93926
-0.922276
-0.89198
-0.830914
-0.672233
-0.669767
-0.834672
-0.895229
-0.924909
-0.941505
-0.951463
-0.957689
-0.96148
-0.963593
-0.96431
-0.963546
-0.961351
-0.957315
-0.950829
-0.940496
-0.923416
-0.893019
-0.831825
-0.672916
-0.670312
-0.835344
-0.896019
-0.925722
-0.942395
-0.952498
-0.958791
-0.962623
-0.964705
-0.965348
-0.964681
-0.962445
-0.958452
-0.951955
-0.941544
-0.924384
-0.893894
-0.832588
-0.673485
-0.670778
-0.835965
-0.896752
-0.926487
-0.943239
-0.953408
-0.959746
-0.963602
-0.965689
-0.966309
-0.965575
-0.963436
-0.959372
-0.952866
-0.942406
-0.9252
-0.894666
-0.833238
-0.673966
-0.671201
-0.836527
-0.897403
-0.927221
-0.943991
-0.954198
-0.960565
-0.964442
-0.966536
-0.96716
-0.966427
-0.964225
-0.960186
-0.953631
-0.94313
-0.925872
-0.895265
-0.833767
-0.674364
-0.671574
-0.837024
-0.897976
-0.927847
-0.944655
-0.954893
-0.961277
-0.965168
-0.967284
-0.96792
-0.96719
-0.964957
-0.96089
-0.954257
-0.943745
-0.926479
-0.895817
-0.834246
-0.674719
-0.671901
-0.837465
-0.898476
-0.928371
-0.945229
-0.955506
-0.961918
-0.965836
-0.967943
-0.9686
-0.967847
-0.965649
-0.961531
-0.954898
-0.944353
-0.927025
-0.896261
-0.834667
-0.67503
-0.672181
-0.837848
-0.89886
-0.928876
-0.945762
-0.956053
-0.96248
-0.966416
-0.968528
-0.96916
-0.968423
-0.96618
-0.96197
-0.955345
-0.944872
-0.92751
-0.896732
-0.835035
-0.675302
-0.672432
-0.838191
-0.899304
-0.929302
-0.946225
-0.956537
-0.962983
-0.966931
-0.969046
-0.969698
-0.968958
-0.966693
-0.962563
-0.955913
-0.945337
-0.927944
-0.897097
-0.835372
-0.675543
-0.67265
-0.838473
-0.899433
-0.929681
-0.946642
-0.956974
-0.963416
-0.967382
-0.969528
-0.970182
-0.969434
-0.967162
-0.963034
-0.95637
-0.945756
-0.928334
-0.897476
-0.835673
-0.675758
-0.672843
-0.838734
-0.899801
-0.930017
-0.94701
-0.957366
-0.963823
-0.96782
-0.969982
-0.970669
-0.969866
-0.967549
-0.963444
-0.956781
-0.946143
-0.928686
-0.89776
-0.835933
-0.675947
-0.673019
-0.838981
-0.900132
-0.930327
-0.947327
-0.957681
-0.964209
-0.968202
-0.970361
-0.971052
-0.970207
-0.967921
-0.963822
-0.957088
-0.946483
-0.928995
-0.898061
-0.836171
-0.676117
-0.673184
-0.839214
-0.900475
-0.930633
-0.947652
-0.958038
-0.964544
-0.968532
-0.9707
-0.971412
-0.970585
-0.968296
-0.964105
-0.957431
-0.946776
-0.929278
-0.898315
-0.836391
-0.676271
-0.673336
-0.839438
-0.900733
-0.930907
-0.947952
-0.958539
-0.96489
-0.96909
-0.971099
-0.971747
-0.971032
-0.968664
-0.964525
-0.957764
-0.947021
-0.929528
-0.898543
-0.836589
-0.676412
-0.673093
-0.832934
-0.900547
-0.931022
-0.948003
-0.95862
-0.965148
-0.969415
-0.971412
-0.972045
-0.971313
-0.969027
-0.965407
-0.958068
-0.947317
-0.929762
-0.898751
-0.83677
-0.676538
-0.673109
-0.838233
-0.900522
-0.931105
-0.948293
-0.958806
-0.965382
-0.969683
-0.971677
-0.972301
-0.971567
-0.969306
-0.965783
-0.95836
-0.947568
-0.929975
-0.898935
-0.83693
-0.676652
-0.673397
-0.839334
-0.900867
-0.931315
-0.948502
-0.959012
-0.965615
-0.970051
-0.972024
-0.97254
-0.971793
-0.969506
-0.96541
-0.958569
-0.947775
-0.930156
-0.899072
-0.83707
-0.676757
-0.673604
-0.839754
-0.901216
-0.931532
-0.948696
-0.959212
-0.965862
-0.970156
-0.972154
-0.972747
-0.971998
-0.969691
-0.965496
-0.958798
-0.947957
-0.930312
-0.899211
-0.837196
-0.676852
-0.673756
-0.839992
-0.901407
-0.931681
-0.948861
-0.959426
-0.966021
-0.970411
-0.972329
-0.972929
-0.972154
-0.969843
-0.965629
-0.958887
-0.948089
-0.930449
-0.899337
-0.83731
-0.676936
-0.673875
-0.840163
-0.901591
-0.931873
-0.949026
-0.959545
-0.966179
-0.970492
-0.972491
-0.973094
-0.972311
-0.970005
-0.965796
-0.959061
-0.948218
-0.930574
-0.899452
-0.83741
-0.677013
-0.673972
-0.840299
-0.90173
-0.932019
-0.949157
-0.959648
-0.966291
-0.970629
-0.972706
-0.973241
-0.972472
-0.970159
-0.965913
-0.959131
-0.948335
-0.93073
-0.899558
-0.837505
-0.677083
-0.674055
-0.840414
-0.901851
-0.932148
-0.949367
-0.959803
-0.966422
-0.970753
-0.972774
-0.973387
-0.972691
-0.970305
-0.966032
-0.95925
-0.948466
-0.930802
-0.899682
-0.837596
-0.677151
-0.67413
-0.840515
-0.901958
-0.932259
-0.94945
-0.959925
-0.966547
-0.97095
-0.972724
-0.973462
-0.972732
-0.970365
-0.96615
-0.959404
-0.948576
-0.930894
-0.899772
-0.837678
-0.677212
-0.674198
-0.840603
-0.90205
-0.932345
-0.94942
-0.960026
-0.966664
-0.970992
-0.972961
-0.973695
-0.972848
-0.970146
-0.966318
-0.959473
-0.948614
-0.930956
-0.899821
-0.837742
-0.677265
-0.674258
-0.84068
-0.902131
-0.932425
-0.949485
-0.960115
-0.966749
-0.971085
-0.973081
-0.973718
-0.972906
-0.970484
-0.966326
-0.959536
-0.948734
-0.93109
-0.899936
-0.83783
-0.677332
-0.67431
-0.84075
-0.902206
-0.932504
-0.949582
-0.96021
-0.967018
-0.971233
-0.973196
-0.973804
-0.973005
-0.970645
-0.966413
-0.959631
-0.948933
-0.93116
-0.900019
-0.837902
-0.677385
-0.674361
-0.840818
-0.902278
-0.932589
-0.949749
-0.960329
-0.966975
-0.971287
-0.973286
-0.973891
-0.973088
-0.970748
-0.966503
-0.959712
-0.948919
-0.931231
-0.90009
-0.837968
-0.677434
-0.674408
-0.84088
-0.902346
-0.932665
-0.949841
-0.960414
-0.967024
-0.97135
-0.973367
-0.974031
-0.97314
-0.970837
-0.966663
-0.959791
-0.948975
-0.931295
-0.900155
-0.838031
-0.67748
-0.67445
-0.840931
-0.902395
-0.932701
-0.949911
-0.960555
-0.967096
-0.971419
-0.973434
-0.974045
-0.973248
-0.970958
-0.966758
-0.959867
-0.949038
-0.931354
-0.900214
-0.838086
-0.677522
-0.674494
-0.840983
-0.902448
-0.932754
-0.949967
-0.960535
-0.967169
-0.971481
-0.973485
-0.974101
-0.973326
-0.971033
-0.966759
-0.959927
-0.949097
-0.931411
-0.900268
-0.838137
-0.677563
-0.674532
-0.841035
-0.902512
-0.932835
-0.950032
-0.96057
-0.96722
-0.971574
-0.973597
-0.974172
-0.973392
-0.971098
-0.966815
-0.959977
-0.949151
-0.931465
-0.90032
-0.838186
-0.677601
-0.674563
-0.841077
-0.902561
-0.932881
-0.949981
-0.960609
-0.967262
-0.971636
-0.973667
-0.974236
-0.973453
-0.971158
-0.966875
-0.960066
-0.949221
-0.931526
-0.90037
-0.838231
-0.677636
-0.674597
-0.841121
-0.902607
-0.932929
-0.950109
-0.960653
-0.967309
-0.971687
-0.973721
-0.974284
-0.973456
-0.97113
-0.966912
-0.960116
-0.949275
-0.931577
-0.900417
-0.838273
-0.677668
-0.674628
-0.841162
-0.90265
-0.932977
-0.95017
-0.960703
-0.967357
-0.971735
-0.973766
-0.974328
-0.973492
-0.971168
-0.967092
-0.960134
-0.949308
-0.931614
-0.900459
-0.838313
-0.677699
-0.674656
-0.8412
-0.902692
-0.933023
-0.950252
-0.960752
-0.967403
-0.971781
-0.973811
-0.974371
-0.973531
-0.971212
-0.967153
-0.960184
-0.949349
-0.931655
-0.900498
-0.83835
-0.677728
-0.674684
-0.841236
-0.902732
-0.933066
-0.950302
-0.960796
-0.967442
-0.971794
-0.973849
-0.974408
-0.973574
-0.971267
-0.967281
-0.960261
-0.949395
-0.931694
-0.900536
-0.838385
-0.677755
-0.67471
-0.84127
-0.90277
-0.933108
-0.950345
-0.960838
-0.967482
-0.971834
-0.973904
-0.974506
-0.973629
-0.97135
-0.967322
-0.960292
-0.949434
-0.931732
-0.900572
-0.838419
-0.677781
-0.674735
-0.841302
-0.902806
-0.933151
-0.950391
-0.960933
-0.967553
-0.971876
-0.973897
-0.974498
-0.973663
-0.97135
-0.967205
-0.960267
-0.949464
-0.931766
-0.900606
-0.83845
-0.677805
-0.674759
-0.841335
-0.902839
-0.933187
-0.950428
-0.960939
-0.967594
-0.971912
-0.973932
-0.974602
-0.973733
-0.971418
-0.967176
-0.960304
-0.949493
-0.931798
-0.900637
-0.838479
-0.677828
-0.674781
-0.841364
-0.90287
-0.933216
-0.950411
-0.960962
-0.967628
-0.971945
-0.973957
-0.974573
-0.973748
-0.971466
-0.967192
-0.960335
-0.949592
-0.931833
-0.900668
-0.838507
-0.67785
-0.674804
-0.84139
-0.902899
-0.933245
-0.950432
-0.96099
-0.967662
-0.972023
-0.973995
-0.974628
-0.973778
-0.971495
-0.96722
-0.960368
-0.949636
-0.931868
-0.900698
-0.838534
-0.677869
-0.674824
-0.841417
-0.902924
-0.933269
-0.950456
-0.961015
-0.96769
-0.97206
-0.97402
-0.97463
-0.973798
-0.971486
-0.967243
-0.960397
-0.949669
-0.931899
-0.900726
-0.838559
-0.677889
-0.674839
-0.841437
-0.902946
-0.933288
-0.950481
-0.961041
-0.967719
-0.972119
-0.974049
-0.974651
-0.973817
-0.971502
-0.967263
-0.960396
-0.949697
-0.931927
-0.900752
-0.838583
-0.677907
-0.674856
-0.841458
-0.90297
-0.933315
-0.950521
-0.961071
-0.96775
-0.972159
-0.974092
-0.974728
-0.973845
-0.971524
-0.967276
-0.960413
-0.949721
-0.931953
-0.900777
-0.838606
-0.677925
-0.674876
-0.841481
-0.902995
-0.93334
-0.95055
-0.961098
-0.967774
-0.97216
-0.974122
-0.974765
-0.973875
-0.971551
-0.967298
-0.960435
-0.949745
-0.931976
-0.9008
-0.838627
-0.677942
-0.67489
-0.841502
-0.903017
-0.933365
-0.950565
-0.961167
-0.967803
-0.972182
-0.974148
-0.974794
-0.973902
-0.971577
-0.967322
-0.960459
-0.949779
-0.932001
-0.900822
-0.838648
-0.677958
-0.674906
-0.841521
-0.903038
-0.933388
-0.950589
-0.961201
-0.967837
-0.972208
-0.974173
-0.974819
-0.973926
-0.9716
-0.967343
-0.960476
-0.949733
-0.932018
-0.900842
-0.838667
-0.677973
-0.674921
-0.841543
-0.903059
-0.933409
-0.950609
-0.961185
-0.967865
-0.972259
-0.974629
-0.974899
-0.973964
-0.971643
-0.967457
-0.961978
-0.949833
-0.932052
-0.900866
-0.838687
-0.677988
-0.674935
-0.841562
-0.903079
-0.93343
-0.950629
-0.961202
-0.967896
-0.972312
-0.974752
-0.97497
-0.974015
-0.971713
-0.967635
-0.962331
-0.949975
-0.93211
-0.900898
-0.83871
-0.678004
-0.674949
-0.841579
-0.903098
-0.93345
-0.950651
-0.961225
-0.967926
-0.972352
-0.97481
-0.975024
-0.974065
-0.971777
-0.967727
-0.962467
-0.950076
-0.932165
-0.900932
-0.838734
-0.678021
-0.674962
-0.841596
-0.903116
-0.933469
-0.950671
-0.961246
-0.967948
-0.972359
-0.974421
-0.975038
-0.974101
-0.971824
-0.96779
-0.962543
-0.950139
-0.932207
-0.900963
-0.838762
-0.678038
-0.674975
-0.841612
-0.903133
-0.933486
-0.950689
-0.961264
-0.967961
-0.972357
-0.974359
-0.975035
-0.974123
-0.971858
-0.967834
-0.962594
-0.950183
-0.932241
-0.90099
-0.838784
-0.678053
-0.674986
-0.841627
-0.903149
-0.933503
-0.950705
-0.961279
-0.967973
-0.972365
-0.974354
-0.97504
-0.974142
-0.971885
-0.967867
-0.962631
-0.950216
-0.932268
-0.901014
-0.838804
-0.678068
-0.674997
-0.841641
-0.903165
-0.933518
-0.950721
-0.961294
-0.967986
-0.972376
-0.974362
-0.975054
-0.974169
-0.971909
-0.967894
-0.962661
-0.950243
-0.932292
-0.901035
-0.838822
-0.678081
-0.675008
-0.841655
-0.903179
-0.933533
-0.950736
-0.961309
-0.968
-0.972387
-0.974374
-0.975071
-0.974192
-0.971931
-0.967917
-0.962685
-0.950266
-0.932312
-0.901055
-0.838839
-0.678093
-0.675018
-0.841668
-0.903193
-0.933548
-0.950752
-0.961333
-0.968121
-0.97241
-0.97439
-0.975087
-0.97421
-0.971949
-0.967937
-0.962707
-0.950286
-0.93233
-0.901072
-0.838854
-0.678105
-0.675028
-0.841681
-0.903207
-0.933563
-0.950769
-0.961355
-0.96816
-0.972434
-0.974407
-0.975103
-0.974227
-0.971966
-0.967955
-0.962726
-0.950303
-0.932346
-0.901087
-0.838868
-0.678116
-0.675038
-0.841693
-0.90322
-0.933577
-0.950785
-0.961373
-0.968182
-0.972453
-0.974424
-0.975119
-0.974243
-0.971982
-0.967971
-0.962743
-0.95032
-0.932361
-0.901101
-0.838881
-0.678126
-0.675047
-0.841705
-0.903233
-0.933591
-0.950799
-0.961389
-0.968199
-0.97247
-0.974439
-0.975134
-0.974257
-0.971997
-0.967987
-0.962759
-0.950334
-0.932375
-0.901114
-0.838893
-0.678135
-0.675056
-0.841716
-0.903245
-0.933603
-0.950813
-0.961403
-0.968214
-0.972485
-0.974453
-0.975148
-0.974271
-0.97201
-0.968001
-0.962773
-0.950348
-0.932388
-0.901127
-0.838904
-0.678144
-0.675064
-0.841727
-0.903257
-0.933616
-0.950826
-0.961416
-0.968228
-0.972498
-0.974466
-0.975161
-0.974285
-0.972023
-0.968014
-0.962787
-0.950361
-0.9324
-0.901138
-0.838915
-0.678152
-0.675072
-0.841737
-0.903268
-0.933627
-0.950838
-0.961429
-0.968241
-0.972511
-0.974479
-0.975174
-0.974297
-0.972036
-0.968029
-0.962815
-0.950376
-0.932412
-0.901149
-0.838925
-0.67816
-0.67508
-0.841747
-0.903278
-0.933638
-0.950849
-0.96144
-0.968253
-0.972523
-0.974491
-0.975186
-0.974309
-0.972048
-0.968044
-0.962833
-0.950397
-0.932556
-0.901167
-0.838936
-0.678168
-0.675088
-0.841757
-0.903289
-0.933649
-0.95086
-0.961452
-0.968264
-0.972535
-0.974504
-0.975203
-0.974349
-0.972065
-0.968058
-0.962849
-0.950411
-0.932463
-0.901181
-0.838947
-0.678176
-0.675095
-0.841766
-0.903299
-0.933659
-0.950871
-0.961463
-0.968276
-0.972546
-0.974516
-0.975217
-0.974367
-0.972079
-0.96807
-0.962859
-0.950418
-0.932455
-0.901187
-0.838956
-0.678183
-0.675102
-0.841775
-0.903308
-0.933669
-0.95088
-0.961472
-0.968281
-0.972509
-0.974521
-0.975227
-0.97438
-0.972092
-0.968082
-0.96287
-0.950427
-0.93246
-0.901193
-0.838964
-0.67819
-0.675109
-0.841783
-0.903317
-0.933678
-0.950889
-0.96148
-0.968287
-0.972508
-0.974527
-0.975237
-0.974391
-0.972103
-0.968092
-0.96288
-0.950439
-0.932468
-0.901201
-0.838972
-0.678196
-0.675115
-0.841791
-0.903325
-0.933687
-0.950898
-0.961488
-0.968294
-0.972514
-0.974534
-0.975245
-0.9744
-0.972112
-0.968102
-0.96289
-0.950449
-0.932476
-0.901209
-0.838979
-0.678202

