/*--------------------------------*- C++ -*----------------------------------*\
| =========                 |                                                 |
| \\      /  F ield         | OpenFOAM: The Open Source CFD Toolbox           |
|  \\    /   O peration     | Version:  4.1                                   |
|   \\  /    A nd           | Web:      www.OpenFOAM.org                      |
|    \\/     M anipulation  |                                                 |
\*---------------------------------------------------------------------------*/
FoamFile
{
    version     2.0;
    format      ascii;
    class       surfaceScalarField;
    location    "3";
    object      phi;
}
// * * * * * * * * * * * * * * * * * * * * * * * * * * * * * * * * * * * * * //

dimensions      [0 3 -1 0 0 0 0];

internalField   nonuniform List<scalar> 
760
(
-1.91641e-05
5.9621e-14
-1.91641e-05
5.79982e-13
-1.91641e-05
1.66933e-12
-1.91641e-05
1.36503e-12
-1.91641e-05
2.7884e-12
-1.91641e-05
2.09482e-12
-1.91641e-05
3.59069e-12
-1.91641e-05
2.55807e-12
-1.91641e-05
4.00522e-12
-1.91641e-05
2.75777e-12
-1.91641e-05
4.01527e-12
-1.91641e-05
2.70617e-12
-1.91641e-05
3.65178e-12
-1.91641e-05
2.44138e-12
-1.91641e-05
2.98058e-12
-1.91641e-05
1.99994e-12
-1.91641e-05
2.09083e-12
-1.91641e-05
1.4454e-12
-1.91641e-05
1.08705e-12
6.60846e-13
-5.11594e-05
4.16616e-13
-5.11594e-05
2.33551e-12
-5.11594e-05
4.06496e-12
-5.11594e-05
4.41464e-12
-5.11594e-05
6.5075e-12
-5.11594e-05
6.28151e-12
-5.11594e-05
8.30478e-12
-5.11594e-05
7.36006e-12
-5.11594e-05
9.2398e-12
-5.11594e-05
7.68672e-12
-5.11594e-05
9.2605e-12
-5.11594e-05
7.30975e-12
-5.11594e-05
8.44213e-12
-5.11594e-05
6.34266e-12
-5.11594e-05
6.93535e-12
-5.11594e-05
4.91802e-12
-5.11594e-05
4.90946e-12
-5.11594e-05
3.27754e-12
-5.11594e-05
2.6366e-12
1.21306e-12
-7.68219e-05
1.02638e-12
-7.68219e-05
4.75117e-12
-7.68219e-05
6.87368e-12
-7.68219e-05
8.31275e-12
-7.68219e-05
1.06559e-11
-7.68219e-05
1.15119e-11
-7.68219e-05
1.3467e-11
-7.68219e-05
1.32761e-11
-7.68219e-05
1.49145e-11
-7.68219e-05
1.36925e-11
-7.68219e-05
1.49032e-11
-7.68219e-05
1.28554e-11
-7.68219e-05
1.35641e-11
-7.68219e-05
1.09677e-11
-7.68219e-05
1.1148e-11
-7.68219e-05
8.28394e-12
-7.68219e-05
7.89021e-12
-7.68219e-05
5.30163e-12
-7.68219e-05
4.27734e-12
1.71884e-12
-9.61516e-05
1.82297e-12
-9.61516e-05
7.28573e-12
-9.61516e-05
9.87902e-12
-9.61516e-05
1.22177e-11
-9.61516e-05
1.49721e-11
-9.61516e-05
1.6674e-11
-9.61516e-05
1.87814e-11
-9.61516e-05
1.90632e-11
-9.61516e-05
2.07133e-11
-9.61516e-05
1.95311e-11
-9.61516e-05
2.0631e-11
-9.61516e-05
1.82168e-11
-9.61516e-05
1.87253e-11
-9.61516e-05
1.54116e-11
-9.61516e-05
1.53503e-11
-9.61516e-05
1.14986e-11
-9.61516e-05
1.07996e-11
-9.61516e-05
7.22408e-12
-9.61516e-05
5.85831e-12
2.12758e-12
-0.000109148
2.68397e-12
-0.000109148
9.78753e-12
-0.000109148
1.28017e-11
-0.000109148
1.59945e-11
-0.000109148
1.91132e-11
-0.000109148
2.1614e-11
-0.000109148
2.38594e-11
-0.000109148
2.45721e-11
-0.000109148
2.62354e-11
-0.000109148
2.50681e-11
-0.000109148
2.60697e-11
-0.000109148
2.32826e-11
-0.000109148
2.36117e-11
-0.000109148
1.95912e-11
-0.000109148
1.93141e-11
-0.000109148
1.45045e-11
-0.000109148
1.35215e-11
-0.000109148
9.00026e-12
-0.000109148
7.33707e-12
2.47343e-12
-0.000115812
3.50617e-12
-0.000115812
1.20877e-11
-0.000115812
1.53778e-11
-0.000115812
1.94194e-11
-0.000115812
2.27186e-11
-0.000115812
2.60416e-11
-0.000115812
2.82718e-11
-0.000115812
2.94815e-11
-0.000115812
3.10243e-11
-0.000115812
2.99819e-11
-0.000115812
3.07801e-11
-0.000115812
2.77573e-11
-0.000115812
2.784e-11
-0.000115812
2.32596e-11
-0.000115812
2.27423e-11
-0.000115812
1.71195e-11
-0.000115812
1.58683e-11
-0.000115812
1.0512e-11
-0.000115812
8.63057e-12
2.73035e-12
-0.000116144
4.21959e-12
-0.000116144
1.40599e-11
-0.000116144
1.74526e-11
-0.000116144
2.23279e-11
-0.000116144
2.55804e-11
-0.000116144
2.97511e-11
-0.000116144
3.1768e-11
-0.000116144
3.35685e-11
-0.000116144
3.48111e-11
-0.000116144
3.40518e-11
-0.000116144
3.45005e-11
-0.000116144
3.14423e-11
-0.000116144
3.11789e-11
-0.000116144
2.62555e-11
-0.000116144
2.54515e-11
-0.000116144
1.92298e-11
-0.000116144
1.77195e-11
-0.000116144
1.16937e-11
-0.000116144
9.67891e-12
2.88818e-12
-0.000110142
4.78477e-12
-0.000110142
1.56242e-11
-0.000110142
1.89562e-11
-0.000110142
2.46222e-11
-0.000110142
2.76097e-11
-0.000110142
3.26241e-11
-0.000110142
3.42384e-11
-0.000110142
3.67059e-11
-0.000110142
3.74764e-11
-0.000110142
3.71537e-11
-0.000110142
3.71129e-11
-0.000110142
3.42276e-11
-0.000110142
3.35218e-11
-0.000110142
2.84918e-11
-0.000110142
2.73548e-11
-0.000110142
2.07767e-11
-0.000110142
1.90148e-11
-0.000110142
1.25156e-11
-0.000110142
1.04448e-11
2.94577e-12
-9.78078e-05
5.17846e-12
-9.78078e-05
1.67206e-11
-9.78078e-05
1.98578e-11
-9.78078e-05
2.62237e-11
-9.78078e-05
2.87724e-11
-9.78078e-05
3.45664e-11
-9.78078e-05
3.56385e-11
-9.78078e-05
3.87926e-11
-9.78078e-05
3.89699e-11
-9.78078e-05
3.91888e-11
-9.78078e-05
3.85657e-11
-9.78078e-05
3.60261e-11
-9.78078e-05
3.48195e-11
-9.78078e-05
2.99007e-11
-9.78078e-05
2.84083e-11
-9.78078e-05
2.17164e-11
-9.78078e-05
1.97202e-11
-9.78078e-05
1.29593e-11
-9.78078e-05
1.0899e-11
2.90537e-12
-7.91406e-05
5.38932e-12
-7.91406e-05
1.73073e-11
-7.91406e-05
2.01523e-11
-7.91406e-05
2.70761e-11
-7.91406e-05
2.90723e-11
-7.91406e-05
3.5513e-11
-7.91406e-05
3.59702e-11
-7.91406e-05
3.97602e-11
-7.91406e-05
3.92925e-11
-7.91406e-05
4.00912e-11
-7.91406e-05
3.88578e-11
-7.91406e-05
3.6781e-11
-7.91406e-05
3.50685e-11
-7.91406e-05
3.04402e-11
-7.91406e-05
2.86051e-11
-7.91406e-05
2.20238e-11
-7.91406e-05
1.98278e-11
-7.91406e-05
1.30183e-11
-7.91406e-05
1.10243e-11
2.77401e-12
-5.41406e-05
5.41432e-12
-5.41406e-05
1.7358e-11
-5.41406e-05
1.98508e-11
-5.41406e-05
2.71396e-11
-5.41406e-05
2.85362e-11
-5.41406e-05
3.5422e-11
-5.41406e-05
3.52653e-11
-5.41406e-05
3.95663e-11
-5.41406e-05
3.84783e-11
-5.41406e-05
3.98219e-11
-5.41406e-05
3.8022e-11
-5.41406e-05
3.64605e-11
-5.41406e-05
3.4296e-11
-5.41406e-05
3.00896e-11
-5.41406e-05
2.79642e-11
-5.41406e-05
2.16896e-11
-5.41406e-05
1.93488e-11
-5.41406e-05
1.26958e-11
-5.41406e-05
1.08131e-11
2.56161e-12
-2.28078e-05
5.25835e-12
-2.28078e-05
1.68618e-11
-2.28078e-05
1.89773e-11
-2.28078e-05
2.6392e-11
-2.28078e-05
2.72073e-11
-2.28078e-05
3.42763e-11
-2.28078e-05
3.35764e-11
-2.28078e-05
3.8197e-11
-2.28078e-05
3.65858e-11
-2.28078e-05
3.83711e-11
-2.28078e-05
3.61163e-11
-2.28078e-05
3.50606e-11
-2.28078e-05
3.25536e-11
-2.28078e-05
2.88517e-11
-2.28078e-05
2.65253e-11
-2.28078e-05
2.07212e-11
-2.28078e-05
1.83107e-11
-2.28078e-05
1.20059e-11
-2.28078e-05
1.02691e-11
2.27989e-12
1.48578e-05
4.93583e-12
1.48578e-05
1.58249e-11
1.48578e-05
1.75674e-11
1.48578e-05
2.4832e-11
1.48578e-05
2.51408e-11
1.48578e-05
3.20872e-11
1.48578e-05
3.09731e-11
1.48578e-05
3.56714e-11
1.48578e-05
3.36932e-11
1.48578e-05
3.57632e-11
1.48578e-05
3.32195e-11
1.48578e-05
3.26085e-11
1.48578e-05
2.99125e-11
1.48578e-05
2.67556e-11
1.48578e-05
2.43462e-11
1.48578e-05
1.91449e-11
1.48578e-05
1.67562e-11
1.48578e-05
1.09733e-11
1.48578e-05
9.4083e-12
1.94162e-12
5.88563e-05
4.47444e-12
5.88563e-05
1.42764e-11
5.88563e-05
1.56724e-11
5.88563e-05
2.2488e-11
5.88563e-05
2.24085e-11
5.88563e-05
2.89056e-11
5.88563e-05
2.75459e-11
5.88563e-05
3.20529e-11
5.88563e-05
2.99025e-11
5.88563e-05
3.20675e-11
5.88563e-05
2.94348e-11
5.88563e-05
2.91733e-11
5.88563e-05
2.64672e-11
5.88563e-05
2.38648e-11
5.88563e-05
2.15053e-11
5.88563e-05
1.70113e-11
5.88563e-05
1.47451e-11
5.88563e-05
9.6355e-12
5.88563e-05
8.2619e-12
1.5613e-12
0.000109188
3.91345e-12
0.000109188
1.22669e-11
0.000109188
1.33565e-11
0.000109188
1.94171e-11
0.000109188
1.90914e-11
0.000109188
2.482e-11
0.000109188
2.33965e-11
0.000109188
2.74479e-11
0.000109188
2.53281e-11
0.000109188
2.73976e-11
0.000109188
2.48779e-11
0.000109188
2.48648e-11
0.000109188
2.23239e-11
0.000109188
2.02763e-11
0.000109188
1.80918e-11
0.000109188
1.43938e-11
0.000109188
1.23467e-11
0.000109188
8.04133e-12
0.000109188
6.87413e-12
1.15559e-12
0.000165852
3.30298e-12
0.000165852
9.89017e-12
0.000165852
1.0731e-11
0.000165852
1.5749e-11
0.000165852
1.53324e-11
0.000165852
2.00163e-11
0.000165852
1.87035e-11
0.000165852
2.20742e-11
0.000165852
2.01679e-11
0.000165852
2.19812e-11
0.000165852
1.97466e-11
0.000165852
1.98991e-11
0.000165852
1.76631e-11
0.000165852
1.61764e-11
0.000165852
1.42558e-11
0.000165852
1.14323e-11
0.000165852
9.67196e-12
0.000165852
6.28004e-12
0.000165852
5.31735e-12
7.5373e-13
0.000228848
2.70534e-12
0.000228848
7.29848e-12
0.000228848
7.97615e-12
0.000228848
1.17087e-11
0.000228848
1.13635e-11
0.000228848
1.47998e-11
0.000228848
1.37491e-11
0.000228848
1.62817e-11
0.000228848
1.47274e-11
0.000228848
1.61788e-11
0.000228848
1.43399e-11
0.000228848
1.46143e-11
0.000228848
1.27524e-11
0.000228848
1.18507e-11
0.000228848
1.02143e-11
0.000228848
8.3398e-12
0.000228848
6.86795e-12
0.000228848
4.48512e-12
0.000228848
3.68459e-12
3.98169e-13
0.000298178
2.01828e-12
0.000298178
4.58117e-12
0.000298178
5.14534e-12
0.000298178
7.40391e-12
0.000298178
7.24434e-12
0.000298178
9.33844e-12
0.000298178
8.61765e-12
0.000298178
1.02764e-11
0.000298178
9.10953e-12
0.000298178
1.02133e-11
0.000298178
8.76873e-12
0.000298178
9.22822e-12
0.000298178
7.70132e-12
0.000298178
7.49051e-12
0.000298178
6.06862e-12
0.000298178
5.27024e-12
0.000298178
4.00158e-12
0.000298178
2.78311e-12
0.000298178
2.03289e-12
1.61111e-13
0.000373841
1.2435e-12
0.000373841
1.96146e-12
0.000373841
2.46391e-12
0.000373841
3.1771e-12
0.000373841
3.26314e-12
0.000373841
4.03678e-12
0.000373841
3.66528e-12
0.000373841
4.48538e-12
0.000373841
3.70073e-12
0.000373841
4.49745e-12
0.000373841
3.41251e-12
0.000373841
4.10302e-12
0.000373841
2.85235e-12
0.000373841
3.3752e-12
0.000373841
2.09825e-12
0.000373841
2.41437e-12
0.000373841
1.24163e-12
0.000373841
1.27927e-12
0.000373841
4.72972e-13
4.82805e-14
0.000455836
0.000455836
0.000455836
0.000455836
0.000455836
0.000455836
0.000455836
0.000455836
0.000455836
0.000455836
0.000455836
0.000455836
0.000455836
0.000455836
0.000455836
0.000455836
0.000455836
0.000455836
0.000455836
)
;

boundaryField
{
    top
    {
        type            calculated;
        value           uniform 0;
    }
    bottom
    {
        type            calculated;
        value           uniform 0;
    }
    inlet
    {
        type            calculated;
        value           nonuniform List<scalar> 
20
(
1.91641e-05
5.11594e-05
7.68219e-05
9.61516e-05
0.000109148
0.000115812
0.000116144
0.000110142
9.78078e-05
7.91406e-05
5.41406e-05
2.28078e-05
-1.48578e-05
-5.88563e-05
-0.000109188
-0.000165852
-0.000228848
-0.000298178
-0.000373841
-0.000455836
)
;
    }
    outlet
    {
        type            calculated;
        value           nonuniform List<scalar> 
20
(
-1.91641e-05
-5.11594e-05
-7.68219e-05
-9.61516e-05
-0.000109148
-0.000115812
-0.000116144
-0.000110142
-9.78078e-05
-7.91406e-05
-5.41406e-05
-2.28078e-05
1.48578e-05
5.88563e-05
0.000109188
0.000165852
0.000228848
0.000298178
0.000373841
0.000455836
)
;
    }
    frontAndBack
    {
        type            empty;
        value           nonuniform 0();
    }
}


// ************************************************************************* //
