/*--------------------------------*- C++ -*----------------------------------*\
| =========                 |                                                 |
| \\      /  F ield         | OpenFOAM: The Open Source CFD Toolbox           |
|  \\    /   O peration     | Version:  4.1                                   |
|   \\  /    A nd           | Web:      www.OpenFOAM.org                      |
|    \\/     M anipulation  |                                                 |
\*---------------------------------------------------------------------------*/
FoamFile
{
    version     2.0;
    format      ascii;
    class       volVectorField;
    location    "3";
    object      U;
}
// * * * * * * * * * * * * * * * * * * * * * * * * * * * * * * * * * * * * * //

dimensions      [0 1 -1 0 0 0 0];

internalField   nonuniform List<vector> 
400
(
(-0.383281 -5.13729e-11 0)
(-0.383281 4.38616e-10 0)
(-0.383281 7.66161e-10 0)
(-0.383281 9.54119e-10 0)
(-0.383281 1.30607e-09 0)
(-0.383281 1.43319e-09 0)
(-0.383281 1.68069e-09 0)
(-0.383281 1.72819e-09 0)
(-0.383281 1.87686e-09 0)
(-0.383281 1.83403e-09 0)
(-0.383281 1.88427e-09 0)
(-0.383281 1.76987e-09 0)
(-0.383281 1.71724e-09 0)
(-0.383281 1.55869e-09 0)
(-0.383281 1.41508e-09 0)
(-0.383281 1.21559e-09 0)
(-0.383281 1.02791e-09 0)
(-0.383281 8.17174e-10 0)
(-0.383281 5.191e-10 0)
(-0.383281 3.60903e-10 0)
(-1.02319 4.27458e-10 0)
(-1.02319 1.57299e-09 0)
(-1.02319 3.21432e-09 0)
(-1.02319 3.14007e-09 0)
(-1.02319 5.16161e-09 0)
(-1.02319 4.48361e-09 0)
(-1.02319 6.56458e-09 0)
(-1.02319 5.27186e-09 0)
(-1.02319 7.27214e-09 0)
(-1.02319 5.51436e-09 0)
(-1.02319 7.25955e-09 0)
(-1.02319 5.25667e-09 0)
(-1.02319 6.58266e-09 0)
(-1.02319 4.58351e-09 0)
(-1.02319 5.35411e-09 0)
(-1.02319 3.59992e-09 0)
(-1.02319 3.72329e-09 0)
(-1.02319 2.42617e-09 0)
(-1.02319 1.94434e-09 0)
(-1.02319 8.9446e-10 0)
(-1.53644 7.14895e-10 0)
(-1.53644 3.68374e-09 0)
(-1.53644 5.63159e-09 0)
(-1.53644 6.69872e-09 0)
(-1.53644 8.85256e-09 0)
(-1.53644 9.39897e-09 0)
(-1.53644 1.12172e-08 0)
(-1.53644 1.09275e-08 0)
(-1.53644 1.2434e-08 0)
(-1.53644 1.13404e-08 0)
(-1.53644 1.24311e-08 0)
(-1.53644 1.0713e-08 0)
(-1.53644 1.13151e-08 0)
(-1.53644 9.20896e-09 0)
(-1.53644 9.29421e-09 0)
(-1.53644 7.02038e-09 0)
(-1.53644 6.59617e-09 0)
(-1.53644 4.55563e-09 0)
(-1.53644 3.53255e-09 0)
(-1.53644 1.62631e-09 0)
(-1.92303 1.43345e-09 0)
(-1.92303 6.01251e-09 0)
(-1.92303 8.31741e-09 0)
(-1.92303 1.02243e-08 0)
(-1.92303 1.26967e-08 0)
(-1.92303 1.40068e-08 0)
(-1.92303 1.59646e-08 0)
(-1.92303 1.60502e-08 0)
(-1.92303 1.76292e-08 0)
(-1.92303 1.64725e-08 0)
(-1.92303 1.75832e-08 0)
(-1.92303 1.53897e-08 0)
(-1.92303 1.59782e-08 0)
(-1.92303 1.30485e-08 0)
(-1.92303 1.31072e-08 0)
(-1.92303 9.76927e-09 0)
(-1.92303 9.23963e-09 0)
(-1.92303 6.16541e-09 0)
(-1.92303 5.01179e-09 0)
(-1.92303 1.85205e-09 0)
(-2.18297 2.22654e-09 0)
(-2.18297 8.4929e-09 0)
(-2.18297 1.1285e-08 0)
(-2.18297 1.40146e-08 0)
(-2.18297 1.69483e-08 0)
(-2.18297 1.90249e-08 0)
(-2.18297 2.11986e-08 0)
(-2.18297 2.16814e-08 0)
(-2.18297 2.33381e-08 0)
(-2.18297 2.21597e-08 0)
(-2.18297 2.32167e-08 0)
(-2.18297 2.0619e-08 0)
(-2.18297 2.10475e-08 0)
(-2.18297 1.73906e-08 0)
(-2.18297 1.72332e-08 0)
(-2.18297 1.29183e-08 0)
(-2.18297 1.20889e-08 0)
(-2.18297 8.06471e-09 0)
(-2.18297 6.55787e-09 0)
(-2.18297 2.27194e-09 0)
(-2.31625 3.06538e-09 0)
(-2.31625 1.08963e-08 0)
(-2.31625 1.40216e-08 0)
(-2.31625 1.7609e-08 0)
(-2.31625 2.0798e-08 0)
(-2.31625 2.3702e-08 0)
(-2.31625 2.59175e-08 0)
(-2.31625 2.68831e-08 0)
(-2.31625 2.847e-08 0)
(-2.31625 2.73777e-08 0)
(-2.31625 2.82686e-08 0)
(-2.31625 2.53821e-08 0)
(-2.31625 2.55868e-08 0)
(-2.31625 2.13082e-08 0)
(-2.31625 2.09183e-08 0)
(-2.31625 1.57233e-08 0)
(-2.31625 1.46194e-08 0)
(-2.31625 9.70502e-09 0)
(-2.31625 7.9499e-09 0)
(-2.31625 2.5651e-09 0)
(-2.32287 3.83069e-09 0)
(-2.32287 1.30241e-08 0)
(-2.32287 1.6328e-08 0)
(-2.32287 2.07495e-08 0)
(-2.32287 2.39993e-08 0)
(-2.32287 2.77356e-08 0)
(-2.32287 2.98337e-08 0)
(-2.32287 3.13414e-08 0)
(-2.32287 3.27186e-08 0)
(-2.32287 3.18287e-08 0)
(-2.32287 3.24466e-08 0)
(-2.32287 2.94241e-08 0)
(-2.32287 2.93382e-08 0)
(-2.32287 2.46084e-08 0)
(-2.32287 2.39627e-08 0)
(-2.32287 1.80621e-08 0)
(-2.32287 1.67034e-08 0)
(-2.32287 1.10368e-08 0)
(-2.32287 9.11823e-09 0)
(-2.32287 2.76315e-09 0)
(-2.20284 4.47323e-09 0)
(-2.20284 1.4802e-08 0)
(-2.20284 1.81187e-08 0)
(-2.20284 2.33622e-08 0)
(-2.20284 2.64486e-08 0)
(-2.20284 3.10405e-08 0)
(-2.20284 3.28253e-08 0)
(-2.20284 3.49682e-08 0)
(-2.20284 3.59566e-08 0)
(-2.20284 3.5429e-08 0)
(-2.20284 3.56275e-08 0)
(-2.20284 3.26719e-08 0)
(-2.20284 3.21949e-08 0)
(-2.20284 2.72341e-08 0)
(-2.20284 2.62837e-08 0)
(-2.20284 1.98969e-08 0)
(-2.20284 1.82895e-08 0)
(-2.20284 1.20405e-08 0)
(-2.20284 1.0038e-08 0)
(-2.20284 2.86932e-09 0)
(-1.95616 4.95136e-09 0)
(-1.95616 1.61361e-08 0)
(-1.95616 1.93147e-08 0)
(-1.95616 2.53101e-08 0)
(-1.95616 2.80369e-08 0)
(-1.95616 3.34453e-08 0)
(-1.95616 3.47544e-08 0)
(-1.95616 3.75757e-08 0)
(-1.95616 3.80315e-08 0)
(-1.95616 3.79917e-08 0)
(-1.95616 3.76581e-08 0)
(-1.95616 3.49572e-08 0)
(-1.95616 3.40157e-08 0)
(-1.95616 2.90499e-08 0)
(-1.95616 2.77647e-08 0)
(-1.95616 2.11342e-08 0)
(-1.95616 1.92941e-08 0)
(-1.95616 1.26679e-08 0)
(-1.95616 1.06551e-08 0)
(-1.95616 2.87652e-09 0)
(-1.58281 5.25047e-09 0)
(-1.58281 1.69827e-08 0)
(-1.58281 1.99064e-08 0)
(-1.58281 2.65401e-08 0)
(-1.58281 2.87616e-08 0)
(-1.58281 3.489e-08 0)
(-1.58281 3.56154e-08 0)
(-1.58281 3.91014e-08 0)
(-1.58281 3.89364e-08 0)
(-1.58281 3.94575e-08 0)
(-1.58281 3.85295e-08 0)
(-1.58281 3.62297e-08 0)
(-1.58281 3.479e-08 0)
(-1.58281 3.00191e-08 0)
(-1.58281 2.83927e-08 0)
(-1.58281 2.17526e-08 0)
(-1.58281 1.97049e-08 0)
(-1.58281 1.29139e-08 0)
(-1.58281 1.09511e-08 0)
(-1.58281 2.79178e-09 0)
(-1.08281 5.36389e-09 0)
(-1.08281 1.73074e-08 0)
(-1.08281 1.98989e-08 0)
(-1.08281 2.70038e-08 0)
(-1.08281 2.8641e-08 0)
(-1.08281 3.53213e-08 0)
(-1.08281 3.5428e-08 0)
(-1.08281 3.94903e-08 0)
(-1.08281 3.86912e-08 0)
(-1.08281 3.97745e-08 0)
(-1.08281 3.82596e-08 0)
(-1.08281 3.64458e-08 0)
(-1.08281 3.45312e-08 0)
(-1.08281 3.01111e-08 0)
(-1.08281 2.81744e-08 0)
(-1.08281 2.17358e-08 0)
(-1.08281 1.95233e-08 0)
(-1.08281 1.27779e-08 0)
(-1.08281 1.09123e-08 0)
(-1.08281 2.62372e-09 0)
(-0.456156 5.29244e-09 0)
(-0.456156 1.70911e-08 0)
(-0.456156 1.93115e-08 0)
(-0.456156 2.66696e-08 0)
(-0.456156 2.77119e-08 0)
(-0.456156 3.47089e-08 0)
(-0.456156 3.42364e-08 0)
(-0.456156 3.87133e-08 0)
(-0.456156 3.73441e-08 0)
(-0.456156 3.89175e-08 0)
(-0.456156 3.68954e-08 0)
(-0.456156 3.55868e-08 0)
(-0.456156 3.32801e-08 0)
(-0.456156 2.93164e-08 0)
(-0.456156 2.71398e-08 0)
(-0.456156 2.10828e-08 0)
(-0.456156 1.87686e-08 0)
(-0.456156 1.22693e-08 0)
(-0.456156 1.05359e-08 0)
(-0.456156 2.38267e-09 0)
(0.297156 5.04537e-09 0)
(0.297156 1.63303e-08 0)
(0.297157 1.81742e-08 0)
(0.297157 2.55249e-08 0)
(0.297157 2.60236e-08 0)
(0.297157 3.30493e-08 0)
(0.297157 3.21016e-08 0)
(0.297157 3.67725e-08 0)
(0.297157 3.49631e-08 0)
(0.297157 3.6893e-08 0)
(0.297157 3.4505e-08 0)
(0.297157 3.36638e-08 0)
(0.297157 3.10974e-08 0)
(0.297157 2.76507e-08 0)
(0.297157 2.53374e-08 0)
(0.297157 1.98102e-08 0)
(0.297157 1.74751e-08 0)
(0.297157 1.14077e-08 0)
(0.297157 9.83082e-09 0)
(0.297157 2.07974e-09 0)
(1.17713 4.6414e-09 0)
(1.17713 1.50337e-08 0)
(1.17713 1.65202e-08 0)
(1.17713 2.35685e-08 0)
(1.17713 2.36222e-08 0)
(1.17713 3.03543e-08 0)
(1.17713 2.90815e-08 0)
(1.17713 3.36874e-08 0)
(1.17713 3.16138e-08 0)
(1.17713 3.37263e-08 0)
(1.17713 3.11546e-08 0)
(1.17713 3.07046e-08 0)
(1.17713 2.80434e-08 0)
(1.17713 2.51432e-08 0)
(1.17713 2.28165e-08 0)
(1.17713 1.79446e-08 0)
(1.17713 1.56808e-08 0)
(1.17713 1.02171e-08 0)
(1.17713 8.81459e-09 0)
(1.17713 1.72421e-09 0)
(2.18375 4.12605e-09 0)
(2.18375 1.32652e-08 0)
(2.18375 1.44424e-08 0)
(2.18375 2.08911e-08 0)
(2.18375 2.06408e-08 0)
(2.18375 2.67589e-08 0)
(2.18375 2.53436e-08 0)
(2.18375 2.96178e-08 0)
(2.18375 2.74829e-08 0)
(2.18375 2.95859e-08 0)
(2.18375 2.70318e-08 0)
(2.18375 2.68717e-08 0)
(2.18375 2.42892e-08 0)
(2.18375 2.19357e-08 0)
(2.18375 1.97186e-08 0)
(2.18375 1.55932e-08 0)
(2.18375 1.34908e-08 0)
(2.18375 8.76803e-09 0)
(2.18375 7.54521e-09 0)
(2.18375 1.33946e-09 0)
(3.31703 3.5399e-09 0)
(3.31703 1.10616e-08 0)
(3.31703 1.19789e-08 0)
(3.31703 1.75225e-08 0)
(3.31703 1.71134e-08 0)
(3.31703 2.23144e-08 0)
(3.31703 2.09312e-08 0)
(3.31703 2.46286e-08 0)
(3.31703 2.26209e-08 0)
(3.31703 2.45429e-08 0)
(3.31703 2.21891e-08 0)
(3.31703 2.22356e-08 0)
(3.31703 1.98849e-08 0)
(3.31703 1.80914e-08 0)
(3.31703 1.60881e-08 0)
(3.31703 1.28052e-08 0)
(3.31703 1.09448e-08 0)
(3.31703 7.09208e-09 0)
(3.31703 6.05961e-09 0)
(3.31703 9.37105e-10 0)
(4.57697 2.83387e-09 0)
(4.57697 8.49374e-09 0)
(4.57697 9.19336e-09 0)
(4.57697 1.35679e-08 0)
(4.57697 1.3145e-08 0)
(4.57697 1.71993e-08 0)
(4.57697 1.59968e-08 0)
(4.57697 1.89432e-08 0)
(4.57697 1.7216e-08 0)
(4.57697 1.88416e-08 0)
(4.57697 1.68306e-08 0)
(4.57697 1.70406e-08 0)
(4.57697 1.5031e-08 0)
(4.57697 1.38304e-08 0)
(4.57697 1.21068e-08 0)
(4.57697 9.75212e-09 0)
(4.57697 8.19131e-09 0)
(4.57697 5.32033e-09 0)
(4.57697 4.45484e-09 0)
(4.57697 6.01418e-10 0)
(5.96356 2.64089e-09 0)
(5.96356 6.11814e-09 0)
(5.96356 6.93203e-09 0)
(5.96356 9.92587e-09 0)
(5.96356 9.82624e-09 0)
(5.96356 1.25092e-08 0)
(5.96356 1.17959e-08 0)
(5.96356 1.37515e-08 0)
(5.96356 1.25488e-08 0)
(5.96356 1.36595e-08 0)
(5.96356 1.21433e-08 0)
(5.96356 1.23424e-08 0)
(5.96356 1.07255e-08 0)
(5.96356 1.00092e-08 0)
(5.96356 8.5114e-09 0)
(5.96356 7.04252e-09 0)
(5.96356 5.65315e-09 0)
(5.96356 3.73835e-09 0)
(5.96356 2.95353e-09 0)
(5.96356 2.55326e-10 0)
(7.47681 1.45972e-09 0)
(7.47681 3.22495e-09 0)
(7.47681 3.82922e-09 0)
(7.47681 5.39343e-09 0)
(7.47681 5.41968e-09 0)
(7.47681 6.95009e-09 0)
(7.47681 6.37704e-09 0)
(7.47681 7.75893e-09 0)
(7.47681 6.68838e-09 0)
(7.47681 7.7985e-09 0)
(7.47681 6.39257e-09 0)
(7.47681 7.13225e-09 0)
(7.47681 5.56789e-09 0)
(7.47681 5.88185e-09 0)
(7.47681 4.33446e-09 0)
(7.47681 4.23015e-09 0)
(7.47681 2.81037e-09 0)
(7.47681 2.32163e-09 0)
(7.47681 1.32e-09 0)
(7.47681 2.91619e-10 0)
(9.11672 7.08998e-10 0)
(9.11672 9.44502e-10 0)
(9.11672 1.29049e-09 0)
(9.11672 1.6126e-09 0)
(9.11672 1.76019e-09 0)
(9.11672 2.02002e-09 0)
(9.11672 2.02666e-09 0)
(9.11672 2.22426e-09 0)
(9.11672 2.07889e-09 0)
(9.11672 2.21839e-09 0)
(9.11672 1.9435e-09 0)
(9.11672 2.01305e-09 0)
(9.11672 1.6502e-09 0)
(9.11672 1.64561e-09 0)
(9.11672 1.23633e-09 0)
(9.11672 1.17191e-09 0)
(9.11672 7.4275e-10 0)
(9.11672 5.84553e-10 0)
(9.11672 3.3216e-10 0)
(9.11672 -6.30073e-11 0)
)
;

boundaryField
{
    top
    {
        type            fixedValue;
        value           uniform (10 0 0);
    }
    bottom
    {
        type            fixedValue;
        value           uniform (0 0 0);
    }
    inlet
    {
        type            zeroGradient;
    }
    outlet
    {
        type            zeroGradient;
    }
    frontAndBack
    {
        type            empty;
    }
}


// ************************************************************************* //
