/*--------------------------------*- C++ -*----------------------------------*\
| =========                 |                                                 |
| \\      /  F ield         | OpenFOAM: The Open Source CFD Toolbox           |
|  \\    /   O peration     | Version:  4.1                                   |
|   \\  /    A nd           | Web:      www.OpenFOAM.org                      |
|    \\/     M anipulation  |                                                 |
\*---------------------------------------------------------------------------*/
FoamFile
{
    version     2.0;
    format      ascii;
    class       volScalarField;
    location    "0.6";
    object      p;
}
// * * * * * * * * * * * * * * * * * * * * * * * * * * * * * * * * * * * * * //

dimensions      [0 2 -2 0 0 0 0];

internalField   nonuniform List<scalar> 
400
(
5.86203e-06
4.6631e-06
2.72247e-06
3.10154e-06
2.22129e-06
2.6059e-06
2.02914e-06
2.24792e-06
1.85176e-06
1.92067e-06
1.66409e-06
1.60657e-06
1.4688e-06
1.30043e-06
1.27455e-06
1.01046e-06
1.13e-06
8.85105e-07
1.53179e-06
2.43323e-06
5.83457e-06
4.6335e-06
2.71854e-06
3.10037e-06
2.2211e-06
2.60571e-06
2.02918e-06
2.24785e-06
1.8518e-06
1.92064e-06
1.66411e-06
1.60657e-06
1.46878e-06
1.30044e-06
1.27449e-06
1.01038e-06
1.12935e-06
8.84112e-07
1.50864e-06
2.41002e-06
5.81501e-06
4.60817e-06
2.71423e-06
3.09987e-06
2.22058e-06
2.60586e-06
2.02896e-06
2.24799e-06
1.85168e-06
1.92072e-06
1.66406e-06
1.60659e-06
1.46878e-06
1.30041e-06
1.27452e-06
1.01022e-06
1.12894e-06
8.8238e-07
1.48702e-06
2.39065e-06
5.8011e-06
4.58816e-06
2.70985e-06
3.09957e-06
2.22007e-06
2.60606e-06
2.02872e-06
2.24815e-06
1.85155e-06
1.92081e-06
1.664e-06
1.60661e-06
1.46878e-06
1.30036e-06
1.27458e-06
1.0101e-06
1.12862e-06
8.79834e-07
1.46822e-06
2.37496e-06
5.79032e-06
4.57209e-06
2.70559e-06
3.09931e-06
2.21967e-06
2.60621e-06
2.02854e-06
2.24827e-06
1.85145e-06
1.92088e-06
1.66396e-06
1.60663e-06
1.46879e-06
1.30033e-06
1.27464e-06
1.01004e-06
1.12834e-06
8.76778e-07
1.45146e-06
2.3613e-06
5.78143e-06
4.5585e-06
2.70135e-06
3.09906e-06
2.21935e-06
2.60633e-06
2.02839e-06
2.24837e-06
1.85137e-06
1.92093e-06
1.66392e-06
1.60664e-06
1.46879e-06
1.30031e-06
1.27469e-06
1.01004e-06
1.12809e-06
8.73278e-07
1.43599e-06
2.34892e-06
5.77433e-06
4.54721e-06
2.69724e-06
3.09885e-06
2.2191e-06
2.60642e-06
2.02827e-06
2.24844e-06
1.85131e-06
1.92098e-06
1.66389e-06
1.60665e-06
1.46879e-06
1.30029e-06
1.27475e-06
1.01007e-06
1.12788e-06
8.69495e-07
1.42181e-06
2.33775e-06
5.7688e-06
4.53805e-06
2.69339e-06
3.09867e-06
2.21892e-06
2.60649e-06
2.02818e-06
2.2485e-06
1.85126e-06
1.92101e-06
1.66387e-06
1.60666e-06
1.46879e-06
1.30028e-06
1.2748e-06
1.01015e-06
1.12772e-06
8.65589e-07
1.4089e-06
2.32763e-06
5.76457e-06
4.53079e-06
2.68991e-06
3.0985e-06
2.21881e-06
2.60655e-06
2.02812e-06
2.24853e-06
1.85123e-06
1.92103e-06
1.66386e-06
1.60666e-06
1.46879e-06
1.30027e-06
1.27486e-06
1.01027e-06
1.12759e-06
8.61721e-07
1.39711e-06
2.31831e-06
5.76135e-06
4.52522e-06
2.68691e-06
3.09835e-06
2.21877e-06
2.60657e-06
2.02809e-06
2.24855e-06
1.85122e-06
1.92104e-06
1.66386e-06
1.60666e-06
1.46879e-06
1.30027e-06
1.27492e-06
1.01042e-06
1.12748e-06
8.58035e-07
1.38624e-06
2.30953e-06
5.75894e-06
4.52117e-06
2.68448e-06
3.09819e-06
2.21878e-06
2.60658e-06
2.02809e-06
2.24855e-06
1.85122e-06
1.92104e-06
1.66386e-06
1.60666e-06
1.46879e-06
1.30027e-06
1.27497e-06
1.0106e-06
1.1274e-06
8.54659e-07
1.3761e-06
2.30102e-06
5.75718e-06
4.51855e-06
2.68272e-06
3.09804e-06
2.21887e-06
2.60656e-06
2.02813e-06
2.24852e-06
1.85124e-06
1.92102e-06
1.66387e-06
1.60666e-06
1.46879e-06
1.30028e-06
1.27502e-06
1.0108e-06
1.12732e-06
8.517e-07
1.36645e-06
2.29251e-06
5.75598e-06
4.5173e-06
2.68167e-06
3.0979e-06
2.21902e-06
2.60652e-06
2.02819e-06
2.24848e-06
1.85127e-06
1.921e-06
1.66388e-06
1.60665e-06
1.46879e-06
1.3003e-06
1.27506e-06
1.01102e-06
1.12724e-06
8.49236e-07
1.35708e-06
2.28378e-06
5.75532e-06
4.51745e-06
2.68137e-06
3.09778e-06
2.21923e-06
2.60646e-06
2.02829e-06
2.24842e-06
1.85132e-06
1.92096e-06
1.66391e-06
1.60664e-06
1.46879e-06
1.30032e-06
1.2751e-06
1.01125e-06
1.12715e-06
8.47319e-07
1.34778e-06
2.27461e-06
5.75528e-06
4.51906e-06
2.68181e-06
3.09769e-06
2.21951e-06
2.60638e-06
2.02841e-06
2.24834e-06
1.85139e-06
1.92092e-06
1.66394e-06
1.60662e-06
1.46879e-06
1.30034e-06
1.27513e-06
1.01148e-06
1.12706e-06
8.45974e-07
1.33836e-06
2.26484e-06
5.75593e-06
4.52222e-06
2.68294e-06
3.09765e-06
2.21986e-06
2.60627e-06
2.02856e-06
2.24824e-06
1.85147e-06
1.92086e-06
1.66397e-06
1.60661e-06
1.46879e-06
1.30037e-06
1.27515e-06
1.01171e-06
1.12697e-06
8.45193e-07
1.3287e-06
2.25436e-06
5.75738e-06
4.52711e-06
2.68466e-06
3.09765e-06
2.22028e-06
2.60612e-06
2.02875e-06
2.24811e-06
1.85157e-06
1.92079e-06
1.66402e-06
1.60659e-06
1.46879e-06
1.30041e-06
1.27515e-06
1.01193e-06
1.12687e-06
8.44945e-07
1.31872e-06
2.24306e-06
5.76068e-06
4.53499e-06
2.68702e-06
3.0977e-06
2.22081e-06
2.60593e-06
2.02899e-06
2.24795e-06
1.8517e-06
1.9207e-06
1.66408e-06
1.60656e-06
1.46879e-06
1.30046e-06
1.27514e-06
1.01216e-06
1.12677e-06
8.45202e-07
1.30823e-06
2.23068e-06
5.76765e-06
4.54655e-06
2.68984e-06
3.09798e-06
2.22133e-06
2.60578e-06
2.02921e-06
2.24781e-06
1.85182e-06
1.92062e-06
1.66413e-06
1.60654e-06
1.46879e-06
1.3005e-06
1.27513e-06
1.01235e-06
1.12673e-06
8.46006e-07
1.29682e-06
2.2172e-06
5.78175e-06
4.56187e-06
2.69263e-06
3.09895e-06
2.2215e-06
2.60598e-06
2.02916e-06
2.24788e-06
1.85178e-06
1.92065e-06
1.66411e-06
1.60655e-06
1.4688e-06
1.3005e-06
1.2752e-06
1.01242e-06
1.12689e-06
8.47168e-07
1.28564e-06
2.2054e-06
)
;

boundaryField
{
    top
    {
        type            zeroGradient;
    }
    bottom
    {
        type            zeroGradient;
    }
    inlet
    {
        type            fixedValue;
        value           uniform 0;
    }
    outlet
    {
        type            fixedValue;
        value           uniform 0;
    }
    frontAndBack
    {
        type            empty;
    }
}


// ************************************************************************* //
