/*--------------------------------*- C++ -*----------------------------------*\
| =========                 |                                                 |
| \\      /  F ield         | OpenFOAM: The Open Source CFD Toolbox           |
|  \\    /   O peration     | Version:  4.1                                   |
|   \\  /    A nd           | Web:      www.OpenFOAM.org                      |
|    \\/     M anipulation  |                                                 |
\*---------------------------------------------------------------------------*/
FoamFile
{
    version     2.0;
    format      ascii;
    class       surfaceScalarField;
    location    "0.6";
    object      phi;
}
// * * * * * * * * * * * * * * * * * * * * * * * * * * * * * * * * * * * * * //

dimensions      [0 3 -1 0 0 0 0];

internalField   nonuniform List<scalar> 
760
(
1.24161e-06
-1.00537e-11
1.24162e-06
-6.42473e-12
1.24162e-06
1.68233e-13
1.24162e-06
-5.94744e-13
1.24162e-06
3.80159e-13
1.24162e-06
-3.39706e-13
1.24162e-06
2.62872e-13
1.24162e-06
-2.08699e-13
1.24162e-06
1.55531e-13
1.24162e-06
-1.09067e-13
1.24162e-06
6.58044e-14
1.24162e-06
-2.58481e-14
1.24162e-06
-1.2583e-14
1.24162e-06
4.8307e-14
1.24162e-06
-8.83851e-14
1.24162e-06
1.08072e-13
1.24162e-06
-2.2418e-13
1.24162e-06
3.35423e-13
1.24162e-06
-4.88425e-12
-7.0482e-12
3.72505e-06
-2.96448e-11
3.72506e-06
-2.2489e-11
3.72506e-06
-4.88402e-13
3.72507e-06
-1.50355e-12
3.72506e-06
7.62705e-13
3.72507e-06
-7.51879e-13
3.72506e-06
5.6032e-13
3.72507e-06
-4.51736e-13
3.72506e-06
3.33762e-13
3.72506e-06
-2.34254e-13
3.72506e-06
1.40133e-13
3.72506e-06
-5.40322e-14
3.72506e-06
-3.01812e-14
3.72506e-06
1.04886e-13
3.72507e-06
-2.00799e-13
3.72506e-06
2.06319e-13
3.72507e-06
-6.22252e-13
3.72506e-06
8.25397e-13
3.72508e-06
-1.83707e-11
-2.32785e-11
6.2091e-06
-5.1961e-11
6.20912e-06
-4.32524e-11
6.20913e-06
-1.68029e-12
6.20913e-06
-2.22954e-12
6.20913e-06
9.70808e-13
6.20913e-06
-1.01906e-12
6.20913e-06
7.41823e-13
6.20913e-06
-6.03555e-13
6.20913e-06
4.43144e-13
6.20913e-06
-3.10721e-13
6.20913e-06
1.84211e-13
6.20913e-06
-6.90909e-14
6.20913e-06
-4.45144e-14
6.20913e-06
1.42931e-13
6.20913e-06
-2.77995e-13
6.20913e-06
2.53188e-13
6.20913e-06
-9.97074e-13
6.20913e-06
1.48798e-12
6.20915e-06
-3.80836e-11
-4.52043e-11
8.69417e-06
-7.30289e-11
8.69419e-06
-6.42528e-11
8.69419e-06
-2.97982e-12
8.69419e-06
-2.68625e-12
8.69419e-06
1.05128e-12
8.69419e-06
-1.14566e-12
8.69419e-06
8.22233e-13
8.69419e-06
-6.72267e-13
8.69419e-06
4.91248e-13
8.69419e-06
-3.43656e-13
8.69419e-06
2.01791e-13
8.69419e-06
-7.30083e-14
8.69419e-06
-5.4549e-14
8.69419e-06
1.64215e-13
8.69419e-06
-3.18488e-13
8.69419e-06
2.6618e-13
8.6942e-06
-1.29949e-12
8.69419e-06
2.34201e-12
8.69422e-06
-6.13189e-11
-7.01633e-11
1.11806e-05
-8.9888e-11
1.11806e-05
-8.21945e-11
1.11806e-05
-4.19332e-12
1.11806e-05
-2.87665e-12
1.11806e-05
1.02372e-12
1.11806e-05
-1.14728e-12
1.11806e-05
8.14383e-13
1.11806e-05
-6.68008e-13
1.11806e-05
4.85913e-13
1.11806e-05
-3.38796e-13
1.11806e-05
1.96701e-13
1.11806e-05
-6.7869e-14
1.11806e-05
-5.99152e-14
1.11806e-05
1.69782e-13
1.11806e-05
-3.25436e-13
1.11806e-05
2.49624e-13
1.11806e-05
-1.52264e-12
1.11806e-05
3.30105e-12
1.11807e-05
-8.55002e-11
-9.55542e-11
1.36688e-05
-1.00461e-10
1.36688e-05
-9.46692e-11
1.36688e-05
-5.15099e-12
1.36688e-05
-2.81277e-12
1.36688e-05
9.07761e-13
1.36688e-05
-1.04174e-12
1.36688e-05
7.32085e-13
1.36688e-05
-6.01892e-13
1.36688e-05
4.35582e-13
1.36688e-05
-3.02265e-13
1.36688e-05
1.72915e-13
1.36688e-05
-5.56918e-14
1.36688e-05
-6.05446e-14
1.36688e-05
1.61119e-13
1.36688e-05
-3.02837e-13
1.36688e-05
2.08119e-13
1.36688e-05
-1.6607e-12
1.36688e-05
4.27531e-12
1.36688e-05
-1.08171e-10
-1.18901e-10
1.61589e-05
-1.03603e-10
1.61589e-05
-1.00224e-10
1.61589e-05
-5.72604e-12
1.61589e-05
-2.51762e-12
1.61589e-05
7.22661e-13
1.61589e-05
-8.48748e-13
1.61589e-05
5.89907e-13
1.61589e-05
-4.85834e-13
1.61589e-05
3.49166e-13
1.61589e-05
-2.40477e-13
1.61589e-05
1.34482e-13
1.61589e-05
-3.83974e-14
1.61589e-05
-5.66675e-14
1.61589e-05
1.40134e-13
1.61589e-05
-2.55458e-13
1.61589e-05
1.46508e-13
1.61589e-05
-1.71036e-12
1.61589e-05
5.17354e-12
1.6159e-05
-1.27175e-10
-1.38036e-10
1.86513e-05
-9.90946e-11
1.86513e-05
-9.83698e-11
1.86513e-05
-5.84638e-12
1.86513e-05
-2.02493e-12
1.86513e-05
4.87414e-13
1.86513e-05
-5.89425e-13
1.86513e-05
4.02987e-13
1.86513e-05
-3.32326e-13
1.86513e-05
2.359e-13
1.86513e-05
-1.60035e-13
1.86513e-05
8.5473e-14
1.86513e-05
-1.77834e-14
1.86513e-05
-4.87908e-14
1.86513e-05
1.09136e-13
1.86513e-05
-1.88673e-13
1.86513e-05
7.00409e-14
1.86513e-05
-1.67138e-12
1.86513e-05
5.90938e-12
1.86514e-05
-1.40801e-10
-1.5125e-10
2.11462e-05
-8.75868e-11
2.11462e-05
-8.95344e-11
2.11462e-05
-5.50375e-12
2.11462e-05
-1.37929e-12
2.11462e-05
2.20506e-13
2.11462e-05
-2.85931e-13
2.11462e-05
1.86821e-13
2.11462e-05
-1.5425e-13
2.11462e-05
1.0522e-13
2.11462e-05
-6.76364e-14
2.11462e-05
2.99311e-14
2.11462e-05
4.48895e-15
2.11462e-05
-3.767e-14
2.11462e-05
7.07782e-14
2.11462e-05
-1.08348e-13
2.11462e-05
-1.56896e-14
2.11462e-05
-1.54772e-12
2.11462e-05
6.40813e-12
2.11462e-05
-1.47894e-10
-1.57409e-10
2.36436e-05
-7.04853e-11
2.36436e-05
-7.49543e-11
2.36436e-05
-4.75482e-12
2.36436e-05
-6.35197e-13
2.36436e-05
-6.01998e-14
2.36436e-05
3.89103e-14
2.36436e-05
-4.29278e-14
2.36436e-05
3.53031e-14
2.36436e-05
-3.33631e-14
2.36436e-05
3.00072e-14
2.36436e-05
-2.81681e-14
2.36436e-05
2.68951e-14
2.36436e-05
-2.4271e-14
2.36436e-05
2.79948e-14
2.36436e-05
-2.07104e-14
2.36436e-05
-1.04812e-13
2.36436e-05
-1.34838e-12
2.36436e-05
6.61444e-12
2.36436e-05
-1.4792e-10
-1.56029e-10
2.61436e-05
-4.97861e-11
2.61436e-05
-5.65051e-11
2.61436e-05
-3.71364e-12
2.61436e-05
1.44964e-13
2.61436e-05
-3.37449e-13
2.61436e-05
3.62002e-13
2.61436e-05
-2.70621e-13
2.61436e-05
2.23214e-13
2.61436e-05
-1.70375e-13
2.61436e-05
1.26243e-13
2.61436e-05
-8.49453e-14
2.61436e-05
4.80398e-14
2.61436e-05
-9.72072e-15
2.61436e-05
-1.6078e-14
2.61436e-05
6.77891e-14
2.61436e-05
-1.91277e-13
2.61436e-05
-1.0879e-12
2.61436e-05
6.49947e-12
2.61436e-05
-1.40991e-10
-1.47306e-10
2.86462e-05
-2.78623e-11
2.86462e-05
-3.64773e-11
2.86462e-05
-2.53544e-12
2.86462e-05
8.94077e-13
2.86462e-05
-5.94477e-13
2.86462e-05
6.60378e-13
2.86462e-05
-4.80807e-13
2.86462e-05
3.96506e-13
2.86462e-05
-2.9648e-13
2.86462e-05
2.14541e-13
2.86462e-05
-1.36638e-13
2.86462e-05
6.66393e-14
2.86462e-05
4.7507e-15
2.86462e-05
-5.81922e-14
2.86462e-05
1.50631e-13
2.86462e-05
-2.68979e-13
2.86462e-05
-7.86344e-13
2.86462e-05
6.06608e-12
2.86462e-05
-1.27836e-10
-1.32091e-10
3.11514e-05
-7.21221e-12
3.11514e-05
-1.73068e-11
3.11514e-05
-1.3934e-12
3.11514e-05
1.54421e-12
3.11514e-05
-8.14791e-13
3.11514e-05
9.11611e-13
3.11514e-05
-6.58381e-13
3.11514e-05
5.42507e-13
3.11514e-05
-4.02579e-13
3.11514e-05
2.88557e-13
3.11514e-05
-1.79614e-13
3.11514e-05
8.14969e-14
3.11514e-05
1.78754e-14
3.11514e-05
-9.50851e-14
3.11514e-05
2.21382e-13
3.11514e-05
-3.31921e-13
3.11514e-05
-4.68793e-13
3.11514e-05
5.35079e-12
3.11514e-05
-1.09735e-10
-1.11821e-10
3.3659e-05
9.82134e-12
3.3659e-05
-1.27187e-12
3.3659e-05
-4.50681e-13
3.3659e-05
2.03102e-12
3.3659e-05
-9.8189e-13
3.3659e-05
1.09419e-12
3.3659e-05
-7.88718e-13
3.3659e-05
6.49004e-13
3.3659e-05
-4.79888e-13
3.3659e-05
3.42171e-13
3.3659e-05
-2.10375e-13
3.3659e-05
9.147e-14
3.3659e-05
2.84185e-14
3.3659e-05
-1.23583e-13
3.3659e-05
2.73859e-13
3.3659e-05
-3.74399e-13
3.3659e-05
-1.64252e-13
3.3659e-05
4.42148e-12
3.3659e-05
-8.84052e-11
-8.8408e-11
3.61689e-05
2.13483e-11
3.61688e-05
9.82694e-12
3.61688e-05
1.68611e-13
3.61688e-05
2.29806e-12
3.61688e-05
-1.07897e-12
3.61688e-05
1.1879e-12
3.61688e-05
-8.57798e-13
3.61688e-05
7.04371e-13
3.61688e-05
-5.2001e-13
3.61688e-05
3.69534e-13
3.61688e-05
-2.25556e-13
3.61688e-05
9.54338e-14
3.61688e-05
3.52523e-14
3.61688e-05
-1.40706e-13
3.61688e-05
3.02284e-13
3.61688e-05
-3.91226e-13
3.61688e-05
9.60098e-14
3.61688e-05
3.37058e-12
3.61688e-05
-6.58556e-11
-6.40744e-11
3.86807e-05
2.62317e-11
3.86807e-05
1.49876e-11
3.86807e-05
4.04708e-13
3.86807e-05
2.30054e-12
3.86807e-05
-1.08872e-12
3.86807e-05
1.17414e-12
3.86807e-05
-8.5232e-13
3.86807e-05
6.97702e-13
3.86807e-05
-5.15e-13
3.86807e-05
3.65094e-13
3.86807e-05
-2.21917e-13
3.86807e-05
9.22406e-14
3.86807e-05
3.74308e-14
3.86807e-05
-1.43776e-13
3.86807e-05
3.01437e-13
3.86807e-05
-3.77983e-13
3.86807e-05
2.80553e-13
3.86807e-05
2.30348e-12
3.86807e-05
-4.4208e-11
-4.11646e-11
4.11943e-05
2.43771e-11
4.11943e-05
1.43114e-11
4.11943e-05
2.82227e-13
4.11943e-05
2.00874e-12
4.11943e-05
-9.92865e-13
4.11943e-05
1.03632e-12
4.11943e-05
-7.59785e-13
4.11943e-05
6.18943e-13
4.11943e-05
-4.57428e-13
4.11943e-05
3.23635e-13
4.11943e-05
-1.96338e-13
4.11943e-05
8.06835e-14
4.11943e-05
3.42713e-14
4.11943e-05
-1.30497e-13
4.11943e-05
2.66863e-13
4.11943e-05
-3.31131e-13
4.11943e-05
3.60586e-13
4.11943e-05
1.32487e-12
4.11942e-05
-2.54929e-11
-2.19209e-11
4.37092e-05
1.6994e-11
4.37092e-05
9.2643e-12
4.37092e-05
-8.79023e-14
4.37092e-05
1.40812e-12
4.37092e-05
-7.72426e-13
4.37092e-05
7.60074e-13
4.37092e-05
-5.68606e-13
4.37092e-05
4.58976e-13
4.37092e-05
-3.40422e-13
4.37092e-05
2.40293e-13
4.37092e-05
-1.45805e-13
4.37092e-05
5.94553e-14
4.37092e-05
2.54213e-14
4.37092e-05
-9.90554e-14
4.37092e-05
1.94982e-13
4.37092e-05
-2.48282e-13
4.37092e-05
3.12357e-13
4.37092e-05
5.20742e-13
4.37092e-05
-1.14335e-11
-8.24632e-12
4.62251e-05
6.79938e-12
4.62251e-05
3.04075e-12
4.62251e-05
-2.93344e-13
4.62251e-05
5.74909e-13
4.62251e-05
-3.81916e-13
4.62251e-05
3.41915e-13
4.62251e-05
-2.64979e-13
4.62251e-05
2.10579e-13
4.62251e-05
-1.5724e-13
4.62251e-05
1.10625e-13
4.62251e-05
-6.7269e-14
4.62251e-05
2.72462e-14
4.62251e-05
1.13484e-14
4.62251e-05
-4.68609e-14
4.62251e-05
8.66919e-14
4.62251e-05
-1.19286e-13
4.62251e-05
1.4494e-13
4.62251e-05
3.88395e-14
4.62251e-05
-2.9229e-12
-1.23988e-12
4.87416e-05
4.87416e-05
4.87416e-05
4.87416e-05
4.87416e-05
4.87416e-05
4.87416e-05
4.87416e-05
4.87416e-05
4.87416e-05
4.87416e-05
4.87416e-05
4.87416e-05
4.87416e-05
4.87416e-05
4.87416e-05
4.87416e-05
4.87416e-05
4.87416e-05
)
;

boundaryField
{
    top
    {
        type            calculated;
        value           uniform 0;
    }
    bottom
    {
        type            calculated;
        value           uniform 0;
    }
    inlet
    {
        type            calculated;
        value           nonuniform List<scalar> 
20
(
-1.2416e-06
-3.72503e-06
-6.20908e-06
-8.69415e-06
-1.11806e-05
-1.36688e-05
-1.61589e-05
-1.86513e-05
-2.11462e-05
-2.36436e-05
-2.61436e-05
-2.86462e-05
-3.11514e-05
-3.3659e-05
-3.61689e-05
-3.86807e-05
-4.11942e-05
-4.37092e-05
-4.62251e-05
-4.87416e-05
)
;
    }
    outlet
    {
        type            calculated;
        value           nonuniform List<scalar> 
20
(
1.24163e-06
3.72509e-06
6.20917e-06
8.69424e-06
1.11807e-05
1.36688e-05
1.6159e-05
1.86514e-05
2.11462e-05
2.36436e-05
2.61435e-05
2.86462e-05
3.11513e-05
3.3659e-05
3.61688e-05
3.86807e-05
4.11942e-05
4.37091e-05
4.62251e-05
4.87416e-05
)
;
    }
    frontAndBack
    {
        type            empty;
        value           nonuniform 0();
    }
}


// ************************************************************************* //
