/*--------------------------------*- C++ -*----------------------------------*\
| =========                 |                                                 |
| \\      /  F ield         | OpenFOAM: The Open Source CFD Toolbox           |
|  \\    /   O peration     | Version:  4.1                                   |
|   \\  /    A nd           | Web:      www.OpenFOAM.org                      |
|    \\/     M anipulation  |                                                 |
\*---------------------------------------------------------------------------*/
FoamFile
{
    version     2.0;
    format      ascii;
    class       volVectorField;
    location    "0.6";
    object      U;
}
// * * * * * * * * * * * * * * * * * * * * * * * * * * * * * * * * * * * * * //

dimensions      [0 1 -1 0 0 0 0];

internalField   nonuniform List<vector> 
400
(
(0.0248321 -4.86985e-09 0)
(0.0248323 -3.0315e-09 0)
(0.0248324 2.25254e-11 0)
(0.0248323 -3.34588e-10 0)
(0.0248324 1.88216e-10 0)
(0.0248323 -1.79921e-10 0)
(0.0248324 1.35672e-10 0)
(0.0248323 -1.09014e-10 0)
(0.0248324 8.08703e-11 0)
(0.0248323 -5.69124e-11 0)
(0.0248324 3.43568e-11 0)
(0.0248323 -1.36955e-11 0)
(0.0248324 -6.47922e-12 0)
(0.0248323 2.44663e-11 0)
(0.0248324 -4.67405e-11 0)
(0.0248323 5.26592e-11 0)
(0.0248324 -1.27414e-10 0)
(0.0248323 7.18811e-11 0)
(0.0248324 -1.97833e-09 0)
(0.0248326 -3.0079e-09 0)
(0.0745006 -1.84756e-08 0)
(0.0745012 -1.27623e-08 0)
(0.0745013 6.01278e-11 0)
(0.0745013 -1.03077e-09 0)
(0.0745013 5.9688e-10 0)
(0.0745013 -5.56237e-10 0)
(0.0745013 4.23594e-10 0)
(0.0745013 -3.38459e-10 0)
(0.0745013 2.51345e-10 0)
(0.0745013 -1.76326e-10 0)
(0.0745013 1.06021e-10 0)
(0.0745013 -4.13448e-11 0)
(0.0745013 -2.12919e-11 0)
(0.0745013 7.83369e-11 0)
(0.0745013 -1.46788e-10 0)
(0.0745013 1.64883e-10 0)
(0.0745013 -4.02821e-10 0)
(0.0745013 6.02445e-10 0)
(0.0745013 -9.88764e-09 0)
(0.0745019 -1.34868e-08 0)
(0.124182 -4.05291e-08 0)
(0.124182 -3.2347e-08 0)
(0.124183 -1.07454e-09 0)
(0.124182 -1.91879e-09 0)
(0.124183 8.85748e-10 0)
(0.124182 -9.10833e-10 0)
(0.124183 6.6819e-10 0)
(0.124182 -5.42198e-10 0)
(0.124183 3.99085e-10 0)
(0.124183 -2.80146e-10 0)
(0.124183 1.6689e-10 0)
(0.124183 -6.36919e-11 0)
(0.124183 -3.79385e-11 0)
(0.124183 1.26408e-10 0)
(0.124183 -2.45764e-10 0)
(0.124183 2.34707e-10 0)
(0.124183 -8.23255e-10 0)
(0.124183 1.05792e-09 0)
(0.124183 -2.70186e-08 0)
(0.124183 -3.30469e-08 0)
(0.173883 -6.30751e-08 0)
(0.173884 -5.39856e-08 0)
(0.173884 -2.31029e-09 0)
(0.173884 -2.51987e-09 0)
(0.173884 1.04259e-09 0)
(0.173884 -1.11545e-09 0)
(0.173884 8.06184e-10 0)
(0.173884 -6.57615e-10 0)
(0.173884 4.81751e-10 0)
(0.173884 -3.37491e-10 0)
(0.173884 1.99249e-10 0)
(0.173884 -7.36206e-11 0)
(0.173884 -5.06185e-11 0)
(0.173884 1.57713e-10 0)
(0.173884 -3.06923e-10 0)
(0.173884 2.68347e-10 0)
(0.173884 -1.16471e-09 0)
(0.173884 1.87961e-09 0)
(0.173884 -4.90491e-08 0)
(0.173885 -5.71563e-08 0)
(0.223612 -8.28256e-08 0)
(0.223613 -7.43344e-08 0)
(0.223613 -3.63784e-09 0)
(0.223613 -2.84959e-09 0)
(0.223613 1.06347e-09 0)
(0.223613 -1.1771e-09 0)
(0.223613 8.39741e-10 0)
(0.223613 -6.87919e-10 0)
(0.223613 5.01557e-10 0)
(0.223613 -3.50389e-10 0)
(0.223613 2.04704e-10 0)
(0.223613 -7.25682e-11 0)
(0.223613 -5.84671e-11 0)
(0.223613 1.70936e-10 0)
(0.223613 -3.30234e-10 0)
(0.223613 2.65189e-10 0)
(0.223613 -1.43303e-09 0)
(0.223613 2.79615e-09 0)
(0.223613 -7.34945e-08 0)
(0.223614 -8.30729e-08 0)
(0.273375 -9.69382e-08 0)
(0.273376 -9.00324e-08 0)
(0.273376 -4.76249e-09 0)
(0.273376 -2.90616e-09 0)
(0.273376 9.85669e-10 0)
(0.273376 -1.11923e-09 0)
(0.273376 7.90225e-10 0)
(0.273376 -6.49125e-10 0)
(0.273376 4.71016e-10 0)
(0.273376 -3.27742e-10 0)
(0.273376 1.89029e-10 0)
(0.273376 -6.33181e-11 0)
(0.273376 -6.141e-11 0)
(0.273376 1.68818e-10 0)
(0.273376 -3.20991e-10 0)
(0.273376 2.3472e-10 0)
(0.273376 -1.61376e-09 0)
(0.273376 3.78585e-09 0)
(0.273376 -9.75074e-08 0)
(0.273377 -1.08028e-07 0)
(0.323179 -1.03956e-07 0)
(0.323179 -9.92846e-08 0)
(0.323179 -5.55468e-09 0)
(0.323179 -2.71872e-09 0)
(0.323179 8.30062e-10 0)
(0.323179 -9.64466e-10 0)
(0.323179 6.74012e-10 0)
(0.323179 -5.54765e-10 0)
(0.323179 4.00212e-10 0)
(0.323179 -2.7684e-10 0)
(0.323179 1.56834e-10 0)
(0.323179 -4.80884e-11 0)
(0.323179 -5.96813e-11 0)
(0.323179 1.53425e-10 0)
(0.323179 -2.84614e-10 0)
(0.323179 1.81909e-10 0)
(0.323179 -1.70757e-09 0)
(0.323179 4.74429e-09 0)
(0.323179 -1.18829e-07 0)
(0.32318 -1.29755e-07 0)
(0.373027 -1.03213e-07 0)
(0.373027 -1.01135e-07 0)
(0.373027 -5.91205e-09 0)
(0.373027 -2.31497e-09 0)
(0.373027 6.15314e-10 0)
(0.373027 -7.32903e-10 0)
(0.373027 5.05673e-10 0)
(0.373027 -4.16829e-10 0)
(0.373027 2.98055e-10 0)
(0.373027 -2.04075e-10 0)
(0.373027 1.12106e-10 0)
(0.373027 -2.8704e-11 0)
(0.373027 -5.3647e-11 0)
(0.373027 1.26823e-10 0)
(0.373027 -2.26118e-10 0)
(0.373027 1.11609e-10 0)
(0.373027 -1.71226e-09 0)
(0.373027 5.58274e-09 0)
(0.373027 -1.35503e-07 0)
(0.373027 -1.46287e-07 0)
(0.422924 -9.49424e-08 0)
(0.422923 -9.55769e-08 0)
(0.422924 -5.79432e-09 0)
(0.422923 -1.73363e-09 0)
(0.422924 3.59707e-10 0)
(0.422923 -4.45889e-10 0)
(0.422923 3.00261e-10 0)
(0.422923 -2.47806e-10 0)
(0.422923 1.73727e-10 0)
(0.422923 -1.15987e-10 0)
(0.422923 5.88346e-11 0)
(0.422923 -6.86487e-12 0)
(0.422923 -4.39335e-11 0)
(0.422923 9.14516e-11 0)
(0.422923 -1.5105e-10 0)
(0.422923 2.91235e-11 0)
(0.422923 -1.62931e-09 0)
(0.422923 6.21769e-09 0)
(0.422923 -1.46075e-07 0)
(0.422924 -1.56179e-07 0)
(0.472872 -8.02042e-08 0)
(0.472871 -8.34713e-08 0)
(0.472871 -5.22569e-09 0)
(0.472871 -1.02432e-09 0)
(0.472871 8.14646e-11 0)
(0.472871 -1.25956e-10 0)
(0.472871 7.33813e-11 0)
(0.472871 -6.07044e-11 0)
(0.472871 3.67156e-11 0)
(0.472871 -1.92901e-11 0)
(0.472871 1.03005e-12 0)
(0.472871 1.58393e-11 0)
(0.472871 -3.14095e-11 0)
(0.472871 5.01188e-11 0)
(0.472871 -6.54729e-11 0)
(0.472871 -5.97781e-11 0)
(0.472871 -1.4649e-09 0)
(0.472871 6.58242e-09 0)
(0.472871 -1.49686e-07 0)
(0.472871 -1.58605e-07 0)
(0.522872 -6.07468e-08 0)
(0.522871 -6.6424e-08 0)
(0.522872 -4.29444e-09 0)
(0.522871 -2.46131e-10 0)
(0.522871 -2.01816e-10 0)
(0.522871 2.03802e-10 0)
(0.522871 -1.59241e-10 0)
(0.522871 1.31306e-10 0)
(0.522871 -1.03443e-10 0)
(0.522871 7.93037e-11 0)
(0.522871 -5.73661e-11 0)
(0.522871 3.7949e-11 0)
(0.522871 -1.7136e-11 0)
(0.522871 5.88601e-12 0)
(0.522871 2.4229e-11 0)
(0.522871 -1.49094e-10 0)
(0.522871 -1.23073e-09 0)
(0.522871 6.63313e-09 0)
(0.522871 -1.46126e-07 0)
(0.522871 -1.53421e-07 0)
(0.572925 -3.8814e-08 0)
(0.572924 -4.65806e-08 0)
(0.572924 -3.14033e-09 0)
(0.572924 5.35294e-10 0)
(0.572924 -4.73141e-10 0)
(0.572924 5.20232e-10 0)
(0.572924 -3.82004e-10 0)
(0.572924 3.15121e-10 0)
(0.572924 -2.37309e-10 0)
(0.572924 1.73182e-10 0)
(0.572924 -1.12525e-10 0)
(0.572924 5.81285e-11 0)
(0.572924 -2.30783e-12 0)
(0.572924 -3.80279e-11 0)
(0.572924 1.11527e-10 0)
(0.572924 -2.32706e-10 0)
(0.572924 -9.44167e-10 0)
(0.572924 6.35575e-09 0)
(0.572924 -1.35828e-07 0)
(0.572923 -1.41161e-07 0)
(0.623029 -1.69093e-08 0)
(0.623027 -2.63767e-08 0)
(0.623028 -1.93421e-09 0)
(0.623027 1.25136e-09 0)
(0.623028 -7.15892e-10 0)
(0.623028 8.00506e-10 0)
(0.623028 -5.79566e-10 0)
(0.623028 4.77856e-10 0)
(0.623028 -3.55628e-10 0)
(0.623028 2.55883e-10 0)
(0.623028 -1.60739e-10 0)
(0.623028 7.51421e-11 0)
(0.623028 1.18077e-11 0)
(0.623028 -7.83369e-11 0)
(0.623028 1.89895e-10 0)
(0.623028 -3.04506e-10 0)
(0.623028 -6.2799e-10 0)
(0.623028 5.76985e-09 0)
(0.623028 -1.19818e-07 0)
(0.623027 -1.22994e-07 0)
(0.673181 2.47727e-09 0)
(0.67318 -8.24471e-09 0)
(0.67318 -8.51178e-10 0)
(0.67318 1.8351e-09 0)
(0.67318 -9.13615e-10 0)
(0.67318 1.02262e-09 0)
(0.67318 -7.37048e-10 0)
(0.67318 6.07058e-10 0)
(0.67318 -4.49452e-10 0)
(0.67318 3.21175e-10 0)
(0.67318 -1.98451e-10 0)
(0.67318 8.78323e-11 0)
(0.67318 2.3943e-11 0)
(0.67318 -1.11798e-10 0)
(0.67318 2.53007e-10 0)
(0.67318 -3.58572e-10 0)
(0.67318 -3.09494e-10 0)
(0.67318 4.92876e-09 0)
(0.67318 -9.9629e-08 0)
(0.673179 -1.00628e-07 0)
(0.723378 1.71536e-08 0)
(0.723377 5.68945e-09 0)
(0.723377 -4.3179e-11 0)
(0.723377 2.22566e-09 0)
(0.723377 -1.05023e-09 0)
(0.723377 1.166e-09 0)
(0.723377 -8.40418e-10 0)
(0.723377 6.9102e-10 0)
(0.723377 -5.10361e-10 0)
(0.723377 3.63195e-10 0)
(0.723377 -2.2231e-10 0)
(0.723377 9.51063e-11 0)
(0.723377 3.29114e-11 0)
(0.723377 -1.35367e-10 0)
(0.723377 2.94929e-10 0)
(0.723377 -3.89581e-10 0)
(0.723377 -1.91053e-11 0)
(0.723377 3.91512e-09 0)
(0.723377 -7.71658e-08 0)
(0.723376 -7.61745e-08 0)
(0.773614 2.55325e-08 0)
(0.773614 1.39415e-08 0)
(0.773614 3.90943e-10 0)
(0.773614 2.37215e-09 0)
(0.773614 -1.10923e-09 0)
(0.773614 1.21157e-09 0)
(0.773614 -8.76311e-10 0)
(0.773614 7.18697e-10 0)
(0.773614 -5.30359e-10 0)
(0.773614 3.76368e-10 0)
(0.773614 -2.29093e-10 0)
(0.773614 9.58699e-11 0)
(0.773614 3.7671e-11 0)
(0.773614 -1.46247e-10 0)
(0.773614 3.10243e-10 0)
(0.773614 -3.92746e-10 0)
(0.773614 2.1148e-10 0)
(0.773614 2.83002e-09 0)
(0.773614 -5.45358e-08 0)
(0.773613 -5.19598e-08 0)
(0.823885 2.67951e-08 0)
(0.823885 1.58754e-08 0)
(0.823885 4.12718e-10 0)
(0.823885 2.22596e-09 0)
(0.823885 -1.07142e-09 0)
(0.823885 1.13784e-09 0)
(0.823885 -8.29651e-10 0)
(0.823885 6.77599e-10 0)
(0.823885 -5.00352e-10 0)
(0.823885 3.54295e-10 0)
(0.823885 -2.15027e-10 0)
(0.823885 8.87021e-11 0)
(0.823885 3.72504e-11 0)
(0.823885 -1.41606e-10 0)
(0.823885 2.92923e-10 0)
(0.823885 -3.63931e-10 0)
(0.823885 3.48456e-10 0)
(0.823885 1.78031e-09 0)
(0.823885 -3.38547e-08 0)
(0.823884 -3.03361e-08 0)
(0.874183 2.17289e-08 0)
(0.874183 1.26615e-08 0)
(0.874184 1.75198e-10 0)
(0.874183 1.77e-09 0)
(0.874184 -9.00547e-10 0)
(0.874183 9.22843e-10 0)
(0.874184 -6.80434e-10 0)
(0.874183 5.52809e-10 0)
(0.874184 -4.08894e-10 0)
(0.874183 2.89024e-10 0)
(0.874184 -1.7523e-10 0)
(0.874183 7.16634e-11 0)
(0.874184 3.09305e-11 0)
(0.874183 -1.17733e-10 0)
(0.874184 2.38023e-10 0)
(0.874183 -2.93282e-10 0)
(0.874184 3.66135e-10 0)
(0.874183 8.64192e-10 0)
(0.874184 -1.70809e-08 0)
(0.874183 -1.35044e-08 0)
(0.924502 1.18222e-08 0)
(0.924502 5.85611e-09 0)
(0.924502 -2.94981e-10 0)
(0.924502 9.88399e-10 0)
(0.924502 -6.01581e-10 0)
(0.924502 5.60558e-10 0)
(0.924502 -4.27957e-10 0)
(0.924502 3.42355e-10 0)
(0.924502 -2.54874e-10 0)
(0.924502 1.79547e-10 0)
(0.924502 -1.09043e-10 0)
(0.924502 4.42421e-11 0)
(0.924502 1.87701e-11 0)
(0.924502 -7.53805e-11 0)
(0.924502 1.42493e-10 0)
(0.924502 -1.91837e-10 0)
(0.924502 2.39207e-10 0)
(0.924502 2.01198e-10 0)
(0.924502 -5.93074e-09 0)
(0.924502 -3.33408e-09 0)
(0.974832 3.81343e-09 0)
(0.974833 1.91195e-09 0)
(0.974833 -7.03833e-11 0)
(0.974833 3.24238e-10 0)
(0.974833 -1.89155e-10 0)
(0.974833 1.80716e-10 0)
(0.974833 -1.36404e-10 0)
(0.974833 1.09657e-10 0)
(0.974833 -8.14715e-11 0)
(0.974833 5.74526e-11 0)
(0.974833 -3.48685e-11 0)
(0.974833 1.41798e-11 0)
(0.974833 6.06431e-12 0)
(0.974833 -2.38078e-11 0)
(0.974833 4.67432e-11 0)
(0.974833 -5.66301e-11 0)
(0.974833 8.93487e-11 0)
(0.974833 -5.07546e-12 0)
(0.974833 -8.26709e-10 0)
(0.974832 8.65095e-11 0)
)
;

boundaryField
{
    top
    {
        type            fixedValue;
        value           uniform (1 0 0);
    }
    bottom
    {
        type            fixedValue;
        value           uniform (0 0 0);
    }
    inlet
    {
        type            zeroGradient;
    }
    outlet
    {
        type            zeroGradient;
    }
    frontAndBack
    {
        type            empty;
    }
}


// ************************************************************************* //
