/*--------------------------------*- C++ -*----------------------------------*\
| =========                 |                                                 |
| \\      /  F ield         | OpenFOAM: The Open Source CFD Toolbox           |
|  \\    /   O peration     | Version:  4.1                                   |
|   \\  /    A nd           | Web:      www.OpenFOAM.org                      |
|    \\/     M anipulation  |                                                 |
\*---------------------------------------------------------------------------*/
FoamFile
{
    version     2.0;
    format      ascii;
    class       surfaceScalarField;
    location    "4.9";
    object      phi;
}
// * * * * * * * * * * * * * * * * * * * * * * * * * * * * * * * * * * * * * //

dimensions      [0 3 -1 0 0 0 0];

internalField   nonuniform List<scalar> 
760
(
-1.91641e-05
9.34465e-13
-1.91641e-05
9.93276e-13
-1.91641e-05
1.8243e-12
-1.91641e-05
1.15143e-12
-1.91641e-05
2.64391e-12
-1.91641e-05
1.40656e-12
-1.91641e-05
3.05801e-12
-1.91641e-05
1.5601e-12
-1.91641e-05
3.11537e-12
-1.91641e-05
1.65226e-12
-1.91641e-05
2.80797e-12
-1.91641e-05
1.6251e-12
-1.91641e-05
2.26182e-12
-1.91641e-05
1.51729e-12
-1.91641e-05
1.44985e-12
-1.91641e-05
1.29838e-12
-1.91641e-05
8.43938e-13
-1.91641e-05
7.3747e-13
-1.91641e-05
-1.99735e-13
1.17858e-12
-5.11594e-05
9.5928e-13
-5.11594e-05
2.75724e-13
-5.11594e-05
6.17537e-13
-5.11594e-05
-9.24257e-13
-5.11594e-05
8.93758e-13
-5.11594e-05
-1.36688e-12
-5.11594e-05
8.51885e-13
-5.11594e-05
-1.47602e-12
-5.11594e-05
6.20779e-13
-5.11594e-05
-1.24736e-12
-5.11594e-05
1.91478e-13
-5.11594e-05
-8.51876e-13
-5.11594e-05
-2.47475e-13
-5.11594e-05
-3.21131e-13
-5.11594e-05
-7.96618e-13
-5.11594e-05
1.65035e-13
-5.11594e-05
-7.40487e-13
-5.11594e-05
1.51902e-13
-5.11594e-05
-1.43726e-12
2.25261e-12
-7.68219e-05
8.37805e-13
-7.68219e-05
-6.06898e-13
-7.68219e-05
-1.19277e-12
-7.68219e-05
-3.23251e-12
-7.68219e-05
-1.60703e-12
-7.68219e-05
-4.3711e-12
-7.68219e-05
-2.17136e-12
-7.68219e-05
-4.68317e-12
-7.68219e-05
-2.69225e-12
-7.68219e-05
-4.25024e-12
-7.68219e-05
-3.16407e-12
-7.68219e-05
-3.36595e-12
-7.68219e-05
-3.35213e-12
-7.68219e-05
-2.15453e-12
-7.68219e-05
-3.41671e-12
-7.68219e-05
-9.46519e-13
-7.68219e-05
-2.49651e-12
-7.68219e-05
-3.70067e-13
-7.68219e-05
-2.62847e-12
3.52372e-12
-9.61516e-05
1.01842e-12
-9.61516e-05
-1.12361e-12
-9.61516e-05
-2.53086e-12
-9.61516e-05
-4.9906e-12
-9.61516e-05
-3.40504e-12
-9.61516e-05
-6.76148e-12
-9.61516e-05
-4.31357e-12
-9.61516e-05
-7.26607e-12
-9.61516e-05
-5.04213e-12
-9.61516e-05
-6.6854e-12
-9.61516e-05
-5.55735e-12
-9.61516e-05
-5.41385e-12
-9.61516e-05
-5.5829e-12
-9.61516e-05
-3.65642e-12
-9.61516e-05
-5.3185e-12
-9.61516e-05
-1.86279e-12
-9.61516e-05
-3.77648e-12
-9.61516e-05
-8.16077e-13
-9.61516e-05
-3.56656e-12
4.7546e-12
-0.000109148
1.42474e-12
-0.000109148
-1.35703e-12
-0.000109148
-3.31471e-12
-0.000109148
-6.2034e-12
-0.000109148
-4.38755e-12
-0.000109148
-8.47994e-12
-0.000109148
-5.44139e-12
-0.000109148
-9.13147e-12
-0.000109148
-6.28613e-12
-0.000109148
-8.43279e-12
-0.000109148
-6.85221e-12
-0.000109148
-6.86517e-12
-0.000109148
-6.82322e-12
-0.000109148
-4.69408e-12
-0.000109148
-6.41309e-12
-0.000109148
-2.47354e-12
-0.000109148
-4.51715e-12
-0.000109148
-1.07401e-12
-0.000109148
-4.24092e-12
5.90125e-12
-0.000115812
1.93552e-12
-0.000115812
-1.50112e-12
-0.000115812
-3.71985e-12
-0.000115812
-7.13229e-12
-0.000115812
-4.85755e-12
-0.000115812
-9.84211e-12
-0.000115813
-5.94144e-12
-0.000115812
-1.06299e-11
-0.000115813
-6.84668e-12
-0.000115812
-9.84833e-12
-0.000115813
-7.4618e-12
-0.000115812
-8.05087e-12
-0.000115813
-7.44107e-12
-0.000115813
-5.54734e-12
-0.000115813
-6.98912e-12
-0.000115813
-2.99345e-12
-0.000115813
-4.91996e-12
-0.000115813
-1.25532e-12
-0.000115813
-4.73172e-12
6.79476e-12
-0.000116144
2.47666e-12
-0.000116144
-1.66735e-12
-0.000116144
-3.85273e-12
-0.000116144
-7.90212e-12
-0.000116144
-5.00404e-12
-0.000116144
-1.0981e-11
-0.000116144
-6.06202e-12
-0.000116144
-1.1899e-11
-0.000116144
-6.9984e-12
-0.000116144
-1.10658e-11
-0.000116144
-7.65814e-12
-0.000116144
-9.09125e-12
-0.000116144
-7.6809e-12
-0.000116144
-6.31656e-12
-0.000116144
-7.23831e-12
-0.000116144
-3.49892e-12
-0.000116144
-5.11991e-12
-0.000116144
-1.40114e-12
-0.000116144
-5.07649e-12
7.32862e-12
-0.000110142
3.01331e-12
-0.000110142
-1.90001e-12
-0.000110142
-3.77923e-12
-0.000110142
-8.54369e-12
-0.000110142
-4.94189e-12
-0.000110142
-1.19164e-11
-0.000110142
-5.96096e-12
-0.000110142
-1.29509e-11
-0.000110142
-6.92107e-12
-0.000110142
-1.2093e-11
-0.000110142
-7.62225e-12
-0.000110142
-9.99049e-12
-0.000110142
-7.70698e-12
-0.000110142
-7.00663e-12
-0.000110142
-7.29006e-12
-0.000110142
-3.99425e-12
-0.000110142
-5.20943e-12
-0.000110142
-1.52374e-12
-0.000110142
-5.28394e-12
7.45075e-12
-9.78078e-05
3.53361e-12
-9.78078e-05
-2.19817e-12
-9.78078e-05
-3.54185e-12
-9.78078e-05
-9.03823e-12
-9.78078e-05
-4.73256e-12
-9.78078e-05
-1.2615e-11
-9.78078e-05
-5.72423e-12
-9.78078e-05
-1.37413e-11
-9.78078e-05
-6.7129e-12
-9.78078e-05
-1.28823e-11
-9.78078e-05
-7.45406e-12
-9.78078e-05
-1.07025e-11
-9.78078e-05
-7.61007e-12
-9.78078e-05
-7.58131e-12
-9.78078e-05
-7.21596e-12
-9.78078e-05
-4.45002e-12
-9.78078e-05
-5.24128e-12
-9.78078e-05
-1.62488e-12
-9.78078e-05
-5.34451e-12
7.15994e-12
-7.91406e-05
4.02893e-12
-7.91406e-05
-2.53462e-12
-7.91406e-05
-3.17979e-12
-7.91406e-05
-9.3501e-12
-7.91406e-05
-4.41251e-12
-7.91406e-05
-1.30289e-11
-7.91406e-05
-5.39784e-12
-7.91406e-05
-1.42118e-11
-7.91406e-05
-6.42314e-12
-7.91406e-05
-1.33725e-11
-7.91406e-05
-7.20241e-12
-7.91406e-05
-1.11682e-11
-7.91406e-05
-7.43231e-12
-7.91406e-05
-7.9924e-12
-7.91406e-05
-7.04919e-12
-7.91406e-05
-4.8233e-12
-7.91406e-05
-5.23819e-12
-7.91406e-05
-1.70251e-12
-7.91406e-05
-5.24298e-12
6.50475e-12
-5.41406e-05
4.47908e-12
-5.41406e-05
-2.86963e-12
-5.41406e-05
-2.73875e-12
-5.41406e-05
-9.45042e-12
-5.41406e-05
-4.01315e-12
-5.41406e-05
-1.31232e-11
-5.41406e-05
-5.01193e-12
-5.41406e-05
-1.43208e-11
-5.41406e-05
-6.07758e-12
-5.41406e-05
-1.35193e-11
-5.41406e-05
-6.88941e-12
-5.41406e-05
-1.13432e-11
-5.41406e-05
-7.18857e-12
-5.41406e-05
-8.20175e-12
-5.41406e-05
-6.80174e-12
-5.41406e-05
-5.07424e-12
-5.41406e-05
-5.20266e-12
-5.41406e-05
-1.75503e-12
-5.41406e-05
-4.97235e-12
5.57279e-12
-2.28078e-05
4.84283e-12
-2.28078e-05
-3.16037e-12
-2.28078e-05
-2.27061e-12
-2.28078e-05
-9.32623e-12
-2.28078e-05
-3.56917e-12
-2.28078e-05
-1.28857e-11
-2.28078e-05
-4.59282e-12
-2.28078e-05
-1.40534e-11
-2.28078e-05
-5.69291e-12
-2.28078e-05
-1.33041e-11
-2.28078e-05
-6.52518e-12
-2.28078e-05
-1.12064e-11
-2.28078e-05
-6.88047e-12
-2.28078e-05
-8.18717e-12
-2.28078e-05
-6.47636e-12
-2.28078e-05
-5.17207e-12
-2.28078e-05
-5.12459e-12
-2.28078e-05
-1.77907e-12
-2.28078e-05
-4.54404e-12
4.4758e-12
1.48578e-05
5.0578e-12
1.48578e-05
-3.3664e-12
1.48578e-05
-1.82419e-12
1.48578e-05
-8.97666e-12
1.48578e-05
-3.11456e-12
1.48578e-05
-1.23193e-11
1.48578e-05
-4.16117e-12
1.48578e-05
-1.34128e-11
1.48578e-05
-5.27726e-12
1.48578e-05
-1.27256e-11
1.48578e-05
-6.10998e-12
1.48578e-05
-1.07514e-11
1.48578e-05
-6.49991e-12
1.48578e-05
-7.93471e-12
1.48578e-05
-6.07016e-12
1.48578e-05
-5.092e-12
1.48578e-05
-4.98455e-12
1.48578e-05
-1.76265e-12
1.48578e-05
-3.9906e-12
3.33293e-12
5.88562e-05
5.04896e-12
5.88562e-05
-3.4512e-12
5.88562e-05
-1.43006e-12
5.88562e-05
-8.39779e-12
5.88562e-05
-2.66696e-12
5.88562e-05
-1.14224e-11
5.88562e-05
-3.71629e-12
5.88562e-05
-1.23967e-11
5.88562e-05
-4.81622e-12
5.88562e-05
-1.17754e-11
5.88562e-05
-5.62222e-12
5.88562e-05
-9.96472e-12
5.88562e-05
-6.02053e-12
5.88562e-05
-7.42071e-12
5.88562e-05
-5.5677e-12
5.88562e-05
-4.80502e-12
5.88562e-05
-4.75109e-12
5.88562e-05
-1.67681e-12
5.88562e-05
-3.35899e-12
2.25622e-12
0.000109187
4.74661e-12
0.000109187
-3.38092e-12
0.000109187
-1.0906e-12
0.000109187
-7.5652e-12
0.000109187
-2.21334e-12
0.000109187
-1.01634e-11
0.000109187
-3.22077e-12
0.000109187
-1.09669e-11
0.000109187
-4.25775e-12
0.000109187
-1.04065e-11
0.000109187
-5.00433e-12
0.000109187
-8.79613e-12
0.000109187
-5.38577e-12
0.000109187
-6.58785e-12
0.000109187
-4.92986e-12
0.000109187
-4.26191e-12
0.000109187
-4.37365e-12
0.000109187
-1.46903e-12
0.000109187
-2.69361e-12
1.34307e-12
0.000165852
4.12489e-12
0.000165852
-3.11107e-12
0.000165852
-7.52196e-13
0.000165852
-6.40683e-12
0.000165852
-1.66838e-12
0.000165852
-8.45027e-12
0.000165852
-2.55303e-12
0.000165852
-9.01844e-12
0.000165852
-3.46318e-12
0.000165852
-8.50412e-12
0.000165852
-4.11649e-12
0.000165852
-7.13305e-12
0.000165852
-4.46935e-12
0.000165852
-5.32469e-12
0.000165852
-4.061e-12
0.000165852
-3.38196e-12
0.000165852
-3.76455e-12
0.000165852
-1.06115e-12
0.000165852
-2.01121e-12
6.72617e-13
0.000228848
3.26231e-12
0.000228848
-2.55142e-12
0.000228848
-2.54688e-13
0.000228848
-4.74136e-12
0.000228848
-7.90643e-13
0.000228848
-6.0448e-12
0.000228848
-1.40771e-12
0.000228848
-6.27585e-12
0.000228848
-2.10158e-12
0.000228848
-5.77868e-12
0.000228848
-2.63487e-12
0.000228848
-4.69875e-12
0.000228848
-2.98557e-12
0.000228848
-3.38403e-12
0.000228848
-2.73549e-12
0.000228848
-1.98719e-12
0.000228848
-2.75319e-12
0.000228848
-3.22616e-13
0.000228848
-1.25849e-12
3.16575e-13
0.000298178
2.10473e-12
0.000298178
-1.78978e-12
0.000298178
2.3014e-13
0.000298178
-2.71773e-12
0.000298178
1.78489e-13
0.000298178
-3.15007e-12
0.000298178
-5.39596e-14
0.000298178
-2.97683e-12
0.000298178
-4.38777e-13
0.000298178
-2.47612e-12
0.000298178
-7.97614e-13
0.000298178
-1.7263e-12
0.000298178
-1.12354e-12
0.000298178
-9.64953e-13
0.000298178
-1.08254e-12
0.000298178
-2.37558e-13
0.000298178
-1.38071e-12
0.000298178
6.25243e-13
0.000298178
-4.23851e-13
2.88072e-13
0.000373841
1.03547e-12
0.000373841
-5.75897e-13
0.000373841
1.01953e-12
0.000373841
-4.2165e-14
0.000373841
1.65407e-12
0.000373841
5.57019e-13
0.000373841
1.96671e-12
0.000373841
1.20653e-12
0.000373841
1.98075e-12
0.000373841
1.70553e-12
0.000373841
1.80797e-12
0.000373841
2.03752e-12
0.000373841
1.45464e-12
0.000373841
2.10996e-12
0.000373841
1.14902e-12
0.000373841
1.96224e-12
0.000373841
4.94912e-13
0.000373841
1.77866e-12
0.000373841
5.7145e-13
5.53565e-13
0.000455836
0.000455836
0.000455836
0.000455836
0.000455836
0.000455836
0.000455836
0.000455836
0.000455836
0.000455836
0.000455836
0.000455836
0.000455836
0.000455836
0.000455836
0.000455836
0.000455836
0.000455836
0.000455836
)
;

boundaryField
{
    top
    {
        type            calculated;
        value           uniform 0;
    }
    bottom
    {
        type            calculated;
        value           uniform 0;
    }
    inlet
    {
        type            calculated;
        value           nonuniform List<scalar> 
20
(
1.91641e-05
5.11594e-05
7.68219e-05
9.61516e-05
0.000109148
0.000115812
0.000116144
0.000110142
9.78078e-05
7.91406e-05
5.41406e-05
2.28078e-05
-1.48578e-05
-5.88562e-05
-0.000109187
-0.000165852
-0.000228848
-0.000298178
-0.000373841
-0.000455836
)
;
    }
    outlet
    {
        type            calculated;
        value           nonuniform List<scalar> 
20
(
-1.91641e-05
-5.11594e-05
-7.68219e-05
-9.61516e-05
-0.000109148
-0.000115813
-0.000116144
-0.000110142
-9.78078e-05
-7.91406e-05
-5.41406e-05
-2.28078e-05
1.48578e-05
5.88563e-05
0.000109188
0.000165852
0.000228848
0.000298178
0.000373841
0.000455836
)
;
    }
    frontAndBack
    {
        type            empty;
        value           nonuniform 0();
    }
}


// ************************************************************************* //
