/*--------------------------------*- C++ -*----------------------------------*\
| =========                 |                                                 |
| \\      /  F ield         | OpenFOAM: The Open Source CFD Toolbox           |
|  \\    /   O peration     | Version:  4.1                                   |
|   \\  /    A nd           | Web:      www.OpenFOAM.org                      |
|    \\/     M anipulation  |                                                 |
\*---------------------------------------------------------------------------*/
FoamFile
{
    version     2.0;
    format      ascii;
    class       volVectorField;
    location    "4.9";
    object      U;
}
// * * * * * * * * * * * * * * * * * * * * * * * * * * * * * * * * * * * * * //

dimensions      [0 1 -1 0 0 0 0];

internalField   nonuniform List<vector> 
400
(
(-0.383281 1.6093e-10 0)
(-0.383281 -1.02848e-10 0)
(-0.383281 -1.29398e-10 0)
(-0.383281 -5.11311e-10 0)
(-0.383281 -3.00389e-10 0)
(-0.383281 -7.8777e-10 0)
(-0.383281 -4.48636e-10 0)
(-0.383281 -9.47234e-10 0)
(-0.383281 -5.53936e-10 0)
(-0.383281 -9.84976e-10 0)
(-0.383281 -6.20545e-10 0)
(-0.383281 -9.22999e-10 0)
(-0.383281 -6.32108e-10 0)
(-0.383281 -7.69414e-10 0)
(-0.383281 -6.14057e-10 0)
(-0.383281 -5.60843e-10 0)
(-0.383281 -4.89548e-10 0)
(-0.383281 -3.64271e-10 0)
(-0.383281 -4.33291e-10 0)
(-0.383281 9.31502e-11 0)
(-1.02319 1.05909e-09 0)
(-1.02319 1.0312e-09 0)
(-1.02319 2.07202e-09 0)
(-1.02319 9.96487e-10 0)
(-1.02319 3.11661e-09 0)
(-1.02319 1.32539e-09 0)
(-1.02319 3.59504e-09 0)
(-1.02319 1.61022e-09 0)
(-1.02319 3.61021e-09 0)
(-1.02319 1.8982e-09 0)
(-1.02319 3.15975e-09 0)
(-1.02319 2.04586e-09 0)
(-1.02319 2.4417e-09 0)
(-1.02319 2.09058e-09 0)
(-1.02319 1.40963e-09 0)
(-1.02319 1.92303e-09 0)
(-1.02319 7.95352e-10 0)
(-1.02319 1.22943e-09 0)
(-1.02319 -5.87125e-10 0)
(-1.02319 2.1619e-09 0)
(-1.53644 6.69735e-10 0)
(-1.53644 -5.94952e-10 0)
(-1.53644 -9.85576e-10 0)
(-1.53644 -2.91391e-09 0)
(-1.53644 -1.4914e-09 0)
(-1.53644 -4.04095e-09 0)
(-1.53644 -2.06693e-09 0)
(-1.53644 -4.45637e-09 0)
(-1.53644 -2.55261e-09 0)
(-1.53644 -4.2031e-09 0)
(-1.53644 -2.96215e-09 0)
(-1.53644 -3.50649e-09 0)
(-1.53644 -3.10726e-09 0)
(-1.53644 -2.46484e-09 0)
(-1.53644 -3.13145e-09 0)
(-1.53644 -1.35849e-09 0)
(-1.53644 -2.33861e-09 0)
(-1.53644 -7.01249e-10 0)
(-1.53644 -2.36104e-09 0)
(-1.53644 2.47925e-09 0)
(-1.92303 9.83191e-10 0)
(-1.92303 -7.56454e-10 0)
(-1.92303 -1.63511e-09 0)
(-1.92303 -3.8575e-09 0)
(-1.92303 -2.14773e-09 0)
(-1.92303 -5.2007e-09 0)
(-1.92303 -2.79607e-09 0)
(-1.92303 -5.53947e-09 0)
(-1.92303 -3.38083e-09 0)
(-1.92303 -5.00469e-09 0)
(-1.92303 -3.88981e-09 0)
(-1.92303 -3.94256e-09 0)
(-1.92303 -4.05439e-09 0)
(-1.92303 -2.50972e-09 0)
(-1.92303 -4.04328e-09 0)
(-1.92303 -1.09767e-09 0)
(-1.92303 -2.9184e-09 0)
(-1.92303 -3.7875e-10 0)
(-1.92303 -3.01889e-09 0)
(-1.92303 4.23872e-09 0)
(-2.18297 1.27201e-09 0)
(-2.18297 -1.21018e-09 0)
(-2.18297 -2.86066e-09 0)
(-2.18297 -5.54294e-09 0)
(-2.18297 -3.80026e-09 0)
(-2.18297 -7.56346e-09 0)
(-2.18297 -4.75642e-09 0)
(-2.18297 -8.14001e-09 0)
(-2.18297 -5.53292e-09 0)
(-2.18297 -7.50614e-09 0)
(-2.18297 -6.07465e-09 0)
(-2.18297 -6.09513e-09 0)
(-2.18297 -6.08725e-09 0)
(-2.18297 -4.14191e-09 0)
(-2.18297 -5.77208e-09 0)
(-2.18297 -2.14668e-09 0)
(-2.18297 -4.09275e-09 0)
(-2.18297 -9.24153e-10 0)
(-2.18297 -3.87594e-09 0)
(-2.18297 5.33036e-09 0)
(-2.31625 1.72877e-09 0)
(-2.31625 -1.40772e-09 0)
(-2.31625 -3.49257e-09 0)
(-2.31625 -6.6332e-09 0)
(-2.31625 -4.56449e-09 0)
(-2.31625 -9.12762e-09 0)
(-2.31625 -5.60668e-09 0)
(-2.31625 -9.84436e-09 0)
(-2.31625 -6.46708e-09 0)
(-2.31625 -9.10592e-09 0)
(-2.31625 -7.05268e-09 0)
(-2.31625 -7.42731e-09 0)
(-2.31625 -7.03385e-09 0)
(-2.31625 -5.09655e-09 0)
(-2.31625 -6.61538e-09 0)
(-2.31625 -2.71466e-09 0)
(-2.31625 -4.66377e-09 0)
(-2.31625 -1.1475e-09 0)
(-2.31625 -4.447e-09 0)
(-2.31625 6.37588e-09 0)
(-2.32287 2.25037e-09 0)
(-2.32287 -1.56855e-09 0)
(-2.32287 -3.79688e-09 0)
(-2.32287 -7.49563e-09 0)
(-2.32287 -4.91252e-09 0)
(-2.32287 -1.0392e-08 0)
(-2.32288 -5.95989e-09 0)
(-2.32287 -1.12401e-08 0)
(-2.32288 -6.86575e-09 0)
(-2.32287 -1.04314e-08 0)
(-2.32288 -7.49326e-09 0)
(-2.32288 -8.54587e-09 0)
(-2.32288 -7.49188e-09 0)
(-2.32288 -5.91062e-09 0)
(-2.32288 -7.04683e-09 0)
(-2.32288 -3.22653e-09 0)
(-2.32288 -4.97113e-09 0)
(-2.32288 -1.31457e-09 0)
(-2.32288 -4.85639e-09 0)
(-2.32288 7.1102e-09 0)
(-2.20284 2.78832e-09 0)
(-2.20284 -1.76821e-09 0)
(-2.20284 -3.84557e-09 0)
(-2.20284 -8.21144e-09 0)
(-2.20284 -4.97647e-09 0)
(-2.20284 -1.14416e-08 0)
(-2.20284 -5.99266e-09 0)
(-2.20284 -1.24137e-08 0)
(-2.20284 -6.92368e-09 0)
(-2.20284 -1.15666e-08 0)
(-2.20284 -7.59131e-09 0)
(-2.20284 -9.52691e-09 0)
(-2.20284 -7.63794e-09 0)
(-2.20284 -6.64989e-09 0)
(-2.20284 -7.20516e-09 0)
(-2.20284 -3.73255e-09 0)
(-2.20284 -5.11788e-09 0)
(-2.20284 -1.45682e-09 0)
(-2.20284 -5.12747e-09 0)
(-2.20284 7.44633e-09 0)
(-1.95616 3.31651e-09 0)
(-1.95616 -2.02843e-09 0)
(-1.95616 -3.69825e-09 0)
(-1.95616 -8.78046e-09 0)
(-1.95616 -4.85238e-09 0)
(-1.95616 -1.22577e-08 0)
(-1.95616 -5.83875e-09 0)
(-1.95616 -1.33332e-08 0)
(-1.95616 -6.79649e-09 0)
(-1.95616 -1.24726e-08 0)
(-1.95616 -7.50412e-09 0)
(-1.95616 -1.03302e-08 0)
(-1.95616 -7.61481e-09 0)
(-1.95616 -7.28066e-09 0)
(-1.95616 -7.20345e-09 0)
(-1.95616 -4.206e-09 0)
(-1.95616 -5.18226e-09 0)
(-1.95616 -1.57283e-09 0)
(-1.95616 -5.26037e-09 0)
(-1.95616 7.36714e-09 0)
(-1.58281 3.82455e-09 0)
(-1.58281 -2.33774e-09 0)
(-1.58281 -3.39701e-09 0)
(-1.58281 -9.18066e-09 0)
(-1.58281 -4.59138e-09 0)
(-1.58281 -1.28085e-08 0)
(-1.58281 -5.56567e-09 0)
(-1.58281 -1.39582e-08 0)
(-1.58281 -6.5583e-09 0)
(-1.58281 -1.31076e-08 0)
(-1.58281 -7.30626e-09 0)
(-1.58281 -1.09153e-08 0)
(-1.58281 -7.48895e-09 0)
(-1.58281 -7.77153e-09 0)
(-1.58281 -7.09382e-09 0)
(-1.58281 -4.61929e-09 0)
(-1.58281 -5.20247e-09 0)
(-1.58281 -1.66761e-09 0)
(-1.58281 -5.24388e-09 0)
(-1.58281 6.89349e-09 0)
(-1.08281 4.29885e-09 0)
(-1.08281 -2.6647e-09 0)
(-1.08281 -2.98614e-09 0)
(-1.08281 -9.38059e-09 0)
(-1.08281 -4.22887e-09 0)
(-1.08281 -1.30539e-08 0)
(-1.08281 -5.21233e-09 0)
(-1.08281 -1.42402e-08 0)
(-1.08281 -6.24697e-09 0)
(-1.08281 -1.34197e-08 0)
(-1.08281 -7.03316e-09 0)
(-1.08281 -1.12313e-08 0)
(-1.08281 -7.28857e-09 0)
(-1.08281 -8.07984e-09 0)
(-1.08281 -6.89834e-09 0)
(-1.08281 -4.93144e-09 0)
(-1.08281 -5.19041e-09 0)
(-1.08281 -1.73925e-09 0)
(-1.08281 -5.06588e-09 0)
(-1.08281 6.09454e-09 0)
(-0.456156 4.70654e-09 0)
(-0.456156 -2.96996e-09 0)
(-0.456156 -2.51722e-09 0)
(-0.456156 -9.36019e-09 0)
(-0.456156 -3.80017e-09 0)
(-0.456156 -1.29713e-08 0)
(-0.456156 -4.80871e-09 0)
(-0.456156 -1.41515e-08 0)
(-0.456156 -5.88517e-09 0)
(-0.456156 -1.33779e-08 0)
(-0.456156 -6.70181e-09 0)
(-0.456156 -1.12456e-08 0)
(-0.456156 -7.02225e-09 0)
(-0.456156 -8.17527e-09 0)
(-0.456156 -6.62402e-09 0)
(-0.456156 -5.10695e-09 0)
(-0.456156 -5.14161e-09 0)
(-0.456156 -1.78471e-09 0)
(-0.456156 -4.72713e-09 0)
(-0.456156 5.07131e-09 0)
(0.297156 4.99779e-09 0)
(0.297156 -3.21332e-09 0)
(0.297156 -2.04395e-09 0)
(0.297156 -9.11384e-09 0)
(0.297156 -3.34199e-09 0)
(0.297156 -1.25573e-08 0)
(0.297156 -4.37997e-09 0)
(0.297156 -1.36869e-08 0)
(0.297156 -5.48634e-09 0)
(0.297156 -1.29726e-08 0)
(0.297156 -6.31771e-09 0)
(0.297156 -1.09443e-08 0)
(0.297156 -6.68644e-09 0)
(0.297156 -8.03919e-09 0)
(0.297156 -6.26973e-09 0)
(0.297156 -5.11732e-09 0)
(0.297156 -5.04025e-09 0)
(0.297156 -1.79491e-09 0)
(0.297156 -4.2479e-09 0)
(0.297156 3.94098e-09 0)
(1.17712 5.10763e-09 0)
(1.17712 -3.35419e-09 0)
(1.17712 -1.60163e-09 0)
(1.17712 -8.63567e-09 0)
(1.17712 -2.87137e-09 0)
(1.17712 -1.18102e-08 0)
(1.17712 -3.92462e-09 0)
(1.17712 -1.28454e-08 0)
(1.17712 -5.0346e-09 0)
(1.17712 -1.21974e-08 0)
(1.17712 -5.85748e-09 0)
(1.17712 -1.03158e-08 0)
(1.17712 -6.25256e-09 0)
(1.17712 -7.65071e-09 0)
(1.17712 -5.81679e-09 0)
(1.17712 -4.93434e-09 0)
(1.17712 -4.85587e-09 0)
(1.17712 -1.74599e-09 0)
(1.17712 -3.6652e-09 0)
(1.17712 2.81992e-09 0)
(2.18375 4.94084e-09 0)
(2.18375 -3.36518e-09 0)
(2.18375 -1.2279e-09 0)
(2.18375 -7.91886e-09 0)
(2.18375 -2.41667e-09 0)
(2.18375 -1.0714e-08 0)
(2.18375 -3.45218e-09 0)
(2.18375 -1.16012e-08 0)
(2.18375 -4.52454e-09 0)
(2.18375 -1.10161e-08 0)
(2.18375 -5.30594e-09 0)
(2.18375 -9.31864e-09 0)
(2.18375 -5.69784e-09 0)
(2.18375 -6.96149e-09 0)
(2.18375 -5.25034e-09 0)
(2.18375 -4.50905e-09 0)
(2.18375 -4.55054e-09 0)
(2.18375 -1.5943e-09 0)
(2.18375 -3.0233e-09 0)
(2.18375 1.81848e-09 0)
(3.31703 4.45761e-09 0)
(3.31703 -3.2064e-09 0)
(3.31703 -8.88367e-10 0)
(3.31703 -6.92032e-09 0)
(3.31703 -1.91449e-09 0)
(3.31703 -9.2206e-09 0)
(3.31703 -2.86469e-09 0)
(3.31703 -9.90344e-09 0)
(3.31703 -3.8404e-09 0)
(3.31703 -9.37092e-09 0)
(3.31703 -4.54433e-09 0)
(3.31703 -7.89367e-09 0)
(3.31703 -4.91325e-09 0)
(3.31703 -5.90411e-09 0)
(3.31703 -4.48816e-09 0)
(3.31703 -3.79193e-09 0)
(3.31703 -4.04978e-09 0)
(3.31703 -1.27614e-09 0)
(3.31703 -2.35077e-09 0)
(3.31703 1.02092e-09 0)
(4.57697 3.87271e-09 0)
(4.57697 -2.65588e-09 0)
(4.57697 -1.77367e-10 0)
(4.57697 -5.2331e-09 0)
(4.57697 -7.71434e-10 0)
(4.57697 -6.78293e-09 0)
(4.57697 -1.44604e-09 0)
(4.57697 -7.1123e-09 0)
(4.57697 -2.22961e-09 0)
(4.57697 -6.59281e-09 0)
(4.57697 -2.85654e-09 0)
(4.57697 -5.40349e-09 0)
(4.57697 -3.28551e-09 0)
(4.57697 -3.92453e-09 0)
(4.57697 -3.06402e-09 0)
(4.57697 -2.36495e-09 0)
(4.57697 -3.04748e-09 0)
(4.57697 -5.04381e-10 0)
(4.57697 -1.55947e-09 0)
(4.57697 5.2774e-10 0)
(5.96356 2.10502e-09 0)
(5.96356 -2.67231e-09 0)
(5.96356 -9.09726e-10 0)
(5.96356 -4.66432e-09 0)
(5.96356 -1.63967e-09 0)
(5.96356 -5.85091e-09 0)
(5.96356 -2.31447e-09 0)
(5.96356 -6.08523e-09 0)
(5.96356 -2.92644e-09 0)
(5.96356 -5.65067e-09 0)
(5.96356 -3.28935e-09 0)
(5.96356 -4.6645e-09 0)
(5.96356 -3.4061e-09 0)
(5.96356 -3.43218e-09 0)
(5.96356 -2.95936e-09 0)
(5.96356 -2.07168e-09 0)
(5.96356 -2.71299e-09 0)
(5.96356 -4.85281e-10 0)
(5.96356 -1.16078e-09 0)
(5.96356 1.41963e-10 0)
(7.47681 2.25019e-09 0)
(7.47681 -7.16093e-10 0)
(7.47681 1.80828e-09 0)
(7.47681 -3.92682e-10 0)
(7.47681 2.63766e-09 0)
(7.47681 6.36818e-11 0)
(7.47681 2.97332e-09 0)
(7.47681 7.27076e-10 0)
(7.47681 2.84403e-09 0)
(7.47681 1.32092e-09 0)
(7.47681 2.43966e-09 0)
(7.47681 1.80464e-09 0)
(7.47681 1.78323e-09 0)
(7.47681 2.02362e-09 0)
(7.47681 1.25145e-09 0)
(7.47681 1.98115e-09 0)
(7.47681 2.15883e-10 0)
(7.47681 2.02518e-09 0)
(7.47681 3.18021e-10 0)
(7.47681 4.69173e-10 0)
(9.11672 -1.82037e-10 0)
(9.11672 -7.72499e-10 0)
(9.11672 -6.09631e-10 0)
(9.11672 -1.06259e-09 0)
(9.11672 -8.2757e-10 0)
(9.11672 -1.19371e-09 0)
(9.11672 -9.67589e-10 0)
(9.11672 -1.171e-09 0)
(9.11672 -1.03075e-09 0)
(9.11672 -1.04206e-09 0)
(9.11672 -1.00049e-09 0)
(9.11672 -8.24457e-10 0)
(9.11672 -8.91191e-10 0)
(9.11672 -5.70115e-10 0)
(9.11672 -6.83549e-10 0)
(9.11672 -2.84882e-10 0)
(9.11672 -4.99915e-10 0)
(9.11672 -6.13899e-12 0)
(9.11672 -1.04368e-10 0)
(9.11672 1.27543e-10 0)
)
;

boundaryField
{
    top
    {
        type            fixedValue;
        value           uniform (10 0 0);
    }
    bottom
    {
        type            fixedValue;
        value           uniform (0 0 0);
    }
    inlet
    {
        type            zeroGradient;
    }
    outlet
    {
        type            zeroGradient;
    }
    frontAndBack
    {
        type            empty;
    }
}


// ************************************************************************* //
