/*--------------------------------*- C++ -*----------------------------------*\
| =========                 |                                                 |
| \\      /  F ield         | OpenFOAM: The Open Source CFD Toolbox           |
|  \\    /   O peration     | Version:  4.1                                   |
|   \\  /    A nd           | Web:      www.OpenFOAM.org                      |
|    \\/     M anipulation  |                                                 |
\*---------------------------------------------------------------------------*/
FoamFile
{
    version     2.0;
    format      ascii;
    class       surfaceScalarField;
    location    "3.1";
    object      phi;
}
// * * * * * * * * * * * * * * * * * * * * * * * * * * * * * * * * * * * * * //

dimensions      [0 3 -1 0 0 0 0];

internalField   nonuniform List<scalar> 
760
(
-1.91641e-05
-2.38142e-14
-1.91641e-05
9.76182e-13
-1.91641e-05
5.1839e-13
-1.91641e-05
2.1931e-12
-1.91641e-05
1.03056e-12
-1.91641e-05
3.1648e-12
-1.91641e-05
1.45846e-12
-1.91641e-05
3.74571e-12
-1.91641e-05
1.76225e-12
-1.91641e-05
3.88852e-12
-1.91641e-05
1.9232e-12
-1.91641e-05
3.62176e-12
-1.91641e-05
1.96195e-12
-1.91641e-05
3.00752e-12
-1.91641e-05
1.80926e-12
-1.91641e-05
2.23359e-12
-1.91641e-05
1.59032e-12
-1.91641e-05
1.07576e-12
-1.91641e-05
1.22663e-12
5.13386e-13
-5.11594e-05
5.27391e-13
-5.11594e-05
3.3944e-12
-5.11594e-05
1.63103e-12
-5.11594e-05
6.45139e-12
-5.11594e-05
3.26289e-12
-5.11594e-05
8.67462e-12
-5.11594e-05
4.64191e-12
-5.11594e-05
9.83429e-12
-5.11594e-05
5.66756e-12
-5.11594e-05
9.8246e-12
-5.11594e-05
6.22089e-12
-5.11594e-05
8.82564e-12
-5.11594e-05
6.31819e-12
-5.11594e-05
7.01835e-12
-5.11594e-05
5.76498e-12
-5.11594e-05
4.98355e-12
-5.11594e-05
4.89827e-12
-5.11594e-05
1.97859e-12
-5.11594e-05
3.48936e-12
1.31481e-12
-7.68219e-05
1.43894e-12
-7.68219e-05
6.35819e-12
-7.68219e-05
3.08711e-12
-7.68219e-05
1.12029e-11
-7.68219e-05
6.15408e-12
-7.68219e-05
1.4616e-11
-7.68219e-05
8.71067e-12
-7.68219e-05
1.62665e-11
-7.68219e-05
1.05985e-11
-7.68219e-05
1.59927e-11
-7.68219e-05
1.15692e-11
-7.68219e-05
1.41558e-11
-7.68219e-05
1.16434e-11
-7.68219e-05
1.1063e-11
-7.68219e-05
1.04949e-11
-7.68219e-05
7.71741e-12
-7.68219e-05
8.75825e-12
-7.68219e-05
2.75746e-12
-7.68219e-05
5.94898e-12
2.37578e-12
-9.61516e-05
2.47926e-12
-9.61516e-05
9.32216e-12
-9.61516e-05
4.52199e-12
-9.61516e-05
1.58159e-11
-9.61516e-05
8.9747e-12
-9.61516e-05
2.03525e-11
-9.61516e-05
1.26548e-11
-9.61516e-05
2.24742e-11
-9.61516e-05
1.53508e-11
-9.61516e-05
2.19541e-11
-9.61516e-05
1.6697e-11
-9.61516e-05
1.93201e-11
-9.61516e-05
1.67254e-11
-9.61516e-05
1.49951e-11
-9.61516e-05
1.49893e-11
-9.61516e-05
1.03789e-11
-9.61516e-05
1.24242e-11
-9.61516e-05
3.5163e-12
-9.61516e-05
8.28207e-12
3.48344e-12
-0.000109148
3.5276e-12
-0.000109148
1.21336e-11
-0.000109148
5.91882e-12
-0.000109148
2.00928e-11
-0.000109148
1.16653e-11
-0.000109148
2.56497e-11
-0.000109148
1.63857e-11
-0.000109148
2.81975e-11
-0.000109148
1.98145e-11
-0.000109148
2.74558e-11
-0.000109148
2.14817e-11
-0.000109148
2.40931e-11
-0.000109148
2.14381e-11
-0.000109148
1.86444e-11
-0.000109148
1.91259e-11
-0.000109148
1.28457e-11
-0.000109148
1.5805e-11
-0.000109148
4.22839e-12
-0.000109148
1.03698e-11
4.54331e-12
-0.000115812
4.5042e-12
-0.000115812
1.46392e-11
-0.000115812
7.21089e-12
-0.000115812
2.38416e-11
-0.000115812
1.40693e-11
-0.000115812
3.02737e-11
-0.000115812
1.96875e-11
-0.000115812
3.31736e-11
-0.000115812
2.374e-11
-0.000115812
3.22305e-11
-0.000115812
2.56681e-11
-0.000115812
2.8225e-11
-0.000115812
2.55425e-11
-0.000115812
2.18009e-11
-0.000115812
2.27075e-11
-0.000115812
1.49516e-11
-0.000115812
1.87499e-11
-0.000115812
4.82235e-12
-0.000115812
1.21217e-11
5.40723e-12
-0.000116144
5.36221e-12
-0.000116144
1.67183e-11
-0.000116144
8.36376e-12
-0.000116144
2.69127e-11
-0.000116144
1.60918e-11
-0.000116144
3.4045e-11
-0.000116144
2.24198e-11
-0.000116144
3.72071e-11
-0.000116144
2.69574e-11
-0.000116144
3.6084e-11
-0.000116144
2.9076e-11
-0.000116144
3.15403e-11
-0.000116144
2.88631e-11
-0.000116144
2.43218e-11
-0.000116144
2.55848e-11
-0.000116144
1.65912e-11
-0.000116144
2.11311e-11
-0.000116144
5.26184e-12
-0.000116144
1.34716e-11
5.97601e-12
-0.000110142
6.08313e-12
-0.000110142
1.82832e-11
-0.000110142
9.3562e-12
-0.000110142
2.92101e-11
-0.000110142
1.76755e-11
-0.000110142
3.68495e-11
-0.000110142
2.44941e-11
-0.000110142
4.01784e-11
-0.000110142
2.93569e-11
-0.000110142
3.89013e-11
-0.000110142
3.15874e-11
-0.000110142
3.39381e-11
-0.000110142
3.12832e-11
-0.000110142
2.61259e-11
-0.000110142
2.766e-11
-0.000110142
1.77092e-11
-0.000110142
2.28541e-11
-0.000110142
5.53311e-12
-0.000110142
1.43913e-11
6.1897e-12
-9.78078e-05
6.66371e-12
-9.78078e-05
1.92713e-11
-9.78078e-05
1.01619e-11
-9.78078e-05
3.06681e-11
-9.78078e-05
1.87785e-11
-9.78078e-05
3.86104e-11
-9.78078e-05
2.58501e-11
-9.78078e-05
4.2011e-11
-9.78078e-05
3.08654e-11
-9.78078e-05
4.06106e-11
-9.78078e-05
3.31244e-11
-9.78078e-05
3.536e-11
-9.78078e-05
3.2726e-11
-9.78078e-05
2.71674e-11
-9.78078e-05
2.88706e-11
-9.78078e-05
1.82834e-11
-9.78078e-05
2.38509e-11
-9.78078e-05
5.63307e-12
-9.78078e-05
1.48786e-11
6.03822e-12
-7.91406e-05
7.10698e-12
-7.91406e-05
1.96472e-11
-7.91406e-05
1.07446e-11
-7.91406e-05
3.12495e-11
-7.91406e-05
1.93681e-11
-7.91406e-05
3.92846e-11
-7.91406e-05
2.64497e-11
-7.91406e-05
4.26662e-11
-7.91406e-05
3.14425e-11
-7.91406e-05
4.11789e-11
-7.91406e-05
3.36476e-11
-7.91406e-05
3.57834e-11
-7.91406e-05
3.31562e-11
-7.91406e-05
2.74307e-11
-7.91406e-05
2.91905e-11
-7.91406e-05
1.83192e-11
-7.91406e-05
2.40862e-11
-7.91406e-05
5.56361e-12
-7.91406e-05
1.49535e-11
5.55845e-12
-5.41406e-05
7.41233e-12
-5.41406e-05
1.94027e-11
-5.41406e-05
1.1059e-11
-5.41406e-05
3.09403e-11
-5.41406e-05
1.94174e-11
-5.41406e-05
3.88567e-11
-5.41406e-05
2.62732e-11
-5.41406e-05
4.21348e-11
-5.41406e-05
3.10771e-11
-5.41406e-05
4.06023e-11
-5.41406e-05
3.31522e-11
-5.41406e-05
3.52124e-11
-5.41406e-05
3.25762e-11
-5.41406e-05
2.69219e-11
-5.41406e-05
2.8627e-11
-5.41406e-05
1.78414e-11
-5.41406e-05
2.35592e-11
-5.41406e-05
5.32833e-12
-5.41406e-05
1.4647e-11
4.82461e-12
-2.28078e-05
7.56744e-12
-2.28078e-05
1.85566e-11
-2.28078e-05
1.10569e-11
-2.28078e-05
2.97475e-11
-2.28078e-05
1.89068e-11
-2.28078e-05
3.73367e-11
-2.28078e-05
2.53207e-11
-2.28078e-05
4.04335e-11
-2.28078e-05
2.97868e-11
-2.28078e-05
3.8902e-11
-2.28078e-05
3.16681e-11
-2.28078e-05
3.36728e-11
-2.28078e-05
3.10256e-11
-2.28078e-05
2.56657e-11
-2.28078e-05
2.72182e-11
-2.28078e-05
1.68879e-11
-2.28078e-05
2.23058e-11
-2.28078e-05
4.93336e-12
-2.28078e-05
1.39906e-11
3.93306e-12
1.48578e-05
7.54372e-12
1.48578e-05
1.71516e-11
1.48578e-05
1.06955e-11
1.48578e-05
2.76994e-11
1.48578e-05
1.78279e-11
1.48578e-05
3.47603e-11
1.48578e-05
2.36139e-11
1.48578e-05
3.76038e-11
1.48578e-05
2.76193e-11
1.48578e-05
3.61229e-11
1.48578e-05
2.92588e-11
1.48578e-05
3.12094e-11
1.48578e-05
2.85791e-11
1.48578e-05
2.37039e-11
1.48578e-05
2.50317e-11
1.48578e-05
1.55039e-11
1.48578e-05
2.03965e-11
1.48578e-05
4.39108e-12
1.48578e-05
1.30083e-11
2.98544e-12
5.88563e-05
7.29753e-12
5.88563e-05
1.52531e-11
5.88563e-05
9.94792e-12
5.88563e-05
2.48508e-11
5.88563e-05
1.61921e-11
5.88563e-05
3.11926e-11
5.88563e-05
2.12036e-11
5.88563e-05
3.37159e-11
5.88563e-05
2.4656e-11
5.88563e-05
3.23368e-11
5.88563e-05
2.60243e-11
5.88563e-05
2.78882e-11
5.88563e-05
2.53458e-11
5.88563e-05
2.10962e-11
5.88563e-05
2.21631e-11
5.88563e-05
1.37384e-11
5.88563e-05
1.79334e-11
5.88563e-05
3.72477e-12
5.88563e-05
1.17148e-11
2.07311e-12
0.000109188
6.77703e-12
0.000109188
1.29429e-11
0.000109188
8.81299e-12
0.000109188
2.12837e-11
0.000109188
1.40377e-11
0.000109188
2.67289e-11
0.000109188
1.81733e-11
0.000109188
2.88686e-11
0.000109188
2.10123e-11
0.000109188
2.7641e-11
0.000109188
2.20972e-11
0.000109188
2.37953e-11
0.000109188
2.14622e-11
0.000109188
1.79189e-11
0.000109188
1.87318e-11
0.000109188
1.16392e-11
0.000109188
1.50387e-11
0.000109188
2.9719e-12
0.000109188
1.01163e-11
1.265e-12
0.000165852
5.92633e-12
0.000165852
1.03326e-11
0.000165852
7.32773e-12
0.000165852
1.71342e-11
0.000165852
1.14516e-11
0.000165852
2.15232e-11
0.000165852
1.46636e-11
0.000165852
2.32205e-11
0.000165852
1.68625e-11
0.000165852
2.21881e-11
0.000165852
1.7668e-11
0.000165852
1.90609e-11
0.000165852
1.71142e-11
0.000165852
1.42813e-11
0.000165852
1.48992e-11
0.000165852
9.26279e-12
0.000165852
1.18623e-11
0.000165852
2.18665e-12
0.000165852
8.22406e-12
6.07952e-13
0.000228848
4.73235e-12
0.000228848
7.55429e-12
0.000228848
5.59689e-12
0.000228848
1.25871e-11
0.000228848
8.60177e-12
0.000228848
1.57882e-11
0.000228848
1.08979e-11
0.000228848
1.69965e-11
0.000228848
1.24562e-11
0.000228848
1.61959e-11
0.000228848
1.29896e-11
0.000228848
1.38753e-11
0.000228848
1.25314e-11
0.000228848
1.03391e-11
0.000228848
1.08593e-11
0.000228848
6.69325e-12
0.000228848
8.5535e-12
0.000228848
1.44781e-12
0.000228848
6.06337e-12
1.27835e-13
0.000298178
3.13911e-12
0.000298178
4.7726e-12
0.000298178
3.6394e-12
0.000298178
7.82124e-12
0.000298178
5.5555e-12
0.000298178
9.70027e-12
0.000298178
6.99153e-12
0.000298178
1.03504e-11
0.000298178
7.94626e-12
0.000298178
9.78426e-12
0.000298178
8.23804e-12
0.000298178
8.31465e-12
0.000298178
7.89284e-12
0.000298178
6.13031e-12
0.000298178
6.77773e-12
0.000298178
3.91199e-12
0.000298178
5.26542e-12
0.000298178
7.29675e-13
0.000298178
3.6734e-12
-1.30925e-13
0.000373841
1.40352e-12
0.000373841
2.09208e-12
0.000373841
1.6804e-12
0.000373841
3.03081e-12
0.000373841
2.57716e-12
0.000373841
3.52327e-12
0.000373841
3.21065e-12
0.000373841
3.59343e-12
0.000373841
3.58186e-12
0.000373841
3.27306e-12
0.000373841
3.62758e-12
0.000373841
2.67854e-12
0.000373841
3.36944e-12
0.000373841
1.89053e-12
0.000373841
2.77938e-12
0.000373841
1.10504e-12
0.000373841
2.04838e-12
0.000373841
7.32775e-14
0.000373841
1.17145e-12
-1.60607e-13
0.000455836
0.000455836
0.000455836
0.000455836
0.000455836
0.000455836
0.000455836
0.000455836
0.000455836
0.000455836
0.000455836
0.000455836
0.000455836
0.000455836
0.000455836
0.000455836
0.000455836
0.000455836
0.000455836
)
;

boundaryField
{
    top
    {
        type            calculated;
        value           uniform 0;
    }
    bottom
    {
        type            calculated;
        value           uniform 0;
    }
    inlet
    {
        type            calculated;
        value           nonuniform List<scalar> 
20
(
1.91641e-05
5.11594e-05
7.68219e-05
9.61516e-05
0.000109148
0.000115812
0.000116144
0.000110142
9.78078e-05
7.91406e-05
5.41406e-05
2.28078e-05
-1.48578e-05
-5.88563e-05
-0.000109188
-0.000165852
-0.000228848
-0.000298178
-0.000373841
-0.000455836
)
;
    }
    outlet
    {
        type            calculated;
        value           nonuniform List<scalar> 
20
(
-1.91641e-05
-5.11594e-05
-7.68219e-05
-9.61516e-05
-0.000109148
-0.000115812
-0.000116144
-0.000110142
-9.78078e-05
-7.91406e-05
-5.41406e-05
-2.28078e-05
1.48578e-05
5.88563e-05
0.000109188
0.000165852
0.000228848
0.000298178
0.000373841
0.000455836
)
;
    }
    frontAndBack
    {
        type            empty;
        value           nonuniform 0();
    }
}


// ************************************************************************* //
