/*--------------------------------*- C++ -*----------------------------------*\
| =========                 |                                                 |
| \\      /  F ield         | OpenFOAM: The Open Source CFD Toolbox           |
|  \\    /   O peration     | Version:  4.1                                   |
|   \\  /    A nd           | Web:      www.OpenFOAM.org                      |
|    \\/     M anipulation  |                                                 |
\*---------------------------------------------------------------------------*/
FoamFile
{
    version     2.0;
    format      ascii;
    class       volVectorField;
    location    "3.1";
    object      U;
}
// * * * * * * * * * * * * * * * * * * * * * * * * * * * * * * * * * * * * * //

dimensions      [0 1 -1 0 0 0 0];

internalField   nonuniform List<vector> 
400
(
(-0.383281 -9.32911e-11 0)
(-0.383281 6.37727e-10 0)
(-0.383281 6.89114e-10 0)
(-0.383281 9.92557e-10 0)
(-0.383281 1.28233e-09 0)
(-0.383281 1.38293e-09 0)
(-0.383281 1.66255e-09 0)
(-0.383281 1.6113e-09 0)
(-0.383281 1.87181e-09 0)
(-0.383281 1.71296e-09 0)
(-0.383281 1.87785e-09 0)
(-0.383281 1.66634e-09 0)
(-0.383281 1.73326e-09 0)
(-0.383281 1.5143e-09 0)
(-0.383281 1.36655e-09 0)
(-0.383281 1.22363e-09 0)
(-0.383281 1.06882e-09 0)
(-0.383281 6.83762e-10 0)
(-0.383281 3.92167e-10 0)
(-0.383281 6.23681e-10 0)
(-1.02319 4.04663e-10 0)
(-1.02319 2.20572e-09 0)
(-1.02319 1.03524e-09 0)
(-1.02319 4.71773e-09 0)
(-1.02319 1.87161e-09 0)
(-1.02319 6.45945e-09 0)
(-1.02319 2.63237e-09 0)
(-1.02319 7.38945e-09 0)
(-1.02319 3.2399e-09 0)
(-1.02319 7.41492e-09 0)
(-1.02319 3.65745e-09 0)
(-1.02319 6.67671e-09 0)
(-1.02319 3.84158e-09 0)
(-1.02319 5.30211e-09 0)
(-1.02319 3.68346e-09 0)
(-1.02319 3.67443e-09 0)
(-1.02319 3.17758e-09 0)
(-1.02319 1.48782e-09 0)
(-1.02319 2.62479e-09 0)
(-1.02319 4.15953e-10 0)
(-1.53644 9.45341e-10 0)
(-1.53644 5.04128e-09 0)
(-1.53644 2.84249e-09 0)
(-1.53644 8.9263e-09 0)
(-1.53644 5.5502e-09 0)
(-1.53644 1.1807e-08 0)
(-1.53644 7.71496e-09 0)
(-1.53644 1.32779e-08 0)
(-1.53644 9.23686e-09 0)
(-1.53644 1.31473e-08 0)
(-1.53644 9.91638e-09 0)
(-1.53644 1.17818e-08 0)
(-1.53644 9.8219e-09 0)
(-1.53644 9.39406e-09 0)
(-1.53644 8.67759e-09 0)
(-1.53644 6.72391e-09 0)
(-1.53644 7.17383e-09 0)
(-1.53644 2.68616e-09 0)
(-1.53644 4.59064e-09 0)
(-1.53644 2.26603e-09 0)
(-1.92303 1.95701e-09 0)
(-1.92303 7.81625e-09 0)
(-1.92303 3.65098e-09 0)
(-1.92303 1.35054e-08 0)
(-1.92303 7.30084e-09 0)
(-1.92303 1.74316e-08 0)
(-1.92303 1.03608e-08 0)
(-1.92303 1.93507e-08 0)
(-1.92303 1.264e-08 0)
(-1.92303 1.88583e-08 0)
(-1.92303 1.38305e-08 0)
(-1.92303 1.65769e-08 0)
(-1.92303 1.39417e-08 0)
(-1.92303 1.28327e-08 0)
(-1.92303 1.25875e-08 0)
(-1.92303 8.85101e-09 0)
(-1.92303 1.04944e-08 0)
(-1.92303 2.96915e-09 0)
(-1.92303 7.14327e-09 0)
(-1.92303 2.7472e-09 0)
(-2.18297 2.97664e-09 0)
(-2.18297 1.07068e-08 0)
(-2.18297 5.13056e-09 0)
(-2.18297 1.78914e-08 0)
(-2.18297 1.02042e-08 0)
(-2.18297 2.28669e-08 0)
(-2.18297 1.43877e-08 0)
(-2.18297 2.52298e-08 0)
(-2.18297 1.74496e-08 0)
(-2.18297 2.45889e-08 0)
(-2.18297 1.89676e-08 0)
(-2.18297 2.15935e-08 0)
(-2.18297 1.89818e-08 0)
(-2.18297 1.67182e-08 0)
(-2.18297 1.69829e-08 0)
(-2.18297 1.15359e-08 0)
(-2.18297 1.4059e-08 0)
(-2.18297 3.81097e-09 0)
(-2.18297 9.31666e-09 0)
(-2.18297 3.99831e-09 0)
(-2.31625 3.9926e-09 0)
(-2.31625 1.33756e-08 0)
(-2.31625 6.44984e-09 0)
(-2.31625 2.1913e-08 0)
(-2.31625 1.27266e-08 0)
(-2.31625 2.78665e-08 0)
(-2.31625 1.78826e-08 0)
(-2.31625 3.05777e-08 0)
(-2.31625 2.16286e-08 0)
(-2.31625 2.97319e-08 0)
(-2.31625 2.34454e-08 0)
(-2.31625 2.60492e-08 0)
(-2.31625 2.33911e-08 0)
(-2.31625 2.01211e-08 0)
(-2.31625 2.08511e-08 0)
(-2.31625 1.3821e-08 0)
(-2.31625 1.72376e-08 0)
(-2.31625 4.45815e-09 0)
(-2.31625 1.12563e-08 0)
(-2.31625 4.96927e-09 0)
(-2.32287 4.90329e-09 0)
(-2.32287 1.56637e-08 0)
(-2.32287 7.64971e-09 0)
(-2.32287 2.52991e-08 0)
(-2.32287 1.4913e-08 0)
(-2.32287 3.20446e-08 0)
(-2.32287 2.08711e-08 0)
(-2.32287 3.5053e-08 0)
(-2.32287 2.51713e-08 0)
(-2.32287 3.40115e-08 0)
(-2.32287 2.72152e-08 0)
(-2.32287 2.97425e-08 0)
(-2.32287 2.708e-08 0)
(-2.32287 2.29375e-08 0)
(-2.32287 2.40612e-08 0)
(-2.32287 1.56804e-08 0)
(-2.32287 1.98956e-08 0)
(-2.32287 4.96704e-09 0)
(-2.32287 1.27974e-08 0)
(-2.32287 5.70109e-09 0)
(-2.20284 5.69352e-09 0)
(-2.20284 1.74953e-08 0)
(-2.20284 8.72102e-09 0)
(-2.20284 2.79963e-08 0)
(-2.20284 1.67175e-08 0)
(-2.20284 3.53462e-08 0)
(-2.20284 2.32807e-08 0)
(-2.20284 3.85747e-08 0)
(-2.20284 2.79901e-08 0)
(-2.20284 3.73665e-08 0)
(-2.20284 3.01885e-08 0)
(-2.20284 3.26164e-08 0)
(-2.20284 2.99661e-08 0)
(-2.20284 2.51136e-08 0)
(-2.20284 2.65539e-08 0)
(-2.20284 1.70675e-08 0)
(-2.20284 2.19677e-08 0)
(-2.20284 5.3259e-09 0)
(-2.20284 1.39432e-08 0)
(-2.20284 6.09604e-09 0)
(-1.95616 6.34061e-09 0)
(-1.95616 1.8774e-08 0)
(-1.95616 9.61955e-09 0)
(-1.95616 2.98728e-08 0)
(-1.95616 1.80575e-08 0)
(-1.95616 3.76282e-08 0)
(-1.95616 2.49925e-08 0)
(-1.95616 4.09746e-08 0)
(-1.95616 2.99413e-08 0)
(-1.95616 3.96274e-08 0)
(-1.95616 3.22108e-08 0)
(-1.95616 3.45235e-08 0)
(-1.95616 3.18968e-08 0)
(-1.95616 2.65339e-08 0)
(-1.95616 2.81971e-08 0)
(-1.95616 1.79098e-08 0)
(-1.95616 2.33322e-08 0)
(-1.95616 5.50934e-09 0)
(-1.95616 1.46454e-08 0)
(-1.95616 6.12942e-09 0)
(-1.58281 6.84991e-09 0)
(-1.58281 1.94565e-08 0)
(-1.58281 1.03195e-08 0)
(-1.58281 3.08926e-08 0)
(-1.58281 1.89049e-08 0)
(-1.58281 3.88444e-08 0)
(-1.58281 2.59698e-08 0)
(-1.58281 4.22179e-08 0)
(-1.58281 3.09824e-08 0)
(-1.58281 4.07648e-08 0)
(-1.58281 3.32388e-08 0)
(-1.58281 3.54435e-08 0)
(-1.58281 3.28311e-08 0)
(-1.58281 2.71831e-08 0)
(-1.58281 2.89607e-08 0)
(-1.58281 1.82095e-08 0)
(-1.58281 2.39484e-08 0)
(-1.58281 5.52189e-09 0)
(-1.58281 1.49237e-08 0)
(-1.58281 5.80617e-09 0)
(-1.08281 7.22457e-09 0)
(-1.08281 1.95217e-08 0)
(-1.08281 1.07802e-08 0)
(-1.08281 3.10311e-08 0)
(-1.08281 1.9231e-08 0)
(-1.08281 3.89653e-08 0)
(-1.08281 2.61848e-08 0)
(-1.08281 4.22821e-08 0)
(-1.08281 3.10889e-08 0)
(-1.08281 4.07617e-08 0)
(-1.08281 3.32513e-08 0)
(-1.08281 3.53691e-08 0)
(-1.08281 3.27532e-08 0)
(-1.08281 2.70583e-08 0)
(-1.08281 2.88356e-08 0)
(-1.08281 1.79834e-08 0)
(-1.08281 2.37993e-08 0)
(-1.08281 5.36687e-09 0)
(-1.08281 1.48046e-08 0)
(-1.08281 5.18722e-09 0)
(-0.456156 7.45917e-09 0)
(-0.456156 1.89752e-08 0)
(-0.456156 1.09532e-08 0)
(-0.456156 3.0285e-08 0)
(-0.456156 1.90118e-08 0)
(-0.456156 3.79985e-08 0)
(-0.456156 2.56274e-08 0)
(-0.456156 4.11717e-08 0)
(-0.456156 3.02639e-08 0)
(-0.456156 3.96276e-08 0)
(-0.456156 3.22611e-08 0)
(-0.456156 3.43161e-08 0)
(-0.456156 3.16843e-08 0)
(-0.456156 2.61757e-08 0)
(-0.456156 2.78449e-08 0)
(-0.456156 1.72643e-08 0)
(-0.456156 2.29025e-08 0)
(-0.456156 5.04901e-09 0)
(-0.456156 1.43208e-08 0)
(-0.456156 4.35952e-09 0)
(0.297156 7.53323e-09 0)
(0.297156 1.78488e-08 0)
(0.297156 1.07907e-08 0)
(0.297156 2.86725e-08 0)
(0.297156 1.8232e-08 0)
(0.297156 3.59667e-08 0)
(0.297156 2.43076e-08 0)
(0.297156 3.89161e-08 0)
(0.297156 2.854e-08 0)
(0.297156 3.73961e-08 0)
(0.297156 3.03151e-08 0)
(0.297156 3.23203e-08 0)
(0.297156 2.96826e-08 0)
(0.297156 2.45687e-08 0)
(0.297156 2.60423e-08 0)
(0.297156 1.60945e-08 0)
(0.297156 2.13123e-08 0)
(0.297156 4.57706e-09 0)
(0.297156 1.35007e-08 0)
(0.297156 3.426e-09 0)
(1.17713 7.41221e-09 0)
(1.17713 1.61847e-08 0)
(1.17713 1.02505e-08 0)
(1.17713 2.62153e-08 0)
(1.17713 1.68805e-08 0)
(1.17713 3.28885e-08 0)
(1.17713 2.22449e-08 0)
(1.17713 3.55467e-08 0)
(1.17713 2.59618e-08 0)
(1.17713 3.41022e-08 0)
(1.17713 2.74741e-08 0)
(1.17713 2.94176e-08 0)
(1.17713 2.68196e-08 0)
(1.17713 2.22736e-08 0)
(1.17713 2.34924e-08 0)
(1.17713 1.45124e-08 0)
(1.17713 1.91006e-08 0)
(1.17713 3.96672e-09 0)
(1.17713 1.23577e-08 0)
(1.17713 2.48063e-09 0)
(2.18375 7.03465e-09 0)
(2.18375 1.40967e-08 0)
(2.18375 9.33263e-09 0)
(2.18375 2.30437e-08 0)
(2.18375 1.50153e-08 0)
(2.18375 2.89089e-08 0)
(2.18375 1.9557e-08 0)
(2.18375 3.12267e-08 0)
(2.18375 2.26916e-08 0)
(2.18375 2.99077e-08 0)
(2.18375 2.39244e-08 0)
(2.18375 2.57502e-08 0)
(2.18375 2.32885e-08 0)
(2.18375 1.94096e-08 0)
(2.18375 2.03622e-08 0)
(2.18375 1.25997e-08 0)
(2.18375 1.64335e-08 0)
(2.18375 3.25673e-09 0)
(2.18375 1.0924e-08 0)
(2.18375 1.61736e-09 0)
(3.31703 6.36717e-09 0)
(3.31703 1.16187e-08 0)
(3.31703 8.04028e-09 0)
(3.31703 1.91751e-08 0)
(3.31703 1.26587e-08 0)
(3.31703 2.40542e-08 0)
(3.31703 1.62911e-08 0)
(3.31703 2.59741e-08 0)
(3.31703 1.87902e-08 0)
(3.31703 2.48333e-08 0)
(3.31703 1.97341e-08 0)
(3.31703 2.13409e-08 0)
(3.31703 1.91549e-08 0)
(3.31703 1.60079e-08 0)
(3.31703 1.67109e-08 0)
(3.31703 1.03718e-08 0)
(3.31703 1.33726e-08 0)
(3.31703 2.49449e-09 0)
(3.31703 9.17462e-09 0)
(3.31703 8.77701e-10 0)
(4.57697 5.11292e-09 0)
(4.57697 8.94353e-09 0)
(4.57697 6.20357e-09 0)
(4.57697 1.48112e-08 0)
(4.57697 9.68676e-09 0)
(4.57697 1.85576e-08 0)
(4.57697 1.24082e-08 0)
(4.57697 1.99177e-08 0)
(4.57697 1.43077e-08 0)
(4.57697 1.89371e-08 0)
(4.57697 1.50345e-08 0)
(4.57697 1.61779e-08 0)
(4.57697 1.46144e-08 0)
(4.57697 1.20237e-08 0)
(4.57697 1.27518e-08 0)
(4.57697 7.72404e-09 0)
(4.57697 1.02085e-08 0)
(4.57697 1.58463e-09 0)
(4.57697 7.1295e-09 0)
(4.57697 3.78593e-10 0)
(5.96356 4.59154e-09 0)
(5.96356 6.00801e-09 0)
(5.96356 5.41387e-09 0)
(5.96356 1.03116e-08 0)
(5.96356 7.98708e-09 0)
(5.96356 1.31145e-08 0)
(5.96356 9.83237e-09 0)
(5.96356 1.42499e-08 0)
(5.96356 1.09532e-08 0)
(5.96356 1.37324e-08 0)
(5.96356 1.11732e-08 0)
(5.96356 1.19367e-08 0)
(5.96356 1.05377e-08 0)
(5.96356 9.046e-09 0)
(5.96356 8.97904e-09 0)
(5.96356 6.03651e-09 0)
(5.96356 6.73002e-09 0)
(5.96356 1.69483e-09 0)
(5.96356 4.95258e-09 0)
(5.96356 -1.18727e-10 0)
(7.47681 1.59768e-09 0)
(7.47681 3.7759e-09 0)
(7.47681 2.04565e-09 0)
(7.47681 5.75446e-09 0)
(7.47681 3.52968e-09 0)
(7.47681 6.85903e-09 0)
(7.47681 4.79297e-09 0)
(7.47681 7.06422e-09 0)
(7.47681 5.72757e-09 0)
(7.47681 6.4699e-09 0)
(7.47681 6.11321e-09 0)
(7.47681 5.27445e-09 0)
(7.47681 6.00477e-09 0)
(7.47681 3.68655e-09 0)
(7.47681 5.13875e-09 0)
(7.47681 2.11138e-09 0)
(7.47681 4.22281e-09 0)
(7.47681 -5.64377e-11 0)
(7.47681 2.50741e-09 0)
(7.47681 9.99394e-11 0)
(9.11672 1.20426e-09 0)
(9.11672 6.38291e-10 0)
(9.11672 1.39781e-09 0)
(9.11672 1.28989e-09 0)
(9.11672 1.84161e-09 0)
(9.11672 1.72301e-09 0)
(9.11672 2.10519e-09 0)
(9.11672 2.03226e-09 0)
(9.11672 2.14605e-09 0)
(9.11672 2.10131e-09 0)
(9.11672 1.9828e-09 0)
(9.11672 1.96897e-09 0)
(9.11672 1.65535e-09 0)
(9.11672 1.60034e-09 0)
(9.11672 1.24151e-09 0)
(9.11672 1.17875e-09 0)
(9.11672 5.87014e-10 0)
(9.11672 6.53375e-10 0)
(9.11672 5.78321e-10 0)
(9.11672 -2.60688e-10 0)
)
;

boundaryField
{
    top
    {
        type            fixedValue;
        value           uniform (10 0 0);
    }
    bottom
    {
        type            fixedValue;
        value           uniform (0 0 0);
    }
    inlet
    {
        type            zeroGradient;
    }
    outlet
    {
        type            zeroGradient;
    }
    frontAndBack
    {
        type            empty;
    }
}


// ************************************************************************* //
