/*--------------------------------*- C++ -*----------------------------------*\
| =========                 |                                                 |
| \\      /  F ield         | OpenFOAM: The Open Source CFD Toolbox           |
|  \\    /   O peration     | Version:  4.1                                   |
|   \\  /    A nd           | Web:      www.OpenFOAM.org                      |
|    \\/     M anipulation  |                                                 |
\*---------------------------------------------------------------------------*/
FoamFile
{
    version     2.0;
    format      ascii;
    class       surfaceScalarField;
    location    "2.4";
    object      phi;
}
// * * * * * * * * * * * * * * * * * * * * * * * * * * * * * * * * * * * * * //

dimensions      [0 3 -1 0 0 0 0];

internalField   nonuniform List<scalar> 
760
(
-1.91641e-05
4.48133e-13
-1.91641e-05
6.00737e-12
-1.91641e-05
-1.84188e-12
-1.91641e-05
1.45858e-11
-1.91641e-05
-1.15809e-12
-1.91641e-05
2.07116e-11
-1.91641e-05
-1.21978e-12
-1.91641e-05
2.46663e-11
-1.9164e-05
-8.33705e-13
-1.91641e-05
2.58109e-11
-1.9164e-05
-2.24358e-13
-1.91641e-05
2.42757e-11
-1.9164e-05
6.85526e-13
-1.91641e-05
2.04238e-11
-1.91641e-05
1.82284e-12
-1.91641e-05
1.4558e-11
-1.91641e-05
3.06277e-12
-1.91641e-05
8.1693e-12
-1.91641e-05
3.68497e-12
1.80586e-12
-5.11593e-05
1.6451e-12
-5.11593e-05
1.20591e-11
-5.11593e-05
-1.42228e-12
-5.11593e-05
2.78428e-11
-5.11593e-05
7.31731e-13
-5.11593e-05
3.91352e-11
-5.11593e-05
1.27882e-12
-5.11593e-05
4.6347e-11
-5.11593e-05
2.29409e-12
-5.11593e-05
4.83148e-11
-5.11593e-05
3.33813e-12
-5.11593e-05
4.53158e-11
-5.11593e-05
4.58076e-12
-5.11593e-05
3.80427e-11
-5.11593e-05
5.94875e-12
-5.11593e-05
2.70874e-11
-5.11593e-05
7.30144e-12
-5.11593e-05
1.51718e-11
-5.11593e-05
7.42333e-12
3.47468e-12
-7.68218e-05
4.19033e-12
-7.68218e-05
1.93472e-11
-7.68218e-05
2.49571e-12
-7.68218e-05
4.21635e-11
-7.68218e-05
7.66862e-12
-7.68218e-05
5.84865e-11
-7.68218e-05
9.96061e-12
-7.68218e-05
6.87032e-11
-7.68218e-05
1.20663e-11
-7.68218e-05
7.12444e-11
-7.68218e-05
1.33347e-11
-7.68218e-05
6.65752e-11
-7.68218e-05
1.40727e-11
-7.68218e-05
5.5742e-11
-7.68218e-05
1.43439e-11
-7.68218e-05
3.96881e-11
-7.68218e-05
1.41089e-11
-7.68218e-05
2.22022e-11
-7.68218e-05
1.20626e-11
5.37615e-12
-9.61515e-05
8.02157e-12
-9.61515e-05
2.73947e-11
-9.61515e-05
9.99582e-12
-9.61515e-05
5.63708e-11
-9.61515e-05
1.95544e-11
-9.61515e-05
7.70628e-11
-9.61515e-05
2.46313e-11
-9.61515e-05
8.96788e-11
-9.61515e-05
2.81798e-11
-9.61515e-05
9.24291e-11
-9.61515e-05
2.93783e-11
-9.61515e-05
8.59921e-11
-9.61515e-05
2.87115e-11
-9.61515e-05
7.1762e-11
-9.61515e-05
2.6521e-11
-9.61515e-05
5.10764e-11
-9.61515e-05
2.29468e-11
-9.61515e-05
2.84872e-11
-9.61515e-05
1.71892e-11
7.19826e-12
-0.000109148
1.23509e-11
-0.000109148
3.54266e-11
-0.000109148
1.91797e-11
-0.000109148
6.96496e-11
-0.000109148
3.38446e-11
-0.000109148
9.40663e-11
-0.000109148
4.23148e-11
-0.000109148
1.08566e-10
-0.000109148
4.75518e-11
-0.000109148
1.1129e-10
-0.000109148
4.85787e-11
-0.000109148
1.03131e-10
-0.000109148
4.60602e-11
-0.000109148
8.5809e-11
-0.000109148
4.07086e-11
-0.000109148
6.10679e-11
-0.000109148
3.28389e-11
-0.000109148
3.39636e-11
-0.000109148
2.26442e-11
9.00132e-12
-0.000115812
1.6516e-11
-0.000115812
4.24629e-11
-0.000115812
2.86232e-11
-0.000115812
8.03512e-11
-0.000115812
4.84513e-11
-0.000115812
1.07407e-10
-0.000115812
6.04979e-11
-0.000115812
1.23052e-10
-0.000115812
6.74919e-11
-0.000115812
1.25522e-10
-0.000115812
6.83261e-11
-0.000115812
1.15895e-10
-0.000115812
6.38225e-11
-0.000115812
9.61532e-11
-0.000115812
5.50991e-11
-0.000115812
6.84222e-11
-0.000115812
4.25849e-11
-0.000115812
3.79193e-11
-0.000115812
2.78776e-11
1.06092e-11
-0.000116144
2.00799e-11
-0.000116144
4.80136e-11
-0.000116144
3.72902e-11
-0.000116144
8.77874e-11
-0.000116144
6.18453e-11
-0.000116144
1.16266e-10
-0.000116144
7.73147e-11
-0.000116144
1.32278e-10
-0.000116144
8.59959e-11
-0.000116144
1.34298e-10
-0.000116144
8.66782e-11
-0.000116144
1.23552e-10
-0.000116144
8.02992e-11
-0.000116144
1.02197e-10
-0.000116144
6.83715e-11
-0.000116144
7.27042e-11
-0.000116144
5.13513e-11
-0.000116144
4.00789e-11
-0.000116144
3.2512e-11
1.19423e-11
-0.000110142
2.2857e-11
-0.000110142
5.19543e-11
-0.000110142
4.47462e-11
-0.000110142
9.19459e-11
-0.000110142
7.33426e-11
-0.000110142
1.20693e-10
-0.000110142
9.18935e-11
-0.000110142
1.36359e-10
-0.000110142
1.02097e-10
-0.000110142
1.37776e-10
-0.000110142
1.02675e-10
-0.000110142
1.26274e-10
-0.000110142
9.46302e-11
-0.000110142
1.04097e-10
-0.000110142
7.98393e-11
-0.000110142
7.40328e-11
-0.000110142
5.87283e-11
-0.000110142
4.04859e-11
-0.000110142
3.63139e-11
1.29964e-11
-9.78077e-05
2.4755e-11
-9.78077e-05
5.4273e-11
-9.78077e-05
5.07145e-11
-9.78077e-05
9.30332e-11
-9.78077e-05
8.2488e-11
-9.78077e-05
1.21012e-10
-9.78077e-05
1.03618e-10
-9.78077e-05
1.3572e-10
-9.78077e-05
1.15083e-10
-9.78077e-05
1.36425e-10
-9.78077e-05
1.15586e-10
-9.78077e-05
1.24522e-10
-9.78077e-05
1.06152e-10
-9.78077e-05
1.02248e-10
-9.78077e-05
8.89619e-11
-9.78077e-05
7.26895e-11
-9.78077e-05
6.4396e-11
-9.78077e-05
3.92811e-11
-9.78077e-05
3.90571e-11
1.37532e-11
-7.91405e-05
2.57381e-11
-7.91405e-05
5.49945e-11
-7.91405e-05
5.50266e-11
-7.91405e-05
9.13499e-11
-7.91405e-05
8.89856e-11
-7.91405e-05
1.17669e-10
-7.91405e-05
1.12061e-10
-7.91405e-05
1.3093e-10
-7.91405e-05
1.24446e-10
-7.91405e-05
1.30862e-10
-7.91405e-05
1.24881e-10
-7.91405e-05
1.18892e-10
-7.91405e-05
1.14378e-10
-7.91405e-05
9.71667e-11
-7.91405e-05
9.53354e-11
-7.91405e-05
6.9045e-11
-7.91405e-05
6.81256e-11
-7.91405e-05
3.66815e-11
-7.91405e-05
4.05479e-11
1.41846e-11
-5.41405e-05
2.57972e-11
-5.41405e-05
5.41361e-11
-5.41405e-05
5.75348e-11
-5.41405e-05
8.71869e-11
-5.41405e-05
9.25863e-11
-5.41405e-05
1.11102e-10
-5.41405e-05
1.16855e-10
-5.41405e-05
1.22549e-10
-5.41405e-05
1.2975e-10
-5.41405e-05
1.21698e-10
-5.41405e-05
1.30105e-10
-5.41405e-05
1.09978e-10
-5.41405e-05
1.1889e-10
-5.41405e-05
8.93692e-11
-5.41405e-05
9.86149e-11
-5.41405e-05
6.34658e-11
-5.41405e-05
6.97265e-11
-5.41405e-05
3.29306e-11
-5.41405e-05
4.06265e-11
1.4238e-11
-2.28077e-05
2.49482e-11
-2.28077e-05
5.17158e-11
-2.28077e-05
5.80903e-11
-2.28077e-05
8.08038e-11
-2.28077e-05
9.30621e-11
-2.28077e-05
1.01707e-10
-2.28077e-05
1.17666e-10
-2.28077e-05
1.11088e-10
-2.28077e-05
1.30606e-10
-2.28077e-05
1.09492e-10
-2.28077e-05
1.30856e-10
-2.28077e-05
9.83245e-11
-2.28077e-05
1.19324e-10
-2.28077e-05
7.93341e-11
-2.28077e-05
9.85089e-11
-2.28077e-05
5.62832e-11
-2.28077e-05
6.90383e-11
-2.28077e-05
2.82768e-11
-2.28077e-05
3.91907e-11
1.38387e-11
1.48579e-05
2.32381e-11
1.48579e-05
4.77809e-11
1.48579e-05
5.65511e-11
1.48579e-05
7.24402e-11
1.48579e-05
9.02111e-11
1.48579e-05
8.98573e-11
1.48579e-05
1.14203e-10
1.48579e-05
9.70208e-11
1.48579e-05
1.26687e-10
1.48579e-05
9.47575e-11
1.48579e-05
1.26803e-10
1.48579e-05
8.44261e-11
1.48579e-05
1.15388e-10
1.48579e-05
6.74964e-11
1.48579e-05
9.47962e-11
1.48579e-05
4.77878e-11
1.48579e-05
6.59372e-11
1.48579e-05
2.29577e-11
1.48579e-05
3.62204e-11
1.29041e-11
5.88564e-05
2.07647e-11
5.88564e-05
4.24607e-11
5.88564e-05
5.2838e-11
5.88564e-05
6.23882e-11
5.88564e-05
8.39347e-11
5.88564e-05
7.59935e-11
5.88564e-05
1.0632e-10
5.88564e-05
8.0888e-11
5.88564e-05
1.1783e-10
5.88564e-05
7.80736e-11
5.88564e-05
1.17792e-10
5.88564e-05
6.88322e-11
5.88564e-05
1.06954e-10
5.88564e-05
5.43313e-11
5.88564e-05
8.74042e-11
5.88564e-05
3.82928e-11
5.88564e-05
6.03872e-11
5.88564e-05
1.72247e-11
5.88564e-05
3.18147e-11
1.1379e-11
0.000109188
1.76501e-11
0.000109188
3.5957e-11
0.000109188
4.69386e-11
0.000109188
5.09707e-11
0.000109188
7.42428e-11
0.000109188
6.05967e-11
0.000109188
9.40263e-11
0.000109188
6.32652e-11
0.000109188
1.04069e-10
0.000109188
6.00566e-11
0.000109188
1.03874e-10
0.000109188
5.21256e-11
0.000109188
9.40892e-11
0.000109188
4.03367e-11
0.000109188
7.64364e-11
0.000109188
2.81349e-11
0.000109188
5.24624e-11
0.000109188
1.13156e-11
0.000109188
2.62031e-11
9.26657e-12
0.000165852
1.41243e-11
0.000165852
2.86983e-11
0.000165852
3.91878e-11
0.000165852
3.89373e-11
0.000165852
6.16986e-11
0.000165852
4.47592e-11
0.000165852
7.80535e-11
0.000165852
4.54457e-11
0.000165852
8.62357e-11
0.000165852
4.20635e-11
0.000165852
8.59065e-11
0.000165852
3.55965e-11
0.000165852
7.7598e-11
0.000165852
2.66324e-11
0.000165852
6.26117e-11
0.000165852
1.81559e-11
0.000165852
4.26683e-11
0.000165852
5.77724e-12
0.000165852
1.98928e-11
6.753e-12
0.000228849
1.05566e-11
0.000228849
2.13939e-11
0.000228849
3.04299e-11
0.000228849
2.74807e-11
0.000228849
4.76883e-11
0.000228849
3.01146e-11
0.000228849
6.02043e-11
0.000228849
2.92999e-11
0.000228849
6.63655e-11
0.000228849
2.60066e-11
0.000228849
6.59568e-11
0.000228849
2.10317e-11
0.000228849
5.9387e-11
0.000228849
1.47338e-11
0.000228849
4.75479e-11
0.000228849
9.50169e-12
0.000228849
3.21369e-11
0.000228849
1.28952e-12
0.000228849
1.37025e-11
4.20781e-12
0.000298178
6.72777e-12
0.000298178
1.38767e-11
0.000298178
2.04951e-11
0.000298178
1.68948e-11
0.000298178
3.21157e-11
0.000298178
1.75306e-11
0.000298178
4.05041e-11
0.000298178
1.61576e-11
0.000298178
4.45904e-11
0.000298178
1.35255e-11
0.000298178
4.42463e-11
0.000298178
1.01879e-11
0.000298178
3.9747e-11
0.000298178
6.33478e-12
0.000298178
3.16167e-11
0.000298178
3.61241e-12
0.000298178
2.12359e-11
0.000298178
-1.04712e-12
0.000298178
8.23254e-12
2.16008e-12
0.000373841
3.33297e-12
0.000373841
7.19392e-12
0.000373841
1.08983e-11
0.000373841
8.47154e-12
0.000373841
1.72618e-11
0.000373841
8.42929e-12
0.000373841
2.18202e-11
0.000373841
7.40999e-12
0.000373841
2.40538e-11
0.000373841
5.85563e-12
0.000373841
2.38871e-11
0.000373841
4.07221e-12
0.000373841
2.14667e-11
0.000373841
2.14945e-12
0.000373841
1.70472e-11
0.000373841
9.70474e-13
0.000373841
1.14452e-11
0.000373841
-1.18292e-12
0.000373841
4.18185e-12
9.08499e-13
0.000455836
0.000455836
0.000455836
0.000455836
0.000455836
0.000455836
0.000455836
0.000455836
0.000455836
0.000455836
0.000455836
0.000455836
0.000455836
0.000455836
0.000455836
0.000455836
0.000455836
0.000455836
0.000455836
)
;

boundaryField
{
    top
    {
        type            calculated;
        value           uniform 0;
    }
    bottom
    {
        type            calculated;
        value           uniform 0;
    }
    inlet
    {
        type            calculated;
        value           nonuniform List<scalar> 
20
(
1.91641e-05
5.11593e-05
7.68218e-05
9.61515e-05
0.000109148
0.000115812
0.000116144
0.000110142
9.78077e-05
7.91405e-05
5.41405e-05
2.28077e-05
-1.48579e-05
-5.88564e-05
-0.000109188
-0.000165852
-0.000228849
-0.000298178
-0.000373841
-0.000455836
)
;
    }
    outlet
    {
        type            calculated;
        value           nonuniform List<scalar> 
20
(
-1.91641e-05
-5.11593e-05
-7.68218e-05
-9.61515e-05
-0.000109148
-0.000115812
-0.000116144
-0.000110142
-9.78077e-05
-7.91405e-05
-5.41405e-05
-2.28077e-05
1.48579e-05
5.88564e-05
0.000109188
0.000165852
0.000228849
0.000298178
0.000373841
0.000455836
)
;
    }
    frontAndBack
    {
        type            empty;
        value           nonuniform 0();
    }
}


// ************************************************************************* //
