/*--------------------------------*- C++ -*----------------------------------*\
| =========                 |                                                 |
| \\      /  F ield         | OpenFOAM: The Open Source CFD Toolbox           |
|  \\    /   O peration     | Version:  4.1                                   |
|   \\  /    A nd           | Web:      www.OpenFOAM.org                      |
|    \\/     M anipulation  |                                                 |
\*---------------------------------------------------------------------------*/
FoamFile
{
    version     2.0;
    format      ascii;
    class       volVectorField;
    location    "2.4";
    object      U;
}
// * * * * * * * * * * * * * * * * * * * * * * * * * * * * * * * * * * * * * //

dimensions      [0 1 -1 0 0 0 0];

internalField   nonuniform List<vector> 
400
(
(-0.383281 1.36934e-10 0)
(-0.383281 2.68932e-09 0)
(-0.383281 -1.0355e-09 0)
(-0.383281 6.55247e-09 0)
(-0.383281 -8.6716e-10 0)
(-0.383281 9.29525e-09 0)
(-0.383281 -1.0002e-09 0)
(-0.383281 1.10659e-08 0)
(-0.383281 -8.81279e-10 0)
(-0.383281 1.15737e-08 0)
(-0.383281 -6.09209e-10 0)
(-0.383281 1.08766e-08 0)
(-0.383281 -1.52884e-10 0)
(-0.383281 9.13805e-09 0)
(-0.383281 4.49817e-10 0)
(-0.383281 6.49177e-09 0)
(-0.383281 1.13398e-09 0)
(-0.383281 3.61752e-09 0)
(-0.383281 1.56166e-09 0)
(-0.383281 7.24594e-10 0)
(-1.02319 1.20699e-09 0)
(-1.02319 9.56316e-09 0)
(-1.02319 -1.23213e-09 0)
(-1.02319 2.24246e-08 0)
(-1.02319 4.7182e-10 0)
(-1.02319 3.15707e-08 0)
(-1.02319 8.70838e-10 0)
(-1.02319 3.74083e-08 0)
(-1.02319 1.65052e-09 0)
(-1.02319 3.90155e-08 0)
(-1.02319 2.47503e-09 0)
(-1.02319 3.66115e-08 0)
(-1.02319 3.48239e-09 0)
(-1.02319 3.07537e-08 0)
(-1.02319 4.6124e-09 0)
(-1.02319 2.19236e-08 0)
(-1.02319 5.736e-09 0)
(-1.02319 1.23037e-08 0)
(-1.02319 5.91566e-09 0)
(-1.02319 2.76604e-09 0)
(-1.53644 2.87715e-09 0)
(-1.53644 1.58499e-08 0)
(-1.53644 3.52213e-10 0)
(-1.53644 3.54512e-08 0)
(-1.53644 3.98855e-09 0)
(-1.53644 4.94544e-08 0)
(-1.53644 5.36425e-09 0)
(-1.53644 5.82918e-08 0)
(-1.53644 6.9253e-09 0)
(-1.53644 6.05798e-08 0)
(-1.53644 8.1183e-09 0)
(-1.53644 5.66934e-08 0)
(-1.53644 9.18809e-09 0)
(-1.53644 4.75143e-08 0)
(-1.53644 1.00968e-08 0)
(-1.53644 3.38186e-08 0)
(-1.53644 1.07061e-08 0)
(-1.53644 1.89192e-08 0)
(-1.53644 9.81046e-09 0)
(-1.53644 4.43159e-09 0)
(-1.92303 6.10899e-09 0)
(-1.92303 2.33201e-08 0)
(-1.92303 6.3437e-09 0)
(-1.92303 4.9151e-08 0)
(-1.92303 1.36955e-08 0)
(-1.92303 6.75977e-08 0)
(-1.92303 1.73905e-08 0)
(-1.92303 7.89714e-08 0)
(-1.92303 2.02312e-08 0)
(-1.92303 8.16003e-08 0)
(-1.92303 2.14755e-08 0)
(-1.92303 7.6056e-08 0)
(-1.92303 2.15109e-08 0)
(-1.92303 6.35558e-08 0)
(-1.92303 2.05222e-08 0)
(-1.92303 4.52385e-08 0)
(-1.92303 1.85296e-08 0)
(-1.92303 2.52611e-08 0)
(-1.92303 1.45711e-08 0)
(-1.92303 6.24293e-09 0)
(-2.18297 1.01604e-08 0)
(-2.18297 3.13633e-08 0)
(-2.18297 1.45475e-08 0)
(-2.18297 6.2923e-08 0)
(-2.18297 2.65933e-08 0)
(-2.18297 8.54445e-08 0)
(-2.18297 3.33409e-08 0)
(-2.18297 9.89834e-08 0)
(-2.18297 3.7735e-08 0)
(-2.18297 1.01716e-07 0)
(-2.18297 3.88657e-08 0)
(-2.18297 9.44265e-08 0)
(-2.18297 3.72906e-08 0)
(-2.18297 7.86702e-08 0)
(-2.18297 3.35393e-08 0)
(-2.18297 5.59856e-08 0)
(-2.18297 2.78352e-08 0)
(-2.18297 3.11736e-08 0)
(-2.18297 1.98733e-08 0)
(-2.18297 8.07553e-09 0)
(-2.31625 1.44127e-08 0)
(-2.31625 3.8899e-08 0)
(-2.31625 2.38541e-08 0)
(-2.31625 7.48962e-08 0)
(-2.31625 4.10609e-08 0)
(-2.31625 1.00593e-07 0)
(-2.31625 5.12977e-08 0)
(-2.31625 1.15645e-07 0)
(-2.31625 5.74026e-08 0)
(-2.31625 1.18238e-07 0)
(-2.31625 5.83336e-08 0)
(-2.31625 1.09358e-07 0)
(-2.31625 5.48309e-08 0)
(-2.31625 9.08512e-08 0)
(-2.31625 4.78106e-08 0)
(-2.31625 6.46501e-08 0)
(-2.31625 3.76482e-08 0)
(-2.31625 3.58854e-08 0)
(-2.31625 2.52184e-08 0)
(-2.31625 9.79035e-09 0)
(-2.32287 1.82801e-08 0)
(-2.32287 4.5194e-08 0)
(-2.32287 3.28832e-08 0)
(-2.32287 8.39455e-08 0)
(-2.32287 5.50285e-08 0)
(-2.32287 1.11665e-07 0)
(-2.32287 6.87577e-08 0)
(-2.32287 1.2747e-07 0)
(-2.32287 7.65797e-08 0)
(-2.32287 1.29712e-07 0)
(-2.32287 7.73376e-08 0)
(-2.32287 1.1954e-07 0)
(-2.32287 7.19118e-08 0)
(-2.32287 9.90213e-08 0)
(-2.32287 6.16129e-08 0)
(-2.32287 7.04501e-08 0)
(-2.32287 4.68837e-08 0)
(-2.32287 3.89303e-08 0)
(-2.32287 3.01464e-08 0)
(-2.32287 1.12633e-08 0)
(-2.20284 2.14636e-08 0)
(-2.20284 4.99546e-08 0)
(-2.20284 4.09563e-08 0)
(-2.20284 8.97527e-08 0)
(-2.20284 6.74844e-08 0)
(-2.20284 1.18321e-07 0)
(-2.20284 8.44687e-08 0)
(-2.20284 1.34139e-07 0)
(-2.20284 9.38984e-08 0)
(-2.20284 1.35855e-07 0)
(-2.20284 9.45297e-08 0)
(-2.20284 1.24746e-07 0)
(-2.20284 8.73323e-08 0)
(-2.20284 1.03008e-07 0)
(-2.20284 7.39967e-08 0)
(-2.20284 7.32669e-08 0)
(-2.20284 5.49657e-08 0)
(-2.20284 4.02204e-08 0)
(-2.20284 3.43744e-08 0)
(-2.20284 1.24686e-08 0)
(-1.95615 2.38088e-08 0)
(-1.95615 5.30932e-08 0)
(-1.95615 4.76655e-08 0)
(-1.95615 9.23764e-08 0)
(-1.95615 7.78003e-08 0)
(-1.95615 1.20694e-07 0)
(-1.95615 9.76138e-08 0)
(-1.95615 1.35862e-07 0)
(-1.95615 1.08435e-07 0)
(-1.95615 1.36921e-07 0)
(-1.95615 1.08977e-07 0)
(-1.95615 1.25233e-07 0)
(-1.95615 1.00254e-07 0)
(-1.95615 1.03036e-07 0)
(-1.95615 8.42882e-08 0)
(-1.95615 7.32618e-08 0)
(-1.95615 6.14866e-08 0)
(-1.95615 3.98225e-08 0)
(-1.95615 3.76519e-08 0)
(-1.95615 1.33814e-08 0)
(-1.58281 2.52541e-08 0)
(-1.58281 5.46194e-08 0)
(-1.58281 5.28027e-08 0)
(-1.58281 9.2079e-08 0)
(-1.58281 8.56173e-08 0)
(-1.58281 1.19184e-07 0)
(-1.58281 1.07692e-07 0)
(-1.58281 1.3315e-07 0)
(-1.58281 1.19604e-07 0)
(-1.58281 1.33468e-07 0)
(-1.58281 1.20075e-07 0)
(-1.58281 1.21546e-07 0)
(-1.58281 1.10123e-07 0)
(-1.58281 9.9575e-08 0)
(-1.58281 9.20334e-08 0)
(-1.58281 7.07713e-08 0)
(-1.58281 6.61843e-08 0)
(-1.58281 3.79222e-08 0)
(-1.58281 3.97733e-08 0)
(-1.58281 1.39818e-08 0)
(-1.08281 2.57768e-08 0)
(-1.08281 5.45541e-08 0)
(-1.08281 5.62115e-08 0)
(-1.08281 8.9157e-08 0)
(-1.08281 9.06638e-08 0)
(-1.08281 1.14232e-07 0)
(-1.08281 1.14307e-07 0)
(-1.08281 1.26569e-07 0)
(-1.08281 1.26934e-07 0)
(-1.08281 1.2611e-07 0)
(-1.08281 1.27332e-07 0)
(-1.08281 1.1428e-07 0)
(-1.08281 1.16489e-07 0)
(-1.08281 9.31411e-08 0)
(-1.08281 9.6858e-08 0)
(-1.08281 6.61641e-08 0)
(-1.08281 6.8849e-08 0)
(-1.08281 3.47499e-08 0)
(-1.08281 4.0561e-08 0)
(-1.08281 1.42285e-08 0)
(-0.456153 2.53802e-08 0)
(-0.456153 5.29143e-08 0)
(-0.456153 5.77438e-08 0)
(-0.456153 8.38859e-08 0)
(-0.456153 9.27019e-08 0)
(-0.456153 1.06257e-07 0)
(-0.456153 1.17108e-07 0)
(-0.456153 1.16655e-07 0)
(-0.456153 1.30014e-07 0)
(-0.456153 1.15432e-07 0)
(-0.456153 1.30318e-07 0)
(-0.456153 1.04005e-07 0)
(-0.456153 1.18962e-07 0)
(-0.456153 8.42321e-08 0)
(-0.456153 9.84441e-08 0)
(-0.456153 5.97891e-08 0)
(-0.456153 6.93053e-08 0)
(-0.456153 3.05518e-08 0)
(-0.456153 3.98832e-08 0)
(-0.456153 1.40572e-08 0)
(0.297159 2.40962e-08 0)
(0.297159 4.97321e-08 0)
(0.297159 5.72546e-08 0)
(0.297159 7.65162e-08 0)
(0.297159 9.15172e-08 0)
(0.297159 9.56426e-08 0)
(0.297159 1.15785e-07 0)
(0.297159 1.03901e-07 0)
(0.297159 1.28484e-07 0)
(0.297159 1.01973e-07 0)
(0.297159 1.28669e-07 0)
(0.297159 9.1239e-08 0)
(0.297159 1.17212e-07 0)
(0.297159 7.33051e-08 0)
(0.297159 9.65354e-08 0)
(0.297159 5.19575e-08 0)
(0.297159 6.74108e-08 0)
(0.297159 2.5571e-08 0)
(0.297159 3.76783e-08 0)
(0.297159 1.33882e-08 0)
(1.17713 2.19928e-08 0)
(1.17713 4.5089e-08 0)
(1.17713 5.46224e-08 0)
(1.17713 6.72986e-08 0)
(1.17713 8.69441e-08 0)
(1.17713 8.27737e-08 0)
(1.17713 1.101e-07 0)
(1.17713 8.87863e-08 0)
(1.17713 1.22082e-07 0)
(1.17713 8.62484e-08 0)
(1.17713 1.22122e-07 0)
(1.17713 7.64782e-08 0)
(1.17713 1.11013e-07 0)
(1.17713 6.07917e-08 0)
(1.17713 9.09708e-08 0)
(1.17713 4.29548e-08 0)
(1.17713 6.30757e-08 0)
(1.17713 2.00396e-08 0)
(1.17713 3.39811e-08 0)
(1.17713 1.2149e-08 0)
(2.18375 1.91984e-08 0)
(2.18375 3.9178e-08 0)
(2.18375 4.9837e-08 0)
(2.18375 5.65966e-08 0)
(2.18375 7.89931e-08 0)
(2.18375 6.81896e-08 0)
(2.18375 1.0005e-07 0)
(2.18375 7.19602e-08 0)
(2.18375 1.10813e-07 0)
(2.18375 6.89459e-08 0)
(2.18375 1.10695e-07 0)
(2.18375 6.03711e-08 0)
(2.18375 1.00396e-07 0)
(2.18375 4.72486e-08 0)
(2.18375 8.18151e-08 0)
(2.18375 3.31542e-08 0)
(2.18375 5.63535e-08 0)
(2.18375 1.4241e-08 0)
(2.18375 2.89737e-08 0)
(2.18375 1.0324e-08 0)
(3.31703 1.58668e-08 0)
(3.31703 3.2284e-08 0)
(3.31703 4.30127e-08 0)
(3.31703 4.48755e-08 0)
(3.31703 6.78819e-08 0)
(3.31703 5.25766e-08 0)
(3.31703 8.59255e-08 0)
(3.31703 5.42421e-08 0)
(3.31703 9.50244e-08 0)
(3.31703 5.09485e-08 0)
(3.31703 9.47607e-08 0)
(3.31703 4.37575e-08 0)
(3.31703 8.57241e-08 0)
(3.31703 3.33911e-08 0)
(3.31703 6.94232e-08 0)
(3.31703 2.30557e-08 0)
(3.31703 4.74942e-08 0)
(3.31703 8.5099e-09 0)
(3.31703 2.30071e-08 0)
(3.31703 7.99572e-09 0)
(4.57697 1.22629e-08 0)
(4.57697 2.49301e-08 0)
(4.57697 3.46792e-08 0)
(4.57697 3.31191e-08 0)
(4.57697 5.45012e-08 0)
(4.57697 3.73802e-08 0)
(4.57697 6.88897e-08 0)
(4.57697 3.73636e-08 0)
(4.57697 7.60386e-08 0)
(4.57697 3.41091e-08 0)
(4.57697 7.56726e-08 0)
(4.57697 2.84204e-08 0)
(4.57697 6.82608e-08 0)
(4.57697 2.07793e-08 0)
(4.57697 5.4896e-08 0)
(4.57697 1.38733e-08 0)
(4.57697 3.72822e-08 0)
(4.57697 3.60251e-09 0)
(4.57697 1.67513e-08 0)
(4.57697 5.47308e-09 0)
(5.96356 8.70241e-09 0)
(5.96356 1.77963e-08 0)
(5.96356 2.57385e-08 0)
(5.96356 2.23622e-08 0)
(5.96356 4.03675e-08 0)
(5.96356 2.39231e-08 0)
(5.96356 5.09525e-08 0)
(5.96356 2.27558e-08 0)
(5.96356 5.61449e-08 0)
(5.96356 1.97755e-08 0)
(5.96356 5.57706e-08 0)
(5.96356 1.55677e-08 0)
(5.96356 5.01716e-08 0)
(5.96356 1.04255e-08 0)
(5.96356 4.00648e-08 0)
(5.96356 6.41427e-09 0)
(5.96356 2.70017e-08 0)
(5.96356 -4.97902e-11 0)
(5.96356 1.10706e-08 0)
(5.96356 3.14622e-09 0)
(7.47681 5.1878e-09 0)
(7.47681 1.0962e-08 0)
(7.47681 1.64689e-08 0)
(7.47681 1.35455e-08 0)
(7.47681 2.59888e-08 0)
(7.47681 1.40389e-08 0)
(7.47681 3.28207e-08 0)
(7.47681 1.29319e-08 0)
(7.47681 3.61599e-08 0)
(7.47681 1.08366e-08 0)
(7.47681 3.59017e-08 0)
(7.47681 8.16888e-09 0)
(7.47681 3.22718e-08 0)
(7.47681 5.09162e-09 0)
(7.47681 2.5682e-08 0)
(7.47681 2.9234e-09 0)
(7.47681 1.72835e-08 0)
(7.47681 -7.65686e-10 0)
(7.47681 6.62429e-09 0)
(7.47681 1.67229e-09 0)
(9.11672 1.3791e-09 0)
(9.11672 3.10565e-09 0)
(9.11672 4.735e-09 0)
(9.11672 3.58111e-09 0)
(9.11672 7.56976e-09 0)
(9.11672 3.41805e-09 0)
(9.11672 9.61107e-09 0)
(9.11672 2.86617e-09 0)
(9.11672 1.06272e-08 0)
(9.11672 2.12424e-09 0)
(9.11672 1.05791e-08 0)
(9.11672 1.3335e-09 0)
(9.11672 9.52674e-09 0)
(9.11672 5.27483e-10 0)
(9.11672 7.58341e-09 0)
(9.11672 1.0083e-10 0)
(9.11672 5.09913e-09 0)
(9.11672 -7.55657e-10 0)
(9.11672 1.8889e-09 0)
(9.11672 3.53886e-10 0)
)
;

boundaryField
{
    top
    {
        type            fixedValue;
        value           uniform (10 0 0);
    }
    bottom
    {
        type            fixedValue;
        value           uniform (0 0 0);
    }
    inlet
    {
        type            zeroGradient;
    }
    outlet
    {
        type            zeroGradient;
    }
    frontAndBack
    {
        type            empty;
    }
}


// ************************************************************************* //
