/*--------------------------------*- C++ -*----------------------------------*\
| =========                 |                                                 |
| \\      /  F ield         | OpenFOAM: The Open Source CFD Toolbox           |
|  \\    /   O peration     | Version:  4.1                                   |
|   \\  /    A nd           | Web:      www.OpenFOAM.org                      |
|    \\/     M anipulation  |                                                 |
\*---------------------------------------------------------------------------*/
FoamFile
{
    version     2.0;
    format      ascii;
    class       volScalarField;
    location    "0.3";
    object      p;
}
// * * * * * * * * * * * * * * * * * * * * * * * * * * * * * * * * * * * * * //

dimensions      [0 2 -2 0 0 0 0];

internalField   nonuniform List<scalar> 
400
(
9.09435e-05
7.52219e-05
3.78348e-05
4.74594e-05
3.00402e-05
3.84335e-05
2.7792e-05
3.21081e-05
2.56718e-05
2.65663e-05
2.31905e-05
2.14131e-05
2.04829e-05
1.64435e-05
1.78111e-05
1.17275e-05
1.60773e-05
9.82301e-06
2.34742e-05
3.43955e-05
9.04993e-05
7.47371e-05
3.77708e-05
4.7438e-05
3.00368e-05
3.843e-05
2.77923e-05
3.21072e-05
2.56721e-05
2.65662e-05
2.31904e-05
2.14133e-05
2.04824e-05
1.64439e-05
1.78097e-05
1.17265e-05
1.60659e-05
9.80284e-06
2.31188e-05
3.40465e-05
9.01755e-05
7.4321e-05
3.76963e-05
4.74299e-05
3.00264e-05
3.84332e-05
2.7788e-05
3.21098e-05
2.567e-05
2.65674e-05
2.31898e-05
2.14132e-05
2.04829e-05
1.64426e-05
1.7811e-05
1.17231e-05
1.60598e-05
9.76888e-06
2.27859e-05
3.37512e-05
8.99376e-05
7.3986e-05
3.76203e-05
4.74255e-05
3.00161e-05
3.84373e-05
2.77833e-05
3.21128e-05
2.56677e-05
2.65688e-05
2.31892e-05
2.14131e-05
2.04837e-05
1.64411e-05
1.78129e-05
1.17201e-05
1.60554e-05
9.7215e-06
2.24924e-05
3.35082e-05
8.97475e-05
7.37109e-05
3.75465e-05
4.74216e-05
3.0008e-05
3.84404e-05
2.77796e-05
3.21151e-05
2.5666e-05
2.65698e-05
2.31888e-05
2.14129e-05
2.04842e-05
1.64399e-05
1.78145e-05
1.17183e-05
1.60513e-05
9.66584e-06
2.22262e-05
3.32943e-05
8.95862e-05
7.34731e-05
3.74733e-05
4.74177e-05
3.00017e-05
3.84428e-05
2.77767e-05
3.21169e-05
2.56646e-05
2.65706e-05
2.31884e-05
2.14128e-05
2.04847e-05
1.64389e-05
1.7816e-05
1.17176e-05
1.60476e-05
9.60264e-06
2.19764e-05
3.3098e-05
8.94532e-05
7.32713e-05
3.74026e-05
4.74143e-05
2.99967e-05
3.84447e-05
2.77743e-05
3.21183e-05
2.56635e-05
2.65712e-05
2.31882e-05
2.14127e-05
2.0485e-05
1.64382e-05
1.78174e-05
1.17178e-05
1.60444e-05
9.53438e-06
2.17438e-05
3.2919e-05
8.93461e-05
7.31041e-05
3.73366e-05
4.74115e-05
2.99931e-05
3.84462e-05
2.77726e-05
3.21193e-05
2.56627e-05
2.65716e-05
2.3188e-05
2.14126e-05
2.04853e-05
1.64377e-05
1.78187e-05
1.17188e-05
1.60419e-05
9.4637e-06
2.15286e-05
3.27554e-05
8.92615e-05
7.29691e-05
3.72772e-05
4.74089e-05
2.99909e-05
3.84472e-05
2.77714e-05
3.212e-05
2.56621e-05
2.65719e-05
2.31879e-05
2.14125e-05
2.04855e-05
1.64373e-05
1.782e-05
1.17206e-05
1.60398e-05
9.39322e-06
2.13293e-05
3.26039e-05
8.9196e-05
7.28639e-05
3.72262e-05
4.74065e-05
2.999e-05
3.84478e-05
2.77708e-05
3.21203e-05
2.56619e-05
2.6572e-05
2.31878e-05
2.14124e-05
2.04856e-05
1.64372e-05
1.78211e-05
1.17232e-05
1.60382e-05
9.32542e-06
2.1144e-05
3.24609e-05
8.91467e-05
7.27866e-05
3.71854e-05
4.74041e-05
2.99905e-05
3.84479e-05
2.77709e-05
3.21202e-05
2.56619e-05
2.6572e-05
2.31879e-05
2.14124e-05
2.04856e-05
1.64373e-05
1.7822e-05
1.17263e-05
1.60368e-05
9.26257e-06
2.09702e-05
3.23228e-05
8.91118e-05
7.27361e-05
3.7156e-05
4.74017e-05
2.99922e-05
3.84475e-05
2.77715e-05
3.21197e-05
2.56623e-05
2.65717e-05
2.3188e-05
2.14123e-05
2.04856e-05
1.64375e-05
1.78227e-05
1.173e-05
1.60355e-05
9.2066e-06
2.08051e-05
3.2186e-05
8.90899e-05
7.2712e-05
3.71392e-05
4.73994e-05
2.99953e-05
3.84467e-05
2.77728e-05
3.21189e-05
2.56629e-05
2.65713e-05
2.31882e-05
2.14123e-05
2.04854e-05
1.6438e-05
1.78233e-05
1.17341e-05
1.60342e-05
9.15905e-06
2.06459e-05
3.2047e-05
8.90808e-05
7.27145e-05
3.71354e-05
4.73974e-05
2.99996e-05
3.84454e-05
2.77747e-05
3.21177e-05
2.56638e-05
2.65708e-05
2.31885e-05
2.14123e-05
2.04852e-05
1.64386e-05
1.78236e-05
1.17385e-05
1.60327e-05
9.12097e-06
2.04896e-05
3.19026e-05
8.90849e-05
7.27441e-05
3.71444e-05
4.7396e-05
3.00053e-05
3.84436e-05
2.77771e-05
3.21162e-05
2.5665e-05
2.65701e-05
2.31888e-05
2.14123e-05
2.04849e-05
1.64395e-05
1.78237e-05
1.17431e-05
1.60311e-05
9.09295e-06
2.03331e-05
3.175e-05
8.9103e-05
7.28016e-05
3.71655e-05
4.73952e-05
3.00122e-05
3.84414e-05
2.77801e-05
3.21143e-05
2.56665e-05
2.65692e-05
2.31893e-05
2.14124e-05
2.04845e-05
1.64405e-05
1.78235e-05
1.17478e-05
1.60292e-05
9.07501e-06
2.01744e-05
3.15871e-05
8.91354e-05
7.28885e-05
3.71972e-05
4.73947e-05
3.00207e-05
3.84383e-05
2.77839e-05
3.21119e-05
2.56683e-05
2.65681e-05
2.31898e-05
2.14125e-05
2.0484e-05
1.64418e-05
1.78229e-05
1.17527e-05
1.60271e-05
9.0668e-06
2.00112e-05
3.14114e-05
8.91985e-05
7.30239e-05
3.72404e-05
4.73949e-05
3.00312e-05
3.84343e-05
2.77886e-05
3.21089e-05
2.56706e-05
2.65668e-05
2.31904e-05
2.14126e-05
2.04833e-05
1.64434e-05
1.78218e-05
1.17579e-05
1.60246e-05
9.06796e-06
1.98389e-05
3.12175e-05
8.93188e-05
7.32183e-05
3.72913e-05
4.73992e-05
3.00415e-05
3.84312e-05
2.77929e-05
3.21063e-05
2.56726e-05
2.65656e-05
2.31909e-05
2.14127e-05
2.04827e-05
1.64448e-05
1.78209e-05
1.17624e-05
1.60232e-05
9.07871e-06
1.96508e-05
3.10031e-05
8.95488e-05
7.34759e-05
3.73395e-05
4.74173e-05
3.00445e-05
3.84349e-05
2.77924e-05
3.21073e-05
2.56723e-05
2.65658e-05
2.3191e-05
2.14125e-05
2.04831e-05
1.64445e-05
1.78225e-05
1.17634e-05
1.60267e-05
9.09341e-06
1.94674e-05
3.08092e-05
)
;

boundaryField
{
    top
    {
        type            zeroGradient;
    }
    bottom
    {
        type            zeroGradient;
    }
    inlet
    {
        type            fixedValue;
        value           uniform 0;
    }
    outlet
    {
        type            fixedValue;
        value           uniform 0;
    }
    frontAndBack
    {
        type            empty;
    }
}


// ************************************************************************* //
