/*--------------------------------*- C++ -*----------------------------------*\
| =========                 |                                                 |
| \\      /  F ield         | OpenFOAM: The Open Source CFD Toolbox           |
|  \\    /   O peration     | Version:  4.1                                   |
|   \\  /    A nd           | Web:      www.OpenFOAM.org                      |
|    \\/     M anipulation  |                                                 |
\*---------------------------------------------------------------------------*/
FoamFile
{
    version     2.0;
    format      ascii;
    class       surfaceScalarField;
    location    "0.3";
    object      phi;
}
// * * * * * * * * * * * * * * * * * * * * * * * * * * * * * * * * * * * * * //

dimensions      [0 3 -1 0 0 0 0];

internalField   nonuniform List<scalar> 
760
(
1.10985e-06
-1.57489e-10
1.10995e-06
-1.06464e-10
1.10995e-06
6.01728e-12
1.10996e-06
-1.21404e-11
1.10995e-06
7.80703e-12
1.10996e-06
-6.66816e-12
1.10995e-06
4.8646e-12
1.10996e-06
-3.57708e-12
1.10996e-06
2.37639e-12
1.10996e-06
-1.37235e-12
1.10996e-06
4.76814e-13
1.10996e-06
3.27222e-13
1.10996e-06
-1.09679e-12
1.10996e-06
1.82445e-12
1.10996e-06
-2.6611e-12
1.10995e-06
3.19302e-12
1.10996e-06
-5.27875e-12
1.10995e-06
6.35827e-12
1.11003e-06
-7.61677e-11
-1.03041e-10
3.33303e-06
-4.66501e-10
3.3333e-06
-3.67734e-10
3.3333e-06
-3.49804e-13
3.33332e-06
-3.00284e-11
3.33331e-06
1.5724e-11
3.33332e-06
-1.46779e-11
3.33332e-06
1.02661e-11
3.33332e-06
-7.65113e-12
3.33332e-06
5.00604e-12
3.33332e-06
-2.87587e-12
3.33332e-06
9.5154e-13
3.33332e-06
7.57993e-13
3.33332e-06
-2.4266e-12
3.33332e-06
3.94134e-12
3.33332e-06
-5.92448e-12
3.33332e-06
6.4968e-12
3.33332e-06
-1.36895e-11
3.33332e-06
1.38845e-11
3.33352e-06
-2.82999e-10
-3.42997e-10
5.56656e-06
-8.19837e-10
5.5669e-06
-7.01605e-10
5.56691e-06
-1.5662e-11
5.56693e-06
-4.37964e-11
5.56692e-06
2.00291e-11
5.56693e-06
-1.97725e-11
5.56692e-06
1.34463e-11
5.56693e-06
-1.00872e-11
5.56693e-06
6.5179e-12
5.56693e-06
-3.7131e-12
5.56693e-06
1.16105e-12
5.56693e-06
1.09288e-12
5.56693e-06
-3.3199e-12
5.56693e-06
5.3046e-12
5.56693e-06
-8.08792e-12
5.56693e-06
8.42519e-12
5.56693e-06
-2.09757e-11
5.56692e-06
2.21846e-11
5.56723e-06
-5.83546e-10
-6.69737e-10
7.81698e-06
-1.15431e-09
7.81732e-06
-1.03685e-09
7.81733e-06
-3.29461e-11
7.81734e-06
-5.20028e-11
7.81734e-06
2.16491e-11
7.81734e-06
-2.20906e-11
7.81734e-06
1.47454e-11
7.81734e-06
-1.10845e-11
7.81734e-06
7.0875e-12
7.81734e-06
-3.995e-12
7.81734e-06
1.17071e-12
7.81734e-06
1.31758e-12
7.81734e-06
-3.79364e-12
7.81734e-06
5.99407e-12
7.81734e-06
-9.17515e-12
7.81734e-06
9.31715e-12
7.81735e-06
-2.63759e-11
7.81734e-06
3.20681e-11
7.81769e-06
-9.37831e-10
-1.04433e-09
1.00904e-05
-1.42341e-09
1.00907e-05
-1.32199e-09
1.00907e-05
-4.95612e-11
1.00907e-05
-5.49174e-11
1.00907e-05
2.09836e-11
1.00907e-05
-2.19895e-11
1.00907e-05
1.44474e-11
1.00907e-05
-1.08674e-11
1.00907e-05
6.87787e-12
1.00907e-05
-3.82846e-12
1.00907e-05
1.03485e-12
1.00907e-05
1.42453e-12
1.00907e-05
-3.88438e-12
1.00907e-05
6.07931e-12
1.00907e-05
-9.30265e-12
1.00907e-05
9.2766e-12
1.00907e-05
-2.98961e-11
1.00907e-05
4.26075e-11
1.00911e-05
-1.30797e-09
-1.42875e-09
1.23924e-05
-1.59444e-09
1.23926e-05
-1.51955e-09
1.23926e-05
-6.31372e-11
1.23926e-05
-5.29437e-11
1.23926e-05
1.84469e-11
1.23926e-05
-1.98532e-11
1.23926e-05
1.28403e-11
1.23926e-05
-9.66015e-12
1.23926e-05
6.04555e-12
1.23926e-05
-3.31224e-12
1.23926e-05
7.98929e-13
1.23926e-05
1.41508e-12
1.23926e-05
-3.63846e-12
1.23926e-05
5.64119e-12
1.23926e-05
-8.60302e-12
1.23926e-05
8.42462e-12
1.23926e-05
-3.15535e-11
1.23926e-05
5.29092e-11
1.2393e-05
-1.6574e-09
-1.78635e-09
1.47279e-05
-1.64912e-09
1.47279e-05
-1.60689e-09
1.4728e-05
-7.1839e-11
1.47279e-05
-4.66402e-11
1.47279e-05
1.44571e-11
1.47279e-05
-1.60843e-11
1.47279e-05
1.02103e-11
1.47279e-05
-7.68208e-12
1.47279e-05
4.73846e-12
1.47279e-05
-2.53632e-12
1.47279e-05
5.00063e-13
1.47279e-05
1.29811e-12
1.47279e-05
-3.10987e-12
1.47279e-05
4.76925e-12
1.47279e-05
-7.22156e-12
1.47279e-05
6.89712e-12
1.47279e-05
-3.13984e-11
1.47279e-05
6.20929e-11
1.47282e-05
-1.95351e-09
-2.08445e-09
1.71008e-05
-1.58348e-09
1.71008e-05
-1.5764e-09
1.71008e-05
-7.4581e-11
1.71008e-05
-3.67303e-11
1.71008e-05
9.42564e-12
1.71008e-05
-1.10962e-11
1.71008e-05
6.83755e-12
1.71008e-05
-5.14564e-12
1.71008e-05
3.09507e-12
1.71008e-05
-1.5821e-12
1.71008e-05
1.6787e-13
1.71008e-05
1.0887e-12
1.71008e-05
-2.35847e-12
1.71008e-05
3.55953e-12
1.71008e-05
-5.31333e-12
1.71008e-05
4.84254e-12
1.71008e-05
-2.95323e-11
1.71007e-05
6.93142e-11
1.7101e-05
-2.16986e-09
-2.29662e-09
1.95143e-05
-1.40708e-09
1.95142e-05
-1.43475e-09
1.95142e-05
-7.11566e-11
1.95142e-05
-2.40999e-11
1.95142e-05
3.75206e-12
1.95142e-05
-5.30766e-12
1.95142e-05
2.99397e-12
1.95142e-05
-2.25559e-12
1.95142e-05
1.24489e-12
1.95142e-05
-5.23271e-13
1.95142e-05
-1.74356e-13
1.95142e-05
8.06918e-13
1.95142e-05
-1.44851e-12
1.95142e-05
2.11297e-12
1.95142e-05
-3.04067e-12
1.95142e-05
2.4202e-12
1.95142e-05
-2.61238e-11
1.95142e-05
7.38222e-11
1.95143e-05
-2.2879e-09
-2.4045e-09
2.19706e-05
-1.14128e-09
2.19704e-05
-1.20124e-09
2.19704e-05
-6.22598e-11
2.19704e-05
-9.78073e-12
2.19704e-05
-2.17962e-12
2.19704e-05
8.60611e-13
2.19704e-05
-1.05637e-12
2.19704e-05
7.90345e-13
2.19704e-05
-6.9007e-13
2.19704e-05
5.72629e-13
2.19704e-05
-5.08286e-13
2.19704e-05
4.76661e-13
2.19704e-05
-4.47649e-13
2.19704e-05
5.34303e-13
2.19704e-05
-5.7135e-13
2.19704e-05
-2.01213e-13
2.19704e-05
-2.14204e-11
2.19704e-05
7.50427e-11
2.19704e-05
-2.29813e-09
-2.39903e-09
2.44707e-05
-8.16843e-10
2.44704e-05
-9.05332e-10
2.44704e-05
-4.93867e-11
2.44704e-05
5.0808e-12
2.44704e-05
-8.0005e-12
2.44704e-05
6.98918e-12
2.44704e-05
-5.05624e-12
2.44704e-05
3.79974e-12
2.44704e-05
-2.59309e-12
2.44704e-05
1.64234e-12
2.44704e-05
-8.19063e-13
2.44704e-05
1.24667e-13
2.44704e-05
5.73964e-13
2.44704e-05
-1.06884e-12
2.44704e-05
1.92307e-12
2.44704e-05
-2.84522e-12
2.44704e-05
-1.57551e-11
2.44704e-05
7.26682e-11
2.44703e-05
-2.20066e-09
-2.2811e-09
2.70146e-05
-4.70744e-10
2.70142e-05
-5.83229e-10
2.70142e-05
-3.46171e-11
2.70142e-05
1.92687e-11
2.70142e-05
-1.33542e-11
2.70142e-05
1.26618e-11
2.70142e-05
-8.75301e-12
2.70142e-05
6.5833e-12
2.70142e-05
-4.35018e-12
2.70142e-05
2.62476e-12
2.70142e-05
-1.09371e-12
2.70142e-05
-2.20558e-13
2.70142e-05
1.54442e-12
2.70142e-05
-2.58674e-12
2.70142e-05
4.26887e-12
2.70142e-05
-5.3296e-12
2.70142e-05
-9.54582e-12
2.70142e-05
6.67352e-11
2.7014e-05
-2.0051e-09
-2.0616e-09
2.96012e-05
-1.42328e-10
2.96009e-05
-2.7376e-10
2.96008e-05
-2.02919e-11
2.96008e-05
3.15548e-11
2.96008e-05
-1.78925e-11
2.96008e-05
1.74677e-11
2.96008e-05
-1.18962e-11
2.96008e-05
8.95245e-12
2.96008e-05
-5.84727e-12
2.96008e-05
3.4587e-12
2.96008e-05
-1.31947e-12
2.96008e-05
-5.29848e-13
2.96008e-05
2.39092e-12
2.96008e-05
-3.90855e-12
2.96008e-05
6.292e-12
2.96008e-05
-7.4691e-12
2.96008e-05
-3.28777e-12
2.96008e-05
5.76702e-11
2.96006e-05
-1.72982e-09
-1.7606e-09
3.22283e-05
1.31035e-10
3.22281e-05
-1.36709e-11
3.22281e-05
-8.61712e-12
3.22281e-05
4.07626e-11
3.22281e-05
-2.12699e-11
3.22281e-05
2.10035e-11
3.22281e-05
-1.42351e-11
3.22281e-05
1.07171e-11
3.22281e-05
-6.96764e-12
3.22281e-05
4.0807e-12
3.22281e-05
-1.48204e-12
3.22281e-05
-7.7469e-13
3.22281e-05
3.04094e-12
3.22281e-05
-4.92356e-12
3.22281e-05
7.82026e-12
3.22281e-05
-9.07906e-12
3.22281e-05
2.46316e-12
3.22281e-05
4.6286e-11
3.22277e-05
-1.40048e-09
-1.40598e-09
3.4893e-05
3.18684e-10
3.48928e-05
1.6748e-10
3.48928e-05
-1.24528e-12
3.48928e-05
4.58332e-11
3.48928e-05
-2.31385e-11
3.48928e-05
2.28767e-11
3.48928e-05
-1.55171e-11
3.48928e-05
1.16839e-11
3.48928e-05
-7.5896e-12
3.48928e-05
4.42295e-12
3.48928e-05
-1.56372e-12
3.48928e-05
-9.28779e-13
3.48928e-05
3.42374e-12
3.48928e-05
-5.52307e-12
3.48928e-05
8.68604e-12
3.48928e-05
-9.98019e-12
3.48928e-05
7.11485e-12
3.48928e-05
3.37161e-11
3.48924e-05
-1.04801e-09
-1.03126e-09
3.7591e-05
4.01563e-10
3.75909e-05
2.52556e-10
3.75909e-05
1.09985e-12
3.75909e-05
4.58837e-11
3.75909e-05
-2.31446e-11
3.75909e-05
2.271e-11
3.75909e-05
-1.54871e-11
3.75909e-05
1.1656e-11
3.75909e-05
-7.58484e-12
3.75909e-05
4.41152e-12
3.75909e-05
-1.54159e-12
3.75909e-05
-9.69928e-13
3.75909e-05
3.47244e-12
3.75909e-05
-5.60284e-12
3.75909e-05
8.72987e-12
3.75909e-05
-1.00045e-11
3.75909e-05
1.00711e-11
3.75909e-05
2.12815e-11
3.75906e-05
-7.05994e-10
-6.72804e-10
4.03175e-05
3.77103e-10
4.03175e-05
2.41932e-10
4.03175e-05
-1.12953e-12
4.03176e-05
4.02458e-11
4.03176e-05
-2.09303e-11
4.03176e-05
2.01464e-11
4.03176e-05
-1.38895e-11
4.03176e-05
1.04332e-11
4.03176e-05
-6.81785e-12
4.03176e-05
3.9651e-12
4.03176e-05
-1.38564e-12
4.03176e-05
-8.82336e-13
4.03176e-05
3.12681e-12
4.03176e-05
-5.06653e-12
4.03176e-05
7.80482e-12
4.03176e-05
-9.00275e-12
4.03176e-05
1.07696e-11
4.03176e-05
1.02943e-11
4.03173e-05
-4.07591e-10
-3.66537e-10
4.3067e-05
2.63812e-10
4.30671e-05
1.58117e-10
4.30671e-05
-6.27118e-12
4.30671e-05
2.84712e-11
4.30671e-05
-1.61396e-11
4.30671e-05
1.48548e-11
4.30671e-05
-1.04708e-11
4.30671e-05
7.81389e-12
4.30671e-05
-5.14617e-12
4.30671e-05
2.99409e-12
4.30671e-05
-1.05698e-12
4.30671e-05
-6.59158e-13
4.30671e-05
2.33655e-12
4.30671e-05
-3.82968e-12
4.30671e-05
5.78122e-12
4.30671e-05
-6.85196e-12
4.30671e-05
8.72178e-12
4.30671e-05
1.80854e-12
4.30669e-05
-1.82098e-10
-1.44174e-10
4.58333e-05
1.05393e-10
4.58335e-05
5.28887e-11
4.58335e-05
-7.33852e-12
4.58335e-05
1.18131e-11
4.58335e-05
-7.90252e-12
4.58335e-05
6.71546e-12
4.58335e-05
-4.91676e-12
4.58335e-05
3.61931e-12
4.58335e-05
-2.41237e-12
4.58335e-05
1.40286e-12
4.58335e-05
-5.0405e-13
4.58335e-05
-3.0173e-13
4.58335e-05
1.07341e-12
4.58335e-05
-1.79668e-12
4.58335e-05
2.62049e-12
4.58335e-05
-3.28818e-12
4.58335e-05
4.0208e-12
4.58335e-05
-1.89926e-12
4.58333e-05
-4.58526e-11
-2.52267e-11
4.861e-05
4.861e-05
4.861e-05
4.861e-05
4.861e-05
4.861e-05
4.861e-05
4.861e-05
4.861e-05
4.861e-05
4.861e-05
4.861e-05
4.861e-05
4.861e-05
4.861e-05
4.861e-05
4.861e-05
4.861e-05
4.861e-05
)
;

boundaryField
{
    top
    {
        type            calculated;
        value           uniform 0;
    }
    bottom
    {
        type            calculated;
        value           uniform 0;
    }
    inlet
    {
        type            calculated;
        value           nonuniform List<scalar> 
20
(
-1.10969e-06
-3.33273e-06
-5.56621e-06
-7.81665e-06
-1.00901e-05
-1.23922e-05
-1.47278e-05
-1.71009e-05
-1.95145e-05
-2.19709e-05
-2.4471e-05
-2.70149e-05
-2.96015e-05
-3.22286e-05
-3.48932e-05
-3.75911e-05
-4.03175e-05
-4.30669e-05
-4.58332e-05
-4.86099e-05
)
;
    }
    outlet
    {
        type            calculated;
        value           nonuniform List<scalar> 
20
(
1.11013e-06
3.33376e-06
5.56755e-06
7.81807e-06
1.00915e-05
1.23933e-05
1.47285e-05
1.71012e-05
1.95144e-05
2.19704e-05
2.44702e-05
2.70138e-05
2.96003e-05
3.22274e-05
3.48921e-05
3.75902e-05
4.0317e-05
4.30667e-05
4.58332e-05
4.86099e-05
)
;
    }
    frontAndBack
    {
        type            empty;
        value           nonuniform 0();
    }
}


// ************************************************************************* //
