/*--------------------------------*- C++ -*----------------------------------*\
| =========                 |                                                 |
| \\      /  F ield         | OpenFOAM: The Open Source CFD Toolbox           |
|  \\    /   O peration     | Version:  4.1                                   |
|   \\  /    A nd           | Web:      www.OpenFOAM.org                      |
|    \\/     M anipulation  |                                                 |
\*---------------------------------------------------------------------------*/
FoamFile
{
    version     2.0;
    format      ascii;
    class       volVectorField;
    location    "0.3";
    object      U;
}
// * * * * * * * * * * * * * * * * * * * * * * * * * * * * * * * * * * * * * //

dimensions      [0 1 -1 0 0 0 0];

internalField   nonuniform List<vector> 
400
(
(0.0221946 -7.66745e-08 0)
(0.0221985 -5.11256e-08 0)
(0.0221993 1.65056e-09 0)
(0.0221989 -6.81118e-09 0)
(0.0221993 3.87821e-09 0)
(0.022199 -3.53955e-09 0)
(0.0221992 2.5158e-09 0)
(0.022199 -1.87833e-09 0)
(0.0221992 1.24204e-09 0)
(0.0221991 -7.22748e-10 0)
(0.0221992 2.5364e-10 0)
(0.0221991 1.63815e-10 0)
(0.0221992 -5.69346e-10 0)
(0.0221991 9.36521e-10 0)
(0.0221992 -1.39933e-09 0)
(0.0221991 1.58662e-09 0)
(0.0221992 -2.94917e-09 0)
(0.0221991 1.72737e-09 0)
(0.0221992 -3.13727e-08 0)
(0.0222023 -4.39257e-08 0)
(0.0666558 -2.89733e-07 0)
(0.0666645 -2.09903e-07 0)
(0.0666669 6.37517e-09 0)
(0.0666657 -2.08487e-08 0)
(0.0666668 1.22826e-08 0)
(0.066666 -1.08949e-08 0)
(0.0666666 7.80709e-09 0)
(0.0666661 -5.77193e-09 0)
(0.0666665 3.80984e-09 0)
(0.0666662 -2.19481e-09 0)
(0.0666665 7.47e-10 0)
(0.0666662 5.4699e-10 0)
(0.0666665 -1.79547e-09 0)
(0.0666662 2.95522e-09 0)
(0.0666665 -4.37609e-09 0)
(0.0666662 5.01611e-09 0)
(0.0666666 -9.21192e-09 0)
(0.0666662 1.09075e-08 0)
(0.0666667 -1.53072e-07 0)
(0.0666748 -1.97644e-07 0)
(0.111325 -6.38917e-07 0)
(0.111336 -5.27121e-07 0)
(0.111339 -7.96409e-09 0)
(0.111338 -3.80019e-08 0)
(0.111339 1.8284e-08 0)
(0.111338 -1.77326e-08 0)
(0.111339 1.21811e-08 0)
(0.111338 -9.12924e-09 0)
(0.111339 5.93184e-09 0)
(0.111338 -3.39793e-09 0)
(0.111339 1.09645e-09 0)
(0.111338 9.3916e-10 0)
(0.111339 -2.94279e-09 0)
(0.111338 4.73217e-09 0)
(0.111339 -7.19293e-09 0)
(0.111338 7.6151e-09 0)
(0.111339 -1.7688e-08 0)
(0.111338 1.6814e-08 0)
(0.111339 -4.15031e-07 0)
(0.111351 -4.88161e-07 0)
(0.156334 -9.95973e-07 0)
(0.156344 -8.73403e-07 0)
(0.156348 -2.3837e-08 0)
(0.156346 -4.917e-08 0)
(0.156348 2.15016e-08 0)
(0.156346 -2.15797e-08 0)
(0.156347 1.45407e-08 0)
(0.156346 -1.09212e-08 0)
(0.156347 7.02174e-09 0)
(0.156347 -3.98148e-09 0)
(0.156347 1.21016e-09 0)
(0.156347 1.23387e-09 0)
(0.156347 -3.65754e-09 0)
(0.156347 5.81186e-09 0)
(0.156347 -8.88537e-09 0)
(0.156346 9.13117e-09 0)
(0.156347 -2.41058e-08 0)
(0.156346 2.69094e-08 0)
(0.156347 -7.50548e-07 0)
(0.156361 -8.48395e-07 0)
(0.201804 -1.31021e-06 0)
(0.201811 -1.19744e-06 0)
(0.201816 -4.18557e-08 0)
(0.201813 -5.47965e-08 0)
(0.201815 2.18656e-08 0)
(0.201813 -2.26279e-08 0)
(0.201815 1.49791e-08 0)
(0.201814 -1.12666e-08 0)
(0.201815 7.1673e-09 0)
(0.201814 -4.01686e-09 0)
(0.201814 1.1351e-09 0)
(0.201814 1.40185e-09 0)
(0.201814 -3.93382e-09 0)
(0.201814 6.18512e-09 0)
(0.201815 -9.47364e-09 0)
(0.201814 9.52844e-09 0)
(0.201815 -2.86364e-08 0)
(0.201814 3.71336e-08 0)
(0.201815 -1.12373e-06 0)
(0.201829 -1.23883e-06 0)
(0.247846 -1.53655e-06 0)
(0.247849 -1.44639e-06 0)
(0.247855 -5.75104e-08 0)
(0.247851 -5.50982e-08 0)
(0.247854 2.01357e-08 0)
(0.247851 -2.13866e-08 0)
(0.247853 1.3938e-08 0)
(0.247852 -1.04863e-08 0)
(0.247853 6.59993e-09 0)
(0.247852 -3.647e-09 0)
(0.247853 9.37154e-10 0)
(0.247852 1.44831e-09 0)
(0.247853 -3.83997e-09 0)
(0.247852 5.98139e-09 0)
(0.247853 -9.14329e-09 0)
(0.247852 9.04128e-09 0)
(0.247853 -3.11942e-08 0)
(0.247852 4.77694e-08 0)
(0.247853 -1.49231e-06 0)
(0.247866 -1.6186e-06 0)
(0.294557 -1.65204e-06 0)
(0.294556 -1.59253e-06 0)
(0.294561 -6.90275e-08 0)
(0.294557 -5.07817e-08 0)
(0.29456 1.67625e-08 0)
(0.294558 -1.83243e-08 0)
(0.29456 1.1744e-08 0)
(0.294558 -8.83597e-09 0)
(0.294559 5.49216e-09 0)
(0.294559 -2.97822e-09 0)
(0.294559 6.61043e-10 0)
(0.294559 1.38172e-09 0)
(0.294559 -3.43731e-09 0)
(0.294559 5.30141e-09 0)
(0.294559 -8.06196e-09 0)
(0.294558 7.81478e-09 0)
(0.29456 -3.19163e-08 0)
(0.294558 5.77189e-08 0)
(0.29456 -1.82249e-06 0)
(0.29457 -1.95385e-06 0)
(0.342018 -1.64575e-06 0)
(0.342012 -1.62096e-06 0)
(0.342018 -7.49011e-08 0)
(0.342013 -4.24726e-08 0)
(0.342017 1.21526e-08 0)
(0.342014 -1.3842e-08 0)
(0.342016 8.67452e-09 0)
(0.342014 -6.5271e-09 0)
(0.342016 3.98391e-09 0)
(0.342015 -2.09406e-09 0)
(0.342015 3.39049e-10 0)
(0.342015 1.21416e-09 0)
(0.342015 -2.78193e-09 0)
(0.342015 4.2363e-09 0)
(0.342016 -6.37748e-09 0)
(0.342014 5.98708e-09 0)
(0.342016 -3.08686e-08 0)
(0.342014 6.61347e-08 0)
(0.342016 -2.08437e-06 0)
(0.342023 -2.21464e-06 0)
(0.390291 -1.52078e-06 0)
(0.390281 -1.53154e-06 0)
(0.390286 -7.449e-08 0)
(0.390282 -3.09664e-08 0)
(0.390285 6.70257e-09 0)
(0.390282 -8.3493e-09 0)
(0.390284 4.99999e-09 0)
(0.390283 -3.76405e-09 0)
(0.390284 2.20608e-09 0)
(0.390283 -1.07014e-09 0)
(0.390284 -3.2416e-12 0)
(0.390283 9.63074e-10 0)
(0.390284 -1.93488e-09 0)
(0.390283 2.88269e-09 0)
(0.390284 -4.24594e-09 0)
(0.390283 3.7086e-09 0)
(0.390284 -2.81786e-08 0)
(0.390282 7.21812e-08 0)
(0.390285 -2.2551e-06 0)
(0.390287 -2.37815e-06 0)
(0.439419 -1.29303e-06 0)
(0.439405 -1.33772e-06 0)
(0.43941 -6.80328e-08 0)
(0.439405 -1.7222e-08 0)
(0.439409 8.05059e-10 0)
(0.439406 -2.26571e-09 0)
(0.439408 9.87979e-10 0)
(0.439406 -7.47381e-10 0)
(0.439408 2.83801e-10 0)
(0.439407 2.34684e-11 0)
(0.439407 -3.45386e-10 0)
(0.439407 6.50674e-10 0)
(0.439407 -9.62207e-10 0)
(0.439407 1.34351e-09 0)
(0.439408 -1.8324e-09 0)
(0.439406 1.14383e-09 0)
(0.439408 -2.40498e-08 0)
(0.439406 7.51784e-08 0)
(0.439408 -2.3204e-06 0)
(0.439407 -2.43039e-06 0)
(0.489422 -9.8927e-07 0)
(0.489405 -1.06461e-06 0)
(0.48941 -5.66631e-08 0)
(0.489405 -2.33852e-09 0)
(0.489409 -5.16277e-09 0)
(0.489406 3.98752e-09 0)
(0.489408 -3.10083e-09 0)
(0.489407 2.32796e-09 0)
(0.489408 -1.66393e-09 0)
(0.489407 1.12172e-09 0)
(0.489408 -6.71129e-10 0)
(0.489407 3.02568e-10 0)
(0.489408 6.68754e-11 0)
(0.489407 -2.74659e-10 0)
(0.489408 6.92812e-10 0)
(0.489407 -1.53379e-09 0)
(0.489408 -1.87719e-08 0)
(0.489406 7.46627e-08 0)
(0.489409 -2.27552e-06 0)
(0.489403 -2.3672e-06 0)
(0.5403 -6.44258e-07 0)
(0.540282 -7.45993e-07 0)
(0.540287 -4.22384e-08 0)
(0.540282 1.24897e-08 0)
(0.540286 -1.08386e-08 0)
(0.540283 9.99165e-09 0)
(0.540285 -7.01181e-09 0)
(0.540284 5.27152e-09 0)
(0.540285 -3.52229e-09 0)
(0.540284 2.16292e-09 0)
(0.540285 -9.66938e-10 0)
(0.540284 -5.33367e-11 0)
(0.540285 1.08107e-09 0)
(0.540284 -1.86283e-09 0)
(0.540285 3.15649e-09 0)
(0.540284 -4.14414e-09 0)
(0.540285 -1.27216e-08 0)
(0.540283 7.04803e-08 0)
(0.540286 -2.12542e-06 0)
(0.540276 -2.19456e-06 0)
(0.592031 -2.97193e-07 0)
(0.592014 -4.20497e-07 0)
(0.592019 -2.70615e-08 0)
(0.592015 2.60249e-08 0)
(0.592018 -1.58704e-08 0)
(0.592016 1.53319e-08 0)
(0.592017 -1.04935e-08 0)
(0.592016 7.89457e-09 0)
(0.592017 -5.17771e-09 0)
(0.592016 3.08634e-09 0)
(0.592017 -1.22033e-09 0)
(0.592016 -3.87868e-10 0)
(0.592017 2.00768e-09 0)
(0.592016 -3.31024e-09 0)
(0.592017 5.38399e-09 0)
(0.592016 -6.5024e-09 0)
(0.592018 -6.35876e-09 0)
(0.592015 6.28549e-08 0)
(0.592018 -1.88439e-06 0)
(0.592005 -1.92822e-06 0)
(0.644574 1.24751e-08 0)
(0.644559 -1.27095e-07 0)
(0.644564 -1.3503e-08 0)
(0.644559 3.70534e-08 0)
(0.644563 -1.99121e-08 0)
(0.64456 1.96017e-08 0)
(0.644562 -1.32963e-08 0)
(0.644561 1.00087e-08 0)
(0.644562 -6.5156e-09 0)
(0.644561 3.83031e-09 0)
(0.644562 -1.41823e-09 0)
(0.644561 -6.71866e-10 0)
(0.644562 2.77383e-09 0)
(0.644561 -4.50586e-09 0)
(0.644562 7.20203e-09 0)
(0.644561 -8.42234e-09 0)
(0.644562 -2.12224e-10 0)
(0.64456 5.24133e-08 0)
(0.644563 -1.57488e-06 0)
(0.644547 -1.59263e-06 0)
(0.697864 2.49505e-07 0)
(0.697853 9.96725e-08 0)
(0.697858 -3.61931e-09 0)
(0.697854 4.44542e-08 0)
(0.697857 -2.26284e-08 0)
(0.697855 2.24099e-08 0)
(0.697856 -1.51745e-08 0)
(0.697855 1.14266e-08 0)
(0.697856 -7.42008e-09 0)
(0.697855 4.33128e-09 0)
(0.697856 -1.54568e-09 0)
(0.697855 -8.77896e-10 0)
(0.697856 3.30875e-09 0)
(0.697855 -5.34166e-09 0)
(0.697856 8.44282e-09 0)
(0.697855 -9.72526e-09 0)
(0.697856 5.14176e-09 0)
(0.697854 4.01539e-08 0)
(0.697857 -1.22578e-06 0)
(0.697841 -1.21907e-06 0)
(0.751823 3.87817e-07 0)
(0.751816 2.35093e-07 0)
(0.75182 1.29906e-09 0)
(0.751817 4.72576e-08 0)
(0.751819 -2.36785e-08 0)
(0.751817 2.33787e-08 0)
(0.751819 -1.58805e-08 0)
(0.751818 1.1958e-08 0)
(0.751818 -7.76958e-09 0)
(0.751818 4.52064e-09 0)
(0.751818 -1.58351e-09 0)
(0.751818 -9.81554e-10 0)
(0.751818 3.54438e-09 0)
(0.751818 -5.71267e-09 0)
(0.751819 8.94546e-09 0)
(0.751818 -1.02388e-08 0)
(0.751819 9.10704e-09 0)
(0.751817 2.73231e-08 0)
(0.75182 -8.69971e-07 0)
(0.751804 -8.43132e-07 0)
(0.806351 4.13225e-07 0)
(0.806349 2.67599e-07 0)
(0.806353 7.84971e-10 0)
(0.80635 4.44703e-08 0)
(0.806352 -2.26728e-08 0)
(0.80635 2.20653e-08 0)
(0.806352 -1.51195e-08 0)
(0.806351 1.13704e-08 0)
(0.806351 -7.41193e-09 0)
(0.806351 4.30886e-09 0)
(0.806351 -1.50184e-09 0)
(0.806351 -9.60433e-10 0)
(0.806351 3.40599e-09 0)
(0.806351 -5.50348e-09 0)
(0.806351 8.52531e-09 0)
(0.806351 -9.79026e-09 0)
(0.806352 1.10276e-08 0)
(0.80635 1.52842e-08 0)
(0.806352 -5.41407e-07 0)
(0.806339 -5.01781e-07 0)
(0.861339 3.37624e-07 0)
(0.86134 2.14946e-07 0)
(0.861344 -2.56836e-09 0)
(0.861342 3.55797e-08 0)
(0.861343 -1.89024e-08 0)
(0.861342 1.79919e-08 0)
(0.861343 -1.24835e-08 0)
(0.861342 9.36778e-09 0)
(0.861343 -6.13812e-09 0)
(0.861342 3.57156e-09 0)
(0.861343 -1.25131e-09 0)
(0.861342 -7.94027e-10 0)
(0.861343 2.81034e-09 0)
(0.861342 -4.56622e-09 0)
(0.861343 6.99674e-09 0)
(0.861342 -8.08464e-09 0)
(0.861343 1.03481e-08 0)
(0.861342 5.27762e-09 0)
(0.861344 -2.72965e-07 0)
(0.861333 -2.3102e-07 0)
(0.916665 1.83358e-07 0)
(0.916668 1.00758e-07 0)
(0.91667 -8.7044e-09 0)
(0.916669 2.01514e-08 0)
(0.91667 -1.24996e-08 0)
(0.916669 1.09879e-08 0)
(0.91667 -7.91494e-09 0)
(0.916669 5.85949e-09 0)
(0.916669 -3.88427e-09 0)
(0.916669 2.25805e-09 0)
(0.916669 -8.03396e-10 0)
(0.916669 -4.94024e-10 0)
(0.916669 1.7476e-09 0)
(0.916669 -2.89834e-09 0)
(0.916669 4.27844e-09 0)
(0.916669 -5.28044e-09 0)
(0.91667 6.59859e-09 0)
(0.916669 -9.94692e-10 0)
(0.91667 -9.37844e-08 0)
(0.916664 -6.24431e-08 0)
(0.972198 5.98436e-08 0)
(0.9722 3.34361e-08 0)
(0.972201 -2.30725e-09 0)
(0.9722 6.62808e-09 0)
(0.9722 -3.91698e-09 0)
(0.9722 3.55681e-09 0)
(0.9722 -2.53387e-09 0)
(0.9722 1.89283e-09 0)
(0.9722 -1.25474e-09 0)
(0.9722 7.3338e-10 0)
(0.9722 -2.63226e-10 0)
(0.9722 -1.54946e-10 0)
(0.9722 5.61406e-10 0)
(0.9722 -9.24113e-10 0)
(0.9722 1.39587e-09 0)
(0.9722 -1.6177e-09 0)
(0.9722 2.33358e-09 0)
(0.9722 -1.18685e-09 0)
(0.9722 -1.27574e-08 0)
(0.972199 -1.51993e-09 0)
)
;

boundaryField
{
    top
    {
        type            fixedValue;
        value           uniform (1 0 0);
    }
    bottom
    {
        type            fixedValue;
        value           uniform (0 0 0);
    }
    inlet
    {
        type            zeroGradient;
    }
    outlet
    {
        type            zeroGradient;
    }
    frontAndBack
    {
        type            empty;
    }
}


// ************************************************************************* //
