/*--------------------------------*- C++ -*----------------------------------*\
| =========                 |                                                 |
| \\      /  F ield         | OpenFOAM: The Open Source CFD Toolbox           |
|  \\    /   O peration     | Version:  4.1                                   |
|   \\  /    A nd           | Web:      www.OpenFOAM.org                      |
|    \\/     M anipulation  |                                                 |
\*---------------------------------------------------------------------------*/
FoamFile
{
    version     2.0;
    format      ascii;
    class       surfaceScalarField;
    location    "2.1";
    object      phi;
}
// * * * * * * * * * * * * * * * * * * * * * * * * * * * * * * * * * * * * * //

dimensions      [0 3 -1 0 0 0 0];

internalField   nonuniform List<scalar> 
760
(
3.1664e-05
-1.03474e-12
3.1664e-05
4.05221e-12
3.1664e-05
7.26675e-13
3.1664e-05
-3.79296e-12
3.1664e-05
2.45278e-12
3.1664e-05
-4.7636e-12
3.1664e-05
3.95132e-12
3.1664e-05
-6.26368e-12
3.1664e-05
2.57076e-12
3.1664e-05
-6.57299e-12
3.1664e-05
4.77653e-13
3.1664e-05
-7.02553e-12
3.1664e-05
-2.2269e-12
3.1664e-05
-7.71684e-12
3.1664e-05
-4.97626e-12
3.1664e-05
-7.90775e-12
3.1664e-05
-6.67504e-12
3.1664e-05
-6.34583e-12
3.1664e-05
-5.21108e-12
-2.75745e-12
8.86591e-05
-3.60795e-12
8.86591e-05
8.7446e-12
8.86591e-05
6.09238e-13
8.86591e-05
-5.84838e-12
8.86591e-05
4.66693e-12
8.86591e-05
-6.95709e-12
8.86591e-05
8.33644e-12
8.86591e-05
-8.24566e-12
8.86591e-05
6.64701e-12
8.86591e-05
-6.61527e-12
8.86591e-05
4.55603e-12
8.86591e-05
-4.81151e-12
8.86591e-05
2.25183e-12
8.86591e-05
-3.34619e-12
8.86591e-05
1.87222e-13
8.86591e-05
-1.96418e-12
8.86591e-05
-1.4102e-12
8.86591e-05
-6.4938e-13
8.86591e-05
-4.18864e-12
-4.97833e-12
0.000139321
-6.64921e-12
0.000139321
1.35519e-11
0.000139321
-8.30568e-14
0.000139321
-6.58976e-12
0.000139321
5.90181e-12
0.000139321
-7.61526e-12
0.000139321
1.16203e-11
0.000139321
-8.05828e-12
0.000139321
9.75191e-12
0.000139321
-4.0742e-12
0.000139321
8.10136e-12
0.000139321
3.37708e-13
0.000139321
6.915e-12
0.000139321
4.15206e-12
0.000139321
6.3217e-12
0.000139321
6.81643e-12
0.000139321
5.20102e-12
0.000139321
6.76479e-12
0.000139321
-3.66894e-12
-8.96824e-12
0.000183651
-9.06856e-12
0.000183651
1.79435e-11
0.000183651
-1.13227e-12
0.000183651
-6.46734e-12
0.000183651
6.24435e-12
0.000183651
-7.41985e-12
0.000183651
1.36085e-11
0.000183651
-6.95623e-12
0.000183651
1.15361e-11
0.000183651
-9.36059e-13
0.000183651
1.02914e-11
0.000183651
5.63955e-12
0.000183651
1.01673e-11
0.000183651
1.12851e-11
0.000183651
1.09917e-11
0.000183651
1.47035e-11
0.000183651
1.04228e-11
0.000183651
1.30962e-11
0.000183651
-4.19446e-12
-1.33374e-11
0.000221648
-1.08168e-11
0.000221648
2.2135e-11
0.000221648
-2.33579e-12
0.000221648
-5.70364e-12
0.000221648
5.86669e-12
0.000221648
-6.70006e-12
0.000221648
1.44477e-11
0.000221648
-5.39245e-12
0.000221648
1.20546e-11
0.000221648
2.21963e-12
0.000221648
1.10174e-11
0.000221648
1.03594e-11
0.000221648
1.16636e-11
0.000221648
1.71484e-11
0.000221648
1.35877e-11
0.000221648
2.06906e-11
0.000221648
1.34865e-11
0.000221648
1.74318e-11
0.000221648
-6.0087e-12
-1.80482e-11
0.000253311
-1.17797e-11
0.000253311
2.60256e-11
0.000253311
-3.59886e-12
0.000253311
-4.35012e-12
0.000253311
4.93969e-12
0.000253311
-5.47862e-12
0.000253311
1.42982e-11
0.000253311
-3.37993e-12
0.000253311
1.15838e-11
0.000253311
5.43974e-12
0.000253311
1.06864e-11
0.000253311
1.46609e-11
0.000253311
1.19649e-11
0.000253311
2.20869e-11
0.000253311
1.48283e-11
0.000253311
2.53316e-11
0.000253311
1.52114e-11
0.000253311
2.03968e-11
0.000253311
-8.17901e-12
-2.23275e-11
0.000278643
-1.1964e-11
0.000278643
2.95462e-11
0.000278643
-4.83437e-12
0.000278643
-2.54949e-12
0.000278643
3.65562e-12
0.000278643
-3.87379e-12
0.000278643
1.33807e-11
0.000278643
-1.05682e-12
0.000278643
1.04086e-11
0.000278643
8.6329e-12
0.000278643
9.6447e-12
0.000278643
1.85406e-11
0.000278643
1.14846e-11
0.000278643
2.6229e-11
0.000278643
1.51891e-11
0.000278643
2.89125e-11
0.000278643
1.61024e-11
0.000278643
2.23434e-11
0.000278643
-1.01415e-11
-2.56982e-11
0.000297641
-1.14699e-11
0.000297641
3.2576e-11
0.000297641
-5.98539e-12
0.000297641
-4.70279e-13
0.000297641
2.17958e-12
0.000297641
-2.01763e-12
0.000297641
1.19043e-11
0.000297641
1.4199e-12
0.000297641
8.77253e-12
0.000297641
1.16798e-11
0.000297641
8.16548e-12
0.000297641
2.19484e-11
0.000297641
1.05269e-11
0.000297641
2.96269e-11
0.000297641
1.50017e-11
0.000297641
3.16139e-11
0.000297641
1.65009e-11
0.000297641
2.35252e-11
0.000297641
-1.15351e-11
-2.78521e-11
0.000310306
-1.04697e-11
0.000310306
3.49538e-11
0.000310306
-7.01448e-12
0.000310306
1.70672e-12
0.000310306
6.47124e-13
0.000310306
-5.09113e-14
0.000310306
1.00563e-11
0.000310306
3.88633e-12
0.000310306
6.87015e-12
0.000310306
1.4443e-11
0.000310306
6.44666e-12
0.000310306
2.47961e-11
0.000310306
9.28908e-12
0.000310306
3.22636e-11
0.000310306
1.44581e-11
0.000310306
3.35154e-11
0.000310306
1.65877e-11
0.000310306
2.40981e-11
0.000310306
-1.21835e-11
-2.8647e-11
0.000316639
-9.18022e-12
0.000316639
3.64874e-11
0.000316639
-7.88938e-12
0.000316639
3.80182e-12
0.000316639
-8.31302e-13
0.000316639
1.88549e-12
0.000316639
8.00169e-12
0.000316639
6.18655e-12
0.000316639
4.8574e-12
0.000316639
1.67858e-11
0.000316639
4.63169e-12
0.000316639
2.69811e-11
0.000316639
7.89555e-12
0.000316639
3.40855e-11
0.000316639
1.36578e-11
0.000316639
3.46355e-11
0.000316639
1.64327e-11
0.000316639
2.4156e-11
0.000316639
-1.20487e-11
-2.80856e-11
0.000316639
-7.8283e-12
0.000316639
3.69791e-11
0.000316639
-8.57108e-12
0.000316639
5.6481e-12
0.000316639
-2.16313e-12
0.000316639
3.65708e-12
0.000316639
5.8859e-12
0.000316639
8.18204e-12
0.000316639
2.86313e-12
0.000316639
1.85843e-11
0.000316639
2.83146e-12
0.000316639
2.84068e-11
0.000316639
6.43169e-12
0.000316639
3.5032e-11
0.000316639
1.26527e-11
0.000316639
3.49677e-11
0.000316639
1.60467e-11
0.000316639
2.37632e-11
0.000316639
-1.11844e-11
-2.62838e-11
0.000310306
-6.61699e-12
0.000310306
3.62557e-11
0.000310306
-9.00714e-12
0.000310306
7.10126e-12
0.000310306
-3.26928e-12
0.000310306
5.14205e-12
0.000310306
3.83554e-12
0.000310306
9.75589e-12
0.000310306
9.95388e-13
0.000310306
1.97337e-11
0.000310306
1.1361e-12
0.000310306
2.89893e-11
0.000310306
4.96141e-12
0.000310306
3.50456e-11
0.000310306
1.14709e-11
0.000310306
3.44926e-11
0.000310306
1.54071e-11
0.000310306
2.29611e-11
0.000310306
-9.71173e-12
-2.34498e-11
0.000297641
-5.69647e-12
0.000297641
3.4204e-11
0.000297641
-9.13203e-12
0.000297641
8.04748e-12
0.000297641
-4.08407e-12
0.000297641
6.23628e-12
0.000297641
1.95732e-12
0.000297641
1.08125e-11
0.000297641
-6.57244e-13
0.000297641
2.01461e-11
0.000297641
-3.82265e-13
0.000297641
2.86549e-11
0.000297641
3.53047e-12
0.000297641
3.40678e-11
0.000297641
1.012e-11
0.000297641
3.31702e-11
0.000297641
1.44621e-11
0.000297641
2.17525e-11
0.000297641
-7.81834e-12
-1.98736e-11
0.000278643
-5.13801e-12
0.000278643
3.08068e-11
0.000278643
-8.87478e-12
0.000278643
8.40874e-12
0.000278643
-4.55787e-12
0.000278643
6.85628e-12
0.000278643
3.3558e-13
0.000278643
1.12725e-11
0.000278643
-2.02858e-12
0.000278643
1.97424e-11
0.000278643
-1.67552e-12
0.000278643
2.73263e-11
0.000278643
2.15517e-12
0.000278643
3.20175e-11
0.000278643
8.56926e-12
0.000278643
3.09095e-11
0.000278643
1.311e-11
0.000278643
2.00606e-11
0.000278643
-5.77859e-12
-1.59312e-11
0.000253311
-4.91717e-12
0.000253311
2.61707e-11
0.000253311
-8.17427e-12
0.000253311
8.14696e-12
0.000253311
-4.66373e-12
0.000253311
6.94123e-12
0.000253311
-9.70789e-13
0.000253311
1.10672e-11
0.000253311
-3.07964e-12
0.000253311
1.84429e-11
0.000253311
-2.72929e-12
0.000253311
2.49083e-11
0.000253311
8.05885e-13
0.000253311
2.87703e-11
0.000253311
6.72595e-12
0.000253311
2.75379e-11
0.000253311
1.11707e-11
0.000253311
1.76872e-11
0.000253311
-3.98188e-12
-1.20942e-11
0.000221648
-4.89808e-12
0.000221648
2.05467e-11
0.000221648
-6.99493e-12
0.000221648
7.26532e-12
0.000221648
-4.3989e-12
0.000221648
6.45413e-12
0.000221648
-1.92405e-12
0.000221648
1.01342e-11
0.000221648
-3.79364e-12
0.000221648
1.61657e-11
0.000221648
-3.55861e-12
0.000221648
2.1288e-11
0.000221648
-5.89343e-13
0.000221648
2.41585e-11
0.000221648
4.43718e-12
0.000221648
2.28007e-11
0.000221648
8.38851e-12
0.000221648
1.43041e-11
0.000221648
-2.92527e-12
-8.91784e-12
0.000183651
-4.88631e-12
0.000183651
1.43453e-11
0.000183651
-5.38331e-12
0.000183651
5.83179e-12
0.000183651
-3.84531e-12
0.000183651
5.38903e-12
0.000183651
-2.58916e-12
0.000183651
8.40891e-12
0.000183651
-4.30232e-12
0.000183651
1.27873e-11
0.000183651
-4.39285e-12
0.000183651
1.62424e-11
0.000183651
-2.39412e-12
0.000183651
1.78079e-11
0.000183651
1.18502e-12
0.000183651
1.61325e-11
0.000183651
4.12073e-12
0.000183651
9.22295e-12
0.000183651
-3.39862e-12
-7.09451e-12
0.000139321
-4.30782e-12
0.000139321
7.9838e-12
0.000139321
-3.30027e-12
0.000139321
3.91074e-12
0.000139321
-2.89705e-12
0.000139321
3.81477e-12
0.000139321
-2.72134e-12
0.000139321
5.98559e-12
0.000139321
-4.19659e-12
0.000139321
8.53295e-12
0.000139321
-4.62193e-12
0.000139321
1.02099e-11
0.000139321
-3.76578e-12
0.000139321
1.04213e-11
0.000139321
-1.97427e-12
0.000139321
8.43827e-12
0.000139321
-5.18627e-13
0.000139321
3.25557e-12
0.000139321
-4.85006e-12
-6.50843e-12
8.86591e-05
-2.93505e-12
8.86591e-05
2.12531e-12
8.86591e-05
-9.27823e-13
8.86591e-05
1.68564e-12
8.86591e-05
-1.80684e-12
8.86591e-05
1.81139e-12
8.86591e-05
-2.5667e-12
8.86591e-05
2.87539e-12
8.86591e-05
-3.87957e-12
8.86591e-05
3.34581e-12
8.86591e-05
-4.83704e-12
8.86591e-05
2.9865e-12
8.86591e-05
-5.50467e-12
8.86591e-05
1.56041e-12
8.86591e-05
-6.02357e-12
8.86591e-05
-9.90369e-13
8.86591e-05
-6.54817e-12
8.86591e-05
-4.45495e-12
8.8659e-05
-8.2354e-12
-7.62579e-12
3.1664e-05
3.1664e-05
3.1664e-05
3.1664e-05
3.1664e-05
3.1664e-05
3.1664e-05
3.1664e-05
3.1664e-05
3.1664e-05
3.1664e-05
3.1664e-05
3.1664e-05
3.1664e-05
3.1664e-05
3.1664e-05
3.1664e-05
3.1664e-05
3.1664e-05
)
;

boundaryField
{
    top
    {
        type            calculated;
        value           uniform 0;
    }
    bottom
    {
        type            calculated;
        value           uniform 0;
    }
    inlet
    {
        type            calculated;
        value           nonuniform List<scalar> 
20
(
-3.1664e-05
-8.86591e-05
-0.000139321
-0.000183651
-0.000221648
-0.000253311
-0.000278643
-0.000297641
-0.000310306
-0.000316639
-0.000316639
-0.000310306
-0.000297641
-0.000278643
-0.000253311
-0.000221648
-0.000183651
-0.000139321
-8.86591e-05
-3.1664e-05
)
;
    }
    outlet
    {
        type            calculated;
        value           nonuniform List<scalar> 
20
(
3.1664e-05
8.86591e-05
0.000139321
0.000183651
0.000221648
0.000253311
0.000278643
0.000297641
0.000310306
0.000316639
0.000316639
0.000310306
0.000297641
0.000278643
0.000253311
0.000221648
0.000183651
0.000139321
8.8659e-05
3.1664e-05
)
;
    }
    frontAndBack
    {
        type            empty;
        value           nonuniform 0();
    }
}


// ************************************************************************* //
