/*--------------------------------*- C++ -*----------------------------------*\
| =========                 |                                                 |
| \\      /  F ield         | OpenFOAM: The Open Source CFD Toolbox           |
|  \\    /   O peration     | Version:  4.1                                   |
|   \\  /    A nd           | Web:      www.OpenFOAM.org                      |
|    \\/     M anipulation  |                                                 |
\*---------------------------------------------------------------------------*/
FoamFile
{
    version     2.0;
    format      ascii;
    class       volVectorField;
    location    "2.1";
    object      U;
}
// * * * * * * * * * * * * * * * * * * * * * * * * * * * * * * * * * * * * * //

dimensions      [0 1 -1 0 0 0 0];

internalField   nonuniform List<vector> 
400
(
(0.633279 -4.53607e-10 0)
(0.633279 6.45924e-10 0)
(0.633279 -9.29603e-11 0)
(0.633279 -5.05515e-10 0)
(0.633279 6.48588e-10 0)
(0.633279 -4.98802e-10 0)
(0.633279 1.09293e-09 0)
(0.633279 -5.05879e-10 0)
(0.633279 1.21913e-09 0)
(0.633279 -5.58368e-11 0)
(0.633279 1.35759e-09 0)
(0.633279 5.46197e-10 0)
(0.633279 1.61582e-09 0)
(0.633279 1.26052e-09 0)
(0.633279 1.98185e-09 0)
(0.633279 1.98542e-09 0)
(0.633279 2.25561e-09 0)
(0.633279 2.28601e-09 0)
(0.633279 1.81781e-09 0)
(0.633279 7.71235e-10 0)
(1.77318 -2.83346e-09 0)
(1.77318 7.79354e-09 0)
(1.77318 1.17014e-09 0)
(1.77318 -6.03595e-09 0)
(1.77318 4.18091e-09 0)
(1.77318 -7.55036e-09 0)
(1.77318 7.04887e-09 0)
(1.77318 -9.47854e-09 0)
(1.77318 4.86659e-09 0)
(1.77318 -9.22143e-09 0)
(1.77318 1.64901e-09 0)
(1.77318 -9.17072e-09 0)
(1.77318 -2.23628e-09 0)
(1.77318 -9.64767e-09 0)
(1.77318 -6.11561e-09 0)
(1.77318 -9.78613e-09 0)
(1.77318 -8.74659e-09 0)
(1.77318 -8.16854e-09 0)
(1.77318 -8.40662e-09 0)
(1.77318 -5.79623e-09 0)
(2.78643 -5.06633e-09 0)
(2.78643 1.02145e-08 0)
(2.78643 -1.45736e-11 0)
(2.78643 -5.40289e-09 0)
(2.78643 5.07293e-09 0)
(2.78643 -6.13307e-09 0)
(2.78643 9.61769e-09 0)
(2.78643 -6.49662e-09 0)
(2.78643 8.49238e-09 0)
(2.78643 -3.19472e-09 0)
(2.78643 7.43012e-09 0)
(2.78643 6.04065e-10 0)
(2.78643 6.86139e-09 0)
(2.78643 4.13658e-09 0)
(2.78643 6.8248e-09 0)
(2.78643 6.92207e-09 0)
(2.78643 6.32704e-09 0)
(2.78643 7.35067e-09 0)
(2.78643 -2.39646e-10 0)
(2.78643 -4.67817e-09 0)
(3.67302 -8.33546e-09 0)
(3.67302 1.58095e-08 0)
(3.67302 -5.71877e-10 0)
(3.67302 -6.66417e-09 0)
(3.67302 6.10437e-09 0)
(3.67302 -7.74611e-09 0)
(3.67302 1.26153e-08 0)
(3.67302 -7.8045e-09 0)
(3.67302 1.04723e-08 0)
(3.67302 -2.91357e-09 0)
(3.67302 8.77964e-09 0)
(3.67302 2.38552e-09 0)
(3.67302 7.8266e-09 0)
(3.67302 6.83381e-09 0)
(3.67302 7.61419e-09 0)
(3.67302 9.58466e-09 0)
(3.67302 6.53766e-09 0)
(3.67302 8.63243e-09 0)
(3.67302 -5.06799e-09 0)
(3.67302 -1.20456e-08 0)
(4.43295 -1.01951e-08 0)
(4.43295 1.97995e-08 0)
(4.43295 -1.83673e-09 0)
(4.43295 -6.02744e-09 0)
(4.43295 5.98531e-09 0)
(4.43295 -6.98258e-09 0)
(4.43295 1.39023e-08 0)
(4.43295 -6.09272e-09 0)
(4.43295 1.16386e-08 0)
(4.43295 6.89154e-10 0)
(4.43295 1.0485e-08 0)
(4.43295 7.98722e-09 0)
(4.43295 1.0725e-08 0)
(4.43295 1.41262e-08 0)
(4.43295 1.20742e-08 0)
(4.43295 1.752e-08 0)
(4.43295 1.17233e-08 0)
(4.43295 1.50262e-08 0)
(4.43295 -5.38439e-09 0)
(4.43295 -1.60015e-08 0)
(5.06623 -1.14605e-08 0)
(5.06623 2.38998e-08 0)
(5.06623 -3.08857e-09 0)
(5.06623 -5.0011e-09 0)
(5.06623 5.32757e-09 0)
(5.06623 -6.03794e-09 0)
(5.06623 1.42728e-08 0)
(5.06623 -4.3569e-09 0)
(5.06623 1.16911e-08 0)
(5.06623 3.81386e-09 0)
(5.06623 1.06944e-08 0)
(5.06623 1.24257e-08 0)
(5.06623 1.16103e-08 0)
(5.06623 1.94471e-08 0)
(5.06623 1.39489e-08 0)
(5.06623 2.27513e-08 0)
(5.06623 1.40456e-08 0)
(5.06623 1.86292e-08 0)
(5.06623 -7.48659e-09 0)
(5.06623 -2.06371e-08 0)
(5.57285 -1.1918e-08 0)
(5.57285 2.76736e-08 0)
(5.57285 -4.34026e-09 0)
(5.57285 -3.43851e-09 0)
(5.57285 4.21681e-09 0)
(5.57285 -4.63532e-09 0)
(5.57285 1.37522e-08 0)
(5.57285 -2.21629e-09 0)
(5.57285 1.08937e-08 0)
(5.57285 6.98898e-09 0)
(5.57285 1.00316e-08 0)
(5.57285 1.6488e-08 0)
(5.57285 1.15387e-08 0)
(5.57285 2.3968e-08 0)
(5.57285 1.47618e-08 0)
(5.57285 2.68585e-08 0)
(5.57285 1.53602e-08 0)
(5.57285 2.1122e-08 0)
(5.57285 -9.55265e-09 0)
(5.57285 -2.45021e-08 0)
(5.95282 -1.16465e-08 0)
(5.95282 3.10359e-08 0)
(5.95282 -5.51462e-09 0)
(5.95282 -1.50736e-09 0)
(5.95282 2.83629e-09 0)
(5.95282 -2.91804e-09 0)
(5.95282 1.25732e-08 0)
(5.95282 1.58714e-10 0)
(5.95282 9.50879e-09 0)
(5.95282 1.00817e-08 0)
(5.95282 8.79101e-09 0)
(5.95282 2.01091e-08 0)
(5.95282 1.0834e-08 0)
(5.95282 2.77247e-08 0)
(5.95282 1.48577e-08 0)
(5.95282 3.00015e-08 0)
(5.95282 1.60119e-08 0)
(5.95282 2.2721e-08 0)
(5.95282 -1.1208e-08 0)
(5.95282 -2.72733e-08 0)
(6.20613 -1.07982e-08 0)
(6.20613 3.38275e-08 0)
(6.20613 -6.57004e-09 0)
(6.20613 6.17484e-10 0)
(6.20613 1.33543e-09 0)
(6.20613 -1.02135e-09 0)
(6.20613 1.09286e-08 0)
(6.20613 2.60919e-09 0)
(6.20613 7.75577e-09 0)
(6.20613 1.29646e-08 0)
(6.20613 7.20479e-09 0)
(6.20613 2.32188e-08 0)
(6.20613 9.74323e-09 0)
(6.20613 3.07314e-08 0)
(6.20613 1.4494e-08 0)
(6.20613 3.23042e-08 0)
(6.20613 1.62568e-08 0)
(6.20613 2.36208e-08 0)
(6.20613 -1.2197e-08 0)
(6.20613 -2.8731e-08 0)
(6.33279 -9.58078e-09 0)
(6.33279 3.58581e-08 0)
(6.33279 -7.47823e-09 0)
(6.33279 2.7533e-09 0)
(6.33279 -1.60904e-10 0)
(6.33279 9.14578e-10 0)
(6.33279 8.9924e-09 0)
(6.33279 4.9762e-09 0)
(6.33279 5.81129e-09 0)
(6.33279 1.55023e-08 0)
(6.33279 5.44732e-09 0)
(6.33279 2.57242e-08 0)
(6.33279 8.43259e-09 0)
(6.33279 3.29563e-08 0)
(6.33279 1.38235e-08 0)
(6.33279 3.38191e-08 0)
(6.33279 1.6227e-08 0)
(6.33279 2.39485e-08 0)
(6.33279 -1.24179e-08 0)
(6.33279 -2.88105e-08 0)
(6.33279 -8.22311e-09 0)
(6.33279 3.6921e-08 0)
(6.33279 -8.21128e-09 0)
(6.33279 4.72367e-09 0)
(6.33279 -1.55147e-09 0)
(6.33279 2.7528e-09 0)
(6.33279 6.92101e-09 0)
(6.33279 7.11229e-09 0)
(6.33279 3.81862e-09 0)
(6.33279 1.75639e-08 0)
(6.33279 3.64739e-09 0)
(6.33279 2.75246e-08 0)
(6.33279 7.00903e-09 0)
(6.33279 3.43404e-08 0)
(6.33279 1.29236e-08 0)
(6.33279 3.45499e-08 0)
(6.33279 1.5963e-08 0)
(6.33279 2.3781e-08 0)
(6.33279 -1.18858e-08 0)
(6.33279 -2.75802e-08 0)
(6.20613 -6.94335e-09 0)
(6.20613 3.68266e-08 0)
(6.20613 -8.73016e-09 0)
(6.20613 6.37007e-09 0)
(6.20613 -2.75069e-09 0)
(6.20613 4.36541e-09 0)
(6.20613 4.85167e-09 0)
(6.20613 8.88886e-09 0)
(6.20613 1.89826e-09 0)
(6.20613 1.90341e-08 0)
(6.20613 1.90839e-09 0)
(6.20613 2.85289e-08 0)
(6.20613 5.55056e-09 0)
(6.20613 3.4824e-08 0)
(6.20613 1.1838e-08 0)
(6.20613 3.44833e-08 0)
(6.20613 1.54606e-08 0)
(6.20613 2.31728e-08 0)
(6.20613 -1.06909e-08 0)
(6.20613 -2.52088e-08 0)
(5.95282 -5.91761e-09 0)
(5.95282 3.54332e-08 0)
(5.95282 -8.98155e-09 0)
(5.95282 7.56213e-09 0)
(5.95282 -3.68829e-09 0)
(5.95282 5.64049e-09 0)
(5.95282 2.90215e-09 0)
(5.95282 1.01996e-08 0)
(5.95282 1.50641e-10 0)
(5.95282 1.98168e-08 0)
(5.95282 3.1458e-10 0)
(5.95282 2.86591e-08 0)
(5.95282 4.11609e-09 0)
(5.95282 3.43511e-08 0)
(5.95282 1.05893e-08 0)
(5.95282 3.35929e-08 0)
(5.95282 1.46864e-08 0)
(5.95282 2.21511e-08 0)
(5.95282 -8.98713e-09 0)
(5.95282 -2.19504e-08 0)
(5.57285 -5.2498e-09 0)
(5.57285 3.26801e-08 0)
(5.57285 -8.90051e-09 0)
(5.57285 8.20374e-09 0)
(5.57285 -4.30728e-09 0)
(5.57285 6.48375e-09 0)
(5.57285 1.16751e-09 0)
(5.57285 1.09547e-08 0)
(5.57285 -1.34763e-09 0)
(5.57285 1.98242e-08 0)
(5.57285 -1.07573e-09 0)
(5.57285 2.78343e-08 0)
(5.57285 2.73301e-09 0)
(5.57285 3.28448e-08 0)
(5.57285 9.16061e-09 0)
(5.57285 3.18054e-08 0)
(5.57285 1.35566e-08 0)
(5.57285 2.06758e-08 0)
(5.57285 -7.00491e-09 0)
(5.57285 -1.81434e-08 0)
(5.06623 -4.9546e-09 0)
(5.06623 2.86166e-08 0)
(5.06623 -8.42262e-09 0)
(5.06623 8.23826e-09 0)
(5.06623 -4.57471e-09 0)
(5.06623 6.82395e-09 0)
(5.06623 -2.82616e-10 0)
(5.06623 1.10798e-08 0)
(5.06623 -2.54563e-09 0)
(5.06623 1.89766e-08 0)
(5.06623 -2.23312e-09 0)
(5.06623 2.59677e-08 0)
(5.06623 1.39281e-09 0)
(5.06623 3.02028e-08 0)
(5.06623 7.48925e-09 0)
(5.06623 2.8992e-08 0)
(5.06623 1.1932e-08 0)
(5.06623 1.86188e-08 0)
(5.06623 -5.07042e-09 0)
(5.06623 -1.42062e-08 0)
(4.43295 -4.92867e-09 0)
(4.43295 2.34189e-08 0)
(4.43295 -7.48714e-09 0)
(4.43295 7.647e-09 0)
(4.43295 -4.45965e-09 0)
(4.43295 6.61492e-09 0)
(4.43295 -1.37384e-09 0)
(4.43295 1.05152e-08 0)
(4.43295 -3.37293e-09 0)
(4.43295 1.72105e-08 0)
(4.43295 -3.09546e-09 0)
(4.43295 2.29932e-08 0)
(4.43295 1.2989e-10 0)
(4.43295 2.6344e-08 0)
(4.43295 5.55904e-09 0)
(4.43295 2.5029e-08 0)
(4.43295 9.70731e-09 0)
(4.43295 1.58087e-08 0)
(4.43295 -3.54276e-09 0)
(4.43295 -1.06217e-08 0)
(3.67302 -5.26929e-09 0)
(3.67302 1.75496e-08 0)
(3.67302 -6.278e-09 0)
(3.67302 6.54684e-09 0)
(3.67302 -4.25951e-09 0)
(3.67302 5.8281e-09 0)
(3.67302 -2.50187e-09 0)
(3.67302 9.09547e-09 0)
(3.67302 -4.50802e-09 0)
(3.67302 1.41425e-08 0)
(3.67302 -4.71421e-09 0)
(3.67302 1.81582e-08 0)
(3.67302 -2.5625e-09 0)
(3.67302 2.00044e-08 0)
(3.67302 1.41059e-09 0)
(3.67302 1.81318e-08 0)
(3.67302 4.70712e-09 0)
(3.67302 1.03505e-08 0)
(3.67302 -4.25293e-09 0)
(3.67302 -8.57627e-09 0)
(2.78643 -4.11425e-09 0)
(2.78643 1.07771e-08 0)
(2.78643 -3.90049e-09 0)
(2.78643 4.62284e-09 0)
(2.78643 -2.63897e-09 0)
(2.78643 4.61247e-09 0)
(2.78643 -1.59088e-09 0)
(2.78643 7.45888e-09 0)
(2.78643 -2.54139e-09 0)
(2.78643 1.14401e-08 0)
(2.78643 -1.95535e-09 0)
(2.78643 1.48746e-08 0)
(2.78643 4.88649e-10 0)
(2.78643 1.6938e-08 0)
(2.78643 4.16551e-09 0)
(2.78643 1.62496e-08 0)
(2.78643 6.77285e-09 0)
(2.78643 1.03767e-08 0)
(2.78643 -3.87195e-10 0)
(2.78643 -4.66829e-09 0)
(1.77318 -4.8693e-09 0)
(1.77318 5.49907e-09 0)
(1.77318 -2.85615e-09 0)
(1.77318 3.22313e-09 0)
(1.77318 -3.27897e-09 0)
(1.77318 2.98052e-09 0)
(1.77318 -4.02135e-09 0)
(1.77318 4.43242e-09 0)
(1.77318 -6.23905e-09 0)
(1.77318 5.46962e-09 0)
(1.77318 -7.92204e-09 0)
(1.77318 5.20833e-09 0)
(1.77318 -8.92482e-09 0)
(1.77318 3.26965e-09 0)
(1.77318 -9.28104e-09 0)
(1.77318 -3.48804e-10 0)
(1.77318 -9.11644e-09 0)
(1.77318 -5.04266e-09 0)
(1.77318 -1.05089e-08 0)
(1.77318 -8.81295e-09 0)
(0.633279 -5.87546e-10 0)
(0.633279 6.19515e-10 0)
(0.633279 1.30559e-10 0)
(0.633279 3.72636e-10 0)
(0.633279 9.65646e-11 0)
(0.633279 6.71297e-10 0)
(0.633279 2.06602e-10 0)
(0.633279 1.34707e-09 0)
(0.633279 3.88184e-10 0)
(0.633279 2.08675e-09 0)
(0.633279 9.21065e-10 0)
(0.633279 2.89355e-09 0)
(0.633279 1.74762e-09 0)
(0.633279 3.61947e-09 0)
(0.633279 2.60231e-09 0)
(0.633279 3.86906e-09 0)
(0.633279 2.82921e-09 0)
(0.633279 2.73976e-09 0)
(0.633279 7.36479e-10 0)
(0.633279 -1.11934e-09 0)
)
;

boundaryField
{
    top
    {
        type            fixedValue;
        value           uniform (0 0 0);
    }
    bottom
    {
        type            fixedValue;
        value           uniform (0 0 0);
    }
    inlet
    {
        type            zeroGradient;
    }
    outlet
    {
        type            zeroGradient;
    }
    frontAndBack
    {
        type            empty;
    }
}


// ************************************************************************* //
