/*--------------------------------*- C++ -*----------------------------------*\
| =========                 |                                                 |
| \\      /  F ield         | OpenFOAM: The Open Source CFD Toolbox           |
|  \\    /   O peration     | Version:  4.1                                   |
|   \\  /    A nd           | Web:      www.OpenFOAM.org                      |
|    \\/     M anipulation  |                                                 |
\*---------------------------------------------------------------------------*/
FoamFile
{
    version     2.0;
    format      ascii;
    class       volScalarField;
    location    "2.3";
    object      p;
}
// * * * * * * * * * * * * * * * * * * * * * * * * * * * * * * * * * * * * * //

dimensions      [0 2 -2 0 0 0 0];

internalField   nonuniform List<scalar> 
400
(
3.45269e-09
3.85242e-09
3.28842e-09
3.51602e-09
3.10093e-09
3.22017e-09
2.90611e-09
2.93893e-09
2.70057e-09
2.66646e-09
2.48817e-09
2.39919e-09
2.27206e-09
2.1343e-09
2.05486e-09
1.8694e-09
1.83976e-09
1.60678e-09
1.64288e-09
1.55025e-09
3.44016e-09
3.83956e-09
3.28746e-09
3.51577e-09
3.10094e-09
3.22012e-09
2.90613e-09
2.93891e-09
2.70059e-09
2.66645e-09
2.48817e-09
2.39919e-09
2.27206e-09
2.1343e-09
2.05485e-09
1.8694e-09
1.83962e-09
1.60688e-09
1.63431e-09
1.54119e-09
3.43307e-09
3.83046e-09
3.28628e-09
3.51574e-09
3.10079e-09
3.22023e-09
2.90605e-09
2.93897e-09
2.70054e-09
2.66648e-09
2.48815e-09
2.3992e-09
2.27206e-09
2.13429e-09
2.05487e-09
1.86935e-09
1.83956e-09
1.60679e-09
1.62758e-09
1.53497e-09
3.43085e-09
3.82621e-09
3.28517e-09
3.51577e-09
3.10061e-09
3.22034e-09
2.90595e-09
2.93905e-09
2.70048e-09
2.66652e-09
2.48812e-09
2.39921e-09
2.27206e-09
2.13427e-09
2.0549e-09
1.8693e-09
1.83953e-09
1.60655e-09
1.62373e-09
1.53179e-09
3.43155e-09
3.82532e-09
3.28411e-09
3.5158e-09
3.10047e-09
3.22044e-09
2.90587e-09
2.93911e-09
2.70043e-09
2.66656e-09
2.4881e-09
2.39922e-09
2.27206e-09
2.13426e-09
2.05492e-09
1.86926e-09
1.83952e-09
1.60626e-09
1.62211e-09
1.53069e-09
3.43418e-09
3.82669e-09
3.28307e-09
3.5158e-09
3.10036e-09
3.22051e-09
2.90581e-09
2.93916e-09
2.7004e-09
2.66658e-09
2.48809e-09
2.39923e-09
2.27207e-09
2.13425e-09
2.05494e-09
1.86923e-09
1.83951e-09
1.60592e-09
1.62228e-09
1.53121e-09
3.43817e-09
3.82965e-09
3.282e-09
3.5158e-09
3.10026e-09
3.22057e-09
2.90576e-09
2.9392e-09
2.70037e-09
2.6666e-09
2.48807e-09
2.39923e-09
2.27207e-09
2.13424e-09
2.05495e-09
1.86921e-09
1.83952e-09
1.60558e-09
1.62395e-09
1.53307e-09
3.44286e-09
3.83349e-09
3.28089e-09
3.51577e-09
3.10019e-09
3.22061e-09
2.90572e-09
2.93923e-09
2.70035e-09
2.66662e-09
2.48806e-09
2.39924e-09
2.27207e-09
2.13424e-09
2.05497e-09
1.86919e-09
1.83953e-09
1.60526e-09
1.62676e-09
1.53591e-09
3.4476e-09
3.83753e-09
3.27976e-09
3.51573e-09
3.10013e-09
3.22064e-09
2.9057e-09
2.93924e-09
2.70033e-09
2.66663e-09
2.48806e-09
2.39924e-09
2.27207e-09
2.13423e-09
2.05498e-09
1.86918e-09
1.83954e-09
1.60498e-09
1.63029e-09
1.53928e-09
3.45178e-09
3.84114e-09
3.27859e-09
3.51565e-09
3.10008e-09
3.22066e-09
2.90569e-09
2.93925e-09
2.70032e-09
2.66663e-09
2.48806e-09
2.39924e-09
2.27207e-09
2.13423e-09
2.05498e-09
1.86918e-09
1.83954e-09
1.60476e-09
1.63406e-09
1.54273e-09
3.45488e-09
3.84378e-09
3.27741e-09
3.51553e-09
3.10006e-09
3.22065e-09
2.90569e-09
2.93925e-09
2.70033e-09
2.66663e-09
2.48806e-09
2.39924e-09
2.27207e-09
2.13423e-09
2.05498e-09
1.86918e-09
1.83954e-09
1.60462e-09
1.63762e-09
1.54582e-09
3.45651e-09
3.84506e-09
3.27624e-09
3.51538e-09
3.10005e-09
3.22063e-09
2.9057e-09
2.93924e-09
2.70033e-09
2.66662e-09
2.48806e-09
2.39924e-09
2.27207e-09
2.13423e-09
2.05498e-09
1.86919e-09
1.83952e-09
1.60455e-09
1.64055e-09
1.54815e-09
3.45642e-09
3.84472e-09
3.27511e-09
3.51519e-09
3.10007e-09
3.22059e-09
2.90573e-09
2.93922e-09
2.70035e-09
2.66661e-09
2.48807e-09
2.39923e-09
2.27207e-09
2.13423e-09
2.05498e-09
1.86921e-09
1.83949e-09
1.60455e-09
1.6425e-09
1.54939e-09
3.45453e-09
3.84272e-09
3.27404e-09
3.51496e-09
3.1001e-09
3.22054e-09
2.90577e-09
2.93919e-09
2.70038e-09
2.66659e-09
2.48808e-09
2.39923e-09
2.27207e-09
2.13424e-09
2.05497e-09
1.86923e-09
1.83943e-09
1.60462e-09
1.64321e-09
1.54932e-09
3.45094e-09
3.83919e-09
3.27308e-09
3.5147e-09
3.10014e-09
3.22047e-09
2.90582e-09
2.93915e-09
2.70041e-09
2.66657e-09
2.48809e-09
2.39922e-09
2.27207e-09
2.13425e-09
2.05496e-09
1.86925e-09
1.83935e-09
1.60474e-09
1.64255e-09
1.54782e-09
3.44599e-09
3.83449e-09
3.27226e-09
3.51442e-09
3.10021e-09
3.22039e-09
2.90588e-09
2.9391e-09
2.70044e-09
2.66655e-09
2.48811e-09
2.39921e-09
2.27207e-09
2.13426e-09
2.05494e-09
1.86928e-09
1.83926e-09
1.60489e-09
1.64055e-09
1.54495e-09
3.4401e-09
3.82917e-09
3.27161e-09
3.51412e-09
3.1003e-09
3.22029e-09
2.90596e-09
2.93903e-09
2.70049e-09
2.66651e-09
2.48813e-09
2.3992e-09
2.27207e-09
2.13427e-09
2.05492e-09
1.86932e-09
1.83914e-09
1.60506e-09
1.63738e-09
1.54085e-09
3.43413e-09
3.82418e-09
3.27115e-09
3.51378e-09
3.10043e-09
3.22016e-09
2.90606e-09
2.93896e-09
2.70055e-09
2.66647e-09
2.48816e-09
2.39919e-09
2.27207e-09
2.13428e-09
2.05489e-09
1.86935e-09
1.839e-09
1.60524e-09
1.63339e-09
1.53585e-09
3.42952e-09
3.82047e-09
3.27082e-09
3.51348e-09
3.10053e-09
3.22005e-09
2.90614e-09
2.93889e-09
2.7006e-09
2.66643e-09
2.48818e-09
2.39918e-09
2.27207e-09
2.13429e-09
2.05486e-09
1.86938e-09
1.83885e-09
1.60539e-09
1.62887e-09
1.53046e-09
3.42868e-09
3.81883e-09
3.27038e-09
3.51342e-09
3.10047e-09
3.22008e-09
2.90611e-09
2.93891e-09
2.70058e-09
2.66645e-09
2.48817e-09
2.39918e-09
2.27207e-09
2.13429e-09
2.05487e-09
1.86935e-09
1.83877e-09
1.60545e-09
1.62462e-09
1.5263e-09
)
;

boundaryField
{
    top
    {
        type            zeroGradient;
    }
    bottom
    {
        type            zeroGradient;
    }
    inlet
    {
        type            fixedValue;
        value           uniform 0;
    }
    outlet
    {
        type            fixedValue;
        value           uniform 0;
    }
    frontAndBack
    {
        type            empty;
    }
}


// ************************************************************************* //
