/*--------------------------------*- C++ -*----------------------------------*\
| =========                 |                                                 |
| \\      /  F ield         | OpenFOAM: The Open Source CFD Toolbox           |
|  \\    /   O peration     | Version:  4.1                                   |
|   \\  /    A nd           | Web:      www.OpenFOAM.org                      |
|    \\/     M anipulation  |                                                 |
\*---------------------------------------------------------------------------*/
FoamFile
{
    version     2.0;
    format      ascii;
    class       surfaceScalarField;
    location    "2.3";
    object      phi;
}
// * * * * * * * * * * * * * * * * * * * * * * * * * * * * * * * * * * * * * //

dimensions      [0 3 -1 0 0 0 0];

internalField   nonuniform List<scalar> 
760
(
1.24999e-06
-5.36608e-15
1.24999e-06
-3.68442e-15
1.24999e-06
4.51646e-17
1.24999e-06
-2.60161e-16
1.24999e-06
1.73176e-16
1.24999e-06
-1.46479e-16
1.24999e-06
1.15849e-16
1.24999e-06
-9.07097e-17
1.24999e-06
6.81675e-17
1.24999e-06
-4.79875e-17
1.24999e-06
2.95353e-17
1.24999e-06
-1.22997e-17
1.24999e-06
-4.14135e-18
1.24999e-06
2.0146e-17
1.24999e-06
-3.68085e-17
1.24999e-06
5.04819e-17
1.24999e-06
-9.66905e-17
1.24999e-06
1.36563e-16
1.24999e-06
-2.20731e-15
-3.25518e-15
3.74998e-06
-1.62183e-14
3.74998e-06
-1.28933e-14
3.74998e-06
-2.6921e-16
3.74998e-06
-6.33305e-16
3.74998e-06
3.62926e-16
3.74998e-06
-3.17406e-16
3.74998e-06
2.48734e-16
3.74998e-06
-1.95015e-16
3.74998e-06
1.46321e-16
3.74998e-06
-1.02813e-16
3.74998e-06
6.3e-17
3.74998e-06
-2.57669e-17
3.74998e-06
-9.75173e-18
3.74998e-06
4.42161e-17
3.74998e-06
-8.11663e-17
3.74998e-06
1.05687e-16
3.74998e-06
-2.54323e-16
3.74998e-06
3.6067e-16
3.74998e-06
-8.13077e-15
-1.05099e-14
6.24997e-06
-2.93408e-14
6.24997e-06
-2.54226e-14
6.24997e-06
-9.95205e-16
6.24997e-06
-9.71907e-16
6.24997e-06
4.66877e-16
6.24997e-06
-4.26827e-16
6.24997e-06
3.30521e-16
6.24997e-06
-2.59605e-16
6.24997e-06
1.94391e-16
6.24997e-06
-1.3627e-16
6.24997e-06
8.30336e-17
6.24997e-06
-3.31773e-17
6.24997e-06
-1.43918e-17
6.24997e-06
6.03566e-17
6.24997e-06
-1.11455e-16
6.24997e-06
1.35994e-16
6.24997e-06
-4.19927e-16
6.24997e-06
6.05403e-16
6.24997e-06
-1.66991e-14
-2.00938e-14
8.74996e-06
-4.2754e-14
8.74996e-06
-3.91097e-14
8.74996e-06
-1.9961e-15
8.74996e-06
-1.26167e-15
8.74996e-06
4.95749e-16
8.74996e-06
-4.805e-16
8.74996e-06
3.66512e-16
8.74996e-06
-2.88564e-16
8.74996e-06
2.1554e-16
8.74996e-06
-1.50689e-16
8.74996e-06
9.12078e-17
8.74996e-06
-3.5403e-17
8.74996e-06
-1.78426e-17
8.74996e-06
6.90223e-17
8.74996e-06
-1.28469e-16
8.74996e-06
1.44441e-16
8.74996e-06
-5.82323e-16
8.74996e-06
8.54025e-16
8.74996e-06
-2.6648e-14
-3.07455e-14
1.12499e-05
-5.47517e-14
1.12499e-05
-5.20503e-14
1.12499e-05
-3.12533e-15
1.12499e-05
-1.48727e-15
1.12499e-05
4.61343e-16
1.12499e-05
-4.84749e-16
1.12499e-05
3.62509e-16
1.12499e-05
-2.86355e-16
1.12499e-05
2.13221e-16
1.12499e-05
-1.48576e-16
1.12499e-05
8.91768e-17
1.12499e-05
-3.33282e-17
1.12499e-05
-1.99585e-17
1.12499e-05
7.08205e-17
1.12499e-05
-1.33235e-16
1.12499e-05
1.34325e-16
1.12499e-05
-7.29613e-16
1.12499e-05
1.09048e-15
1.12499e-05
-3.67635e-14
-4.1258e-14
1.37499e-05
-6.40263e-14
1.37499e-05
-6.27331e-14
1.37499e-05
-4.23893e-15
1.37499e-05
-1.63503e-15
1.37499e-05
3.76221e-16
1.37499e-05
-4.46512e-16
1.37499e-05
3.24785e-16
1.37499e-05
-2.57808e-16
1.37499e-05
1.91133e-16
1.37499e-05
-1.32605e-16
1.37499e-05
7.8688e-17
1.37499e-05
-2.78383e-17
1.37499e-05
-2.06686e-17
1.37499e-05
6.65153e-17
1.37499e-05
-1.27036e-16
1.37499e-05
1.09109e-16
1.37499e-05
-8.5052e-16
1.37499e-05
1.29804e-15
1.37499e-05
-4.59489e-14
-5.05456e-14
1.62499e-05
-6.96754e-14
1.62499e-05
-7.00586e-14
1.62499e-05
-5.20797e-15
1.62499e-05
-1.69484e-15
1.62499e-05
2.53329e-16
1.62499e-05
-3.73273e-16
1.62499e-05
2.6e-16
1.62499e-05
-2.08051e-16
1.62499e-05
1.53197e-16
1.62499e-05
-1.05566e-16
1.62499e-05
6.15264e-17
1.62499e-05
-1.98008e-17
1.62499e-05
-1.99965e-17
1.62499e-05
5.70217e-17
1.62499e-05
-1.11403e-16
1.62499e-05
7.23711e-17
1.62499e-05
-9.35429e-16
1.62499e-05
1.45957e-15
1.62499e-05
-5.33e-14
-5.77204e-14
1.87499e-05
-7.12489e-14
1.87499e-05
-7.33961e-14
1.87499e-05
-5.9296e-15
1.87499e-05
-1.66194e-15
1.87499e-05
1.05578e-16
1.87499e-05
-2.73005e-16
1.87499e-05
1.75083e-16
1.87499e-05
-1.42401e-16
1.87499e-05
1.03457e-16
1.87499e-05
-7.03509e-17
1.87499e-05
3.95247e-17
1.87499e-05
-1.00474e-17
1.87499e-05
-1.80524e-17
1.87499e-05
4.33917e-17
1.87499e-05
-8.80905e-17
1.87499e-05
2.77265e-17
1.87499e-05
-9.77298e-16
1.87499e-05
1.55897e-15
1.87499e-05
-5.81547e-14
-6.21433e-14
2.12499e-05
-6.87277e-14
2.12499e-05
-7.25724e-14
2.12499e-05
-6.33576e-15
2.12499e-05
-1.53814e-15
2.12499e-05
-5.44965e-17
2.12499e-05
-1.5404e-16
2.12499e-05
7.71228e-17
2.12499e-05
-6.63548e-17
2.12499e-05
4.60731e-17
2.12499e-05
-2.98917e-17
2.12499e-05
1.4499e-17
2.12499e-05
6.21621e-19
2.12499e-05
-1.50136e-17
2.12499e-05
2.67822e-17
2.12499e-05
-5.90954e-17
2.12499e-05
-2.12051e-17
2.12499e-05
-9.72353e-16
2.12499e-05
1.58335e-15
2.12499e-05
-6.01271e-14
-6.34597e-14
2.37499e-05
-6.25026e-14
2.37499e-05
-6.78551e-14
2.37499e-05
-6.3982e-15
2.37499e-05
-1.33249e-15
2.37499e-05
-2.15035e-16
2.37499e-05
-2.50383e-17
2.37499e-05
-2.67273e-17
2.37499e-05
1.45609e-17
2.37499e-05
-1.47782e-17
2.37499e-05
1.2873e-17
2.37499e-05
-1.17565e-17
2.37499e-05
1.14612e-17
2.37499e-05
-1.11282e-17
2.37499e-05
8.44777e-18
2.37499e-05
-2.65832e-17
2.37499e-05
-7.08515e-17
2.37499e-05
-9.20583e-16
2.37499e-05
1.52563e-15
2.37499e-05
-5.91195e-14
-6.16149e-14
2.62499e-05
-5.33129e-14
2.62499e-05
-5.98937e-14
2.62499e-05
-6.12899e-15
2.62499e-05
-1.06128e-15
2.62499e-05
-3.65108e-16
2.62499e-05
1.05138e-16
2.62499e-05
-1.29321e-16
2.62499e-05
9.47898e-17
2.62499e-05
-7.49442e-17
2.62499e-05
5.50424e-17
2.62499e-05
-3.74585e-17
2.62499e-05
2.17596e-17
2.62499e-05
-6.7279e-18
2.62499e-05
-1.0301e-17
2.62499e-05
7.14477e-18
2.62499e-05
-1.17757e-16
2.62499e-05
-8.25925e-16
2.62499e-05
1.38673e-15
2.62499e-05
-5.53153e-14
-5.68481e-14
2.87499e-05
-4.21656e-14
2.87499e-05
-4.96365e-14
2.87499e-05
-5.57665e-15
2.87499e-05
-7.47372e-16
2.87499e-05
-4.94784e-16
2.87499e-05
2.27525e-16
2.87499e-05
-2.23638e-16
2.87499e-05
1.68855e-16
2.87499e-05
-1.30323e-16
2.87499e-05
9.37449e-17
2.87499e-05
-6.08822e-17
2.87499e-05
3.08775e-17
2.87499e-05
-2.17624e-18
2.87499e-05
-2.80953e-17
2.87499e-05
3.96519e-17
2.87499e-05
-1.58597e-16
2.87499e-05
-6.96139e-16
2.87499e-05
1.17705e-15
2.87499e-05
-4.91489e-14
-4.96628e-14
3.12499e-05
-3.02406e-14
3.12499e-05
-3.82295e-14
3.12499e-05
-4.81729e-15
3.12499e-05
-4.18656e-16
3.12499e-05
-5.95179e-16
3.12499e-05
3.33147e-16
3.12499e-05
-3.02844e-16
3.12499e-05
2.31377e-16
3.12499e-05
-1.76893e-16
3.12499e-05
1.26183e-16
3.12499e-05
-8.03628e-17
3.12499e-05
3.81916e-17
3.12499e-05
2.1372e-18
3.12499e-05
-4.35874e-17
3.12499e-05
6.84986e-17
3.12499e-05
-1.90226e-16
3.12499e-05
-5.424e-16
3.12499e-05
9.16461e-16
3.12499e-05
-4.12621e-14
-4.07821e-14
3.37499e-05
-1.87586e-14
3.37499e-05
-2.68753e-14
3.37499e-05
-3.94291e-15
3.37499e-05
-1.06159e-16
3.37499e-05
-6.58369e-16
3.37499e-05
4.13164e-16
3.37499e-05
-3.6036e-16
3.37499e-05
2.7717e-16
3.37499e-05
-2.10806e-16
3.37499e-05
1.497e-16
3.37499e-05
-9.43261e-17
3.37499e-05
4.31205e-17
3.37499e-05
5.82236e-18
3.37499e-05
-5.54301e-17
3.37499e-05
9.12214e-17
3.37499e-05
-2.09786e-16
3.37499e-05
-3.78576e-16
3.37499e-05
6.3304e-16
3.37499e-05
-3.24326e-14
-3.10742e-14
3.62499e-05
-8.87764e-15
3.62499e-05
-1.67175e-14
3.62499e-05
-3.04573e-15
3.62499e-05
1.58259e-16
3.62499e-05
-6.77221e-16
3.62499e-05
4.58999e-16
3.62499e-05
-3.8994e-16
3.62499e-05
3.01275e-16
3.62499e-05
-2.28381e-16
3.62499e-05
1.61741e-16
3.62499e-05
-1.01227e-16
3.62499e-05
4.51167e-17
3.62499e-05
8.50768e-18
3.62499e-05
-6.23424e-17
3.62499e-05
1.05422e-16
3.62499e-05
-2.14758e-16
3.62499e-05
-2.20273e-16
3.62499e-05
3.59671e-16
3.62499e-05
-2.35102e-14
-2.14842e-14
3.87499e-05
-1.51081e-15
3.87499e-05
-8.64693e-15
3.87499e-05
-2.20455e-15
3.87499e-05
3.4443e-16
3.87499e-05
-6.45208e-16
3.87499e-05
4.62463e-16
3.87499e-05
-3.8568e-16
3.87499e-05
2.98964e-16
3.87499e-05
-2.26119e-16
3.87499e-05
1.59876e-16
3.87499e-05
-9.96032e-17
3.87499e-05
4.36239e-17
3.87499e-05
9.85067e-18
3.87499e-05
-6.31662e-17
3.87499e-05
1.08864e-16
3.87499e-05
-2.03029e-16
3.87499e-05
-8.37542e-17
3.87499e-05
1.30129e-16
3.87499e-05
-1.53037e-14
-1.29137e-14
4.125e-05
2.73205e-15
4.125e-05
-3.23139e-15
4.125e-05
-1.46874e-15
4.125e-05
4.25924e-16
4.125e-05
-5.56222e-16
4.125e-05
4.15903e-16
4.125e-05
-3.42094e-16
4.125e-05
2.6586e-16
4.125e-05
-2.00779e-16
4.125e-05
1.41816e-16
4.125e-05
-8.80912e-17
4.125e-05
3.81427e-17
4.125e-05
9.57014e-18
4.125e-05
-5.68683e-17
4.125e-05
9.94742e-17
4.125e-05
-1.73059e-16
4.125e-05
1.52208e-17
4.125e-05
-2.71479e-17
4.125e-05
-8.52991e-15
-6.16295e-15
4.375e-05
3.80343e-15
4.375e-05
-4.51729e-16
4.375e-05
-8.52083e-16
4.375e-05
3.81854e-16
4.375e-05
-4.04342e-16
4.375e-05
3.12264e-16
4.375e-05
-2.54144e-16
4.375e-05
1.9793e-16
4.375e-05
-1.49318e-16
4.375e-05
1.05426e-16
4.375e-05
-6.53612e-17
4.375e-05
2.80845e-17
4.375e-05
7.48917e-18
4.375e-05
-4.25945e-17
4.375e-05
7.54695e-17
4.375e-05
-1.23902e-16
4.375e-05
6.24669e-17
4.375e-05
-9.32655e-17
4.375e-05
-3.6423e-15
-1.75274e-15
4.625e-05
2.13609e-15
4.625e-05
2.2217e-16
4.625e-05
-3.26411e-16
4.625e-05
1.9717e-16
4.625e-05
-1.83546e-16
4.625e-05
1.45177e-16
4.625e-05
-1.17248e-16
4.625e-05
9.14572e-17
4.625e-05
-6.89401e-17
4.625e-05
4.86613e-17
4.625e-05
-3.0144e-17
4.625e-05
1.29056e-17
4.625e-05
3.5578e-18
4.625e-05
-1.9732e-17
4.625e-05
3.53114e-17
4.625e-05
-5.52888e-17
4.625e-05
4.62374e-17
4.625e-05
-6.54361e-17
4.625e-05
-8.5315e-16
6.07171e-17
4.875e-05
4.875e-05
4.875e-05
4.875e-05
4.875e-05
4.875e-05
4.875e-05
4.875e-05
4.875e-05
4.875e-05
4.875e-05
4.875e-05
4.875e-05
4.875e-05
4.875e-05
4.875e-05
4.875e-05
4.875e-05
4.875e-05
)
;

boundaryField
{
    top
    {
        type            calculated;
        value           uniform 0;
    }
    bottom
    {
        type            calculated;
        value           uniform 0;
    }
    inlet
    {
        type            calculated;
        value           nonuniform List<scalar> 
20
(
-1.24999e-06
-3.74998e-06
-6.24997e-06
-8.74996e-06
-1.12499e-05
-1.37499e-05
-1.62499e-05
-1.87499e-05
-2.12499e-05
-2.37499e-05
-2.62499e-05
-2.87499e-05
-3.12499e-05
-3.37499e-05
-3.62499e-05
-3.87499e-05
-4.125e-05
-4.375e-05
-4.625e-05
-4.875e-05
)
;
    }
    outlet
    {
        type            calculated;
        value           nonuniform List<scalar> 
20
(
1.24999e-06
3.74998e-06
6.24997e-06
8.74996e-06
1.12499e-05
1.37499e-05
1.62499e-05
1.87499e-05
2.12499e-05
2.37499e-05
2.62499e-05
2.87499e-05
3.12499e-05
3.37499e-05
3.62499e-05
3.87499e-05
4.125e-05
4.375e-05
4.625e-05
4.875e-05
)
;
    }
    frontAndBack
    {
        type            empty;
        value           nonuniform 0();
    }
}


// ************************************************************************* //
