/*--------------------------------*- C++ -*----------------------------------*\
| =========                 |                                                 |
| \\      /  F ield         | OpenFOAM: The Open Source CFD Toolbox           |
|  \\    /   O peration     | Version:  4.1                                   |
|   \\  /    A nd           | Web:      www.OpenFOAM.org                      |
|    \\/     M anipulation  |                                                 |
\*---------------------------------------------------------------------------*/
FoamFile
{
    version     2.0;
    format      ascii;
    class       volVectorField;
    location    "2.3";
    object      U;
}
// * * * * * * * * * * * * * * * * * * * * * * * * * * * * * * * * * * * * * //

dimensions      [0 1 -1 0 0 0 0];

internalField   nonuniform List<vector> 
400
(
(0.0249999 -2.37958e-12 0)
(0.0249999 -1.47688e-12 0)
(0.0249999 5.45577e-14 0)
(0.0249999 -1.29873e-13 0)
(0.0249999 9.11967e-14 0)
(0.0249999 -7.63291e-14 0)
(0.0249999 6.05653e-14 0)
(0.0249999 -4.74016e-14 0)
(0.0249999 3.56449e-14 0)
(0.0249999 -2.5112e-14 0)
(0.0249999 1.54836e-14 0)
(0.0249999 -6.4937e-15 0)
(0.0249999 -2.08106e-15 0)
(0.0249999 1.04391e-14 0)
(0.0249999 -1.90495e-14 0)
(0.0249999 2.65319e-14 0)
(0.0249999 -4.67346e-14 0)
(0.0249999 6.04252e-14 0)
(0.0249999 -8.31817e-13 0)
(0.0249999 -1.36165e-12 0)
(0.0749996 -1.00475e-11 0)
(0.0749996 -7.40487e-12 0)
(0.0749996 -2.07934e-14 0)
(0.0749996 -4.39923e-13 0)
(0.0749996 2.77447e-13 0)
(0.0749996 -2.37393e-13 0)
(0.0749996 1.87133e-13 0)
(0.0749996 -1.46591e-13 0)
(0.0749996 1.10096e-13 0)
(0.0749996 -7.74471e-14 0)
(0.0749996 4.75847e-14 0)
(0.0749996 -1.96779e-14 0)
(0.0749996 -6.94318e-15 0)
(0.0749996 3.28247e-14 0)
(0.0749996 -6.00749e-14 0)
(0.0749996 8.08213e-14 0)
(0.0749996 -1.6867e-13 0)
(0.0749996 2.43216e-13 0)
(0.0749996 -4.51646e-12 0)
(0.0749996 -6.24584e-12 0)
(0.124999 -2.23157e-11 0)
(0.124999 -1.85176e-11 0)
(0.124999 -5.51956e-13 0)
(0.124999 -8.05089e-13 0)
(0.124999 4.28801e-13 0)
(0.124999 -3.81673e-13 0)
(0.124999 2.97677e-13 0)
(0.124999 -2.33551e-13 0)
(0.124999 1.75091e-13 0)
(0.124999 -1.22909e-13 0)
(0.124999 7.51406e-14 0)
(0.124999 -3.0443e-14 0)
(0.124999 -1.22002e-14 0)
(0.124999 5.35094e-14 0)
(0.124999 -9.84565e-14 0)
(0.124999 1.24833e-13 0)
(0.124999 -3.33985e-13 0)
(0.124999 4.72427e-13 0)
(0.124999 -1.18737e-11 0)
(0.124999 -1.47991e-11 0)
(0.174999 -3.6123e-11 0)
(0.174999 -3.21435e-11 0)
(0.174999 -1.43945e-12 0)
(0.174999 -1.13013e-12 0)
(0.174999 4.98877e-13 0)
(0.174999 -4.66884e-13 0)
(0.174999 3.59328e-13 0)
(0.174999 -2.82498e-13 0)
(0.174999 2.11315e-13 0)
(0.174999 -1.47965e-13 0)
(0.174999 8.99067e-14 0)
(0.174999 -3.54935e-14 0)
(0.174999 -1.64243e-14 0)
(0.174999 6.64833e-14 0)
(0.174999 -1.23154e-13 0)
(0.174999 1.45325e-13 0)
(0.174999 -5.02999e-13 0)
(0.174999 7.28949e-13 0)
(0.174999 -2.14456e-11 0)
(0.174999 -2.52669e-11 0)
(0.224999 -4.92599e-11 0)
(0.224999 -4.59359e-11 0)
(0.224999 -2.54485e-12 0)
(0.224999 -1.3929e-12 0)
(0.224999 4.93542e-13 0)
(0.224999 -4.94689e-13 0)
(0.224999 3.74192e-13 0)
(0.224999 -2.95011e-13 0)
(0.224999 2.2006e-13 0)
(0.224999 -1.53625e-13 0)
(0.224999 9.26458e-14 0)
(0.224999 -3.53823e-14 0)
(0.224999 -1.92559e-14 0)
(0.224999 7.16194e-14 0)
(0.224999 -1.33895e-13 0)
(0.224999 1.43781e-13 0)
(0.224999 -6.61391e-13 0)
(0.224999 9.75575e-13 0)
(0.224999 -3.17944e-11 0)
(0.224999 -3.61676e-11 0)
(0.274999 -6.0172e-11 0)
(0.274999 -5.80803e-11 0)
(0.274999 -3.70255e-12 0)
(0.274999 -1.58193e-12 0)
(0.274999 4.29981e-13 0)
(0.274999 -4.75412e-13 0)
(0.274999 3.51326e-13 0)
(0.274999 -2.78088e-13 0)
(0.274999 2.06677e-13 0)
(0.274999 -1.43739e-13 0)
(0.274999 8.58433e-14 0)
(0.274999 -3.13364e-14 0)
(0.274999 -2.06658e-14 0)
(0.274999 7.00946e-14 0)
(0.274999 -1.32714e-13 0)
(0.274999 1.25066e-13 0)
(0.274999 -7.97871e-13 0)
(0.274999 1.20183e-12 0)
(0.274999 -4.16963e-11 0)
(0.274999 -4.63134e-11 0)
(0.324999 -6.77991e-11 0)
(0.324999 -6.72992e-11 0)
(0.324999 -4.77404e-12 0)
(0.324999 -1.68741e-12 0)
(0.324999 3.22554e-13 0)
(0.324999 -4.17604e-13 0)
(0.324999 2.9826e-13 0)
(0.324999 -2.37541e-13 0)
(0.324999 1.75601e-13 0)
(0.324999 -1.21476e-13 0)
(0.324999 7.15363e-14 0)
(0.324999 -2.43468e-14 0)
(0.324999 -2.06667e-14 0)
(0.324999 6.2932e-14 0)
(0.324999 -1.2135e-13 0)
(0.324999 9.31467e-14 0)
(0.324999 -9.02757e-13 0)
(0.324999 1.39073e-12 0)
(0.324999 -5.01568e-11 0)
(0.324999 -5.47318e-11 0)
(0.374999 -7.14694e-11 0)
(0.374999 -7.27321e-11 0)
(0.374999 -5.64162e-12 0)
(0.374999 -1.70134e-12 0)
(0.374999 1.84058e-13 0)
(0.374999 -3.28834e-13 0)
(0.374999 2.21673e-13 0)
(0.374999 -1.78499e-13 0)
(0.374999 1.30747e-13 0)
(0.374999 -8.96286e-14 0)
(0.374999 5.15035e-14 0)
(0.374999 -1.52489e-14 0)
(0.374999 -1.93235e-14 0)
(0.374999 5.10977e-14 0)
(0.374999 -1.01413e-13 0)
(0.374999 5.15668e-14 0)
(0.374999 -9.67489e-13 0)
(0.374999 1.52534e-12 0)
(0.374999 -5.63889e-11 0)
(0.374999 -6.0654e-11 0)
(0.424998 -7.09513e-11 0)
(0.424998 -7.39801e-11 0)
(0.424998 -6.21832e-12 0)
(0.424998 -1.62177e-12 0)
(0.424998 2.70995e-14 0)
(0.424998 -2.17112e-13 0)
(0.424998 1.28465e-13 0)
(0.424998 -1.06284e-13 0)
(0.424998 7.61527e-14 0)
(0.424998 -5.10638e-14 0)
(0.424998 2.75401e-14 0)
(0.424998 -4.84568e-15 0)
(0.424998 -1.67772e-14 0)
(0.424998 3.56793e-14 0)
(0.424998 -7.47451e-14 0)
(0.424998 3.89671e-15 0)
(0.424998 -9.86442e-13 0)
(0.424998 1.59033e-12 0)
(0.424998 -5.98625e-11 0)
(0.424998 -6.35753e-11 0)
(0.474998 -6.64393e-11 0)
(0.474998 -7.10981e-11 0)
(0.474998 -6.4551e-12 0)
(0.474998 -1.45396e-12 0)
(0.474998 -1.36074e-13 0)
(0.474998 -9.0942e-14 0)
(0.474998 2.57731e-14 0)
(0.474998 -2.64172e-14 0)
(0.474998 1.59925e-14 0)
(0.474998 -8.71998e-15 0)
(0.474998 1.45215e-15 0)
(0.474998 6.0899e-15 0)
(0.474998 -1.32428e-14 0)
(0.474998 1.7885e-14 0)
(0.474998 -4.34294e-14 0)
(0.474998 -4.6263e-14 0)
(0.474998 -9.57617e-13 0)
(0.474998 1.57502e-12 0)
(0.474998 -6.03344e-11 0)
(0.474998 -6.32889e-11 0)
(0.524998 -5.85162e-11 0)
(0.524998 -6.45622e-11 0)
(0.524998 -6.34419e-12 0)
(0.524998 -1.21072e-12 0)
(0.524998 -2.94005e-13 0)
(0.524998 4.08774e-14 0)
(0.524998 -7.92213e-14 0)
(0.524998 5.55353e-14 0)
(0.524998 -4.55504e-14 0)
(0.524998 3.44698e-14 0)
(0.524998 -2.49628e-14 0)
(0.524998 1.68274e-14 0)
(0.524998 -9.01384e-15 0)
(0.524998 -9.91072e-16 0)
(0.524998 -9.71617e-15 0)
(0.524998 -9.53835e-14 0)
(0.524998 -8.82969e-13 0)
(0.524998 1.47581e-12 0)
(0.524998 -5.78522e-11 0)
(0.524998 -5.98915e-11 0)
(0.574998 -4.80774e-11 0)
(0.574998 -5.51944e-11 0)
(0.574998 -5.91747e-12 0)
(0.574998 -9.11857e-13 0)
(0.574998 -4.36235e-13 0)
(0.574998 1.69399e-13 0)
(0.574998 -1.79407e-13 0)
(0.574998 1.34037e-13 0)
(0.574998 -1.04334e-13 0)
(0.574998 7.56089e-14 0)
(0.574998 -4.99484e-14 0)
(0.574998 2.66937e-14 0)
(0.574998 -4.4423e-15 0)
(0.574998 -1.96042e-14 0)
(0.574998 2.40128e-14 0)
(0.574998 -1.40058e-13 0)
(0.574998 -7.68415e-13 0)
(0.574998 1.29811e-12 0)
(0.574998 -5.2734e-11 0)
(0.574998 -5.37637e-11 0)
(0.624999 -3.62452e-11 0)
(0.624999 -4.40725e-11 0)
(0.624999 -5.23982e-12 0)
(0.624999 -5.83207e-13 0)
(0.624999 -5.53346e-13 0)
(0.624999 2.85608e-13 0)
(0.624999 -2.67828e-13 0)
(0.624999 2.03638e-13 0)
(0.624999 -1.56281e-13 0)
(0.624999 1.11854e-13 0)
(0.624999 -7.18023e-14 0)
(0.624999 3.50554e-14 0)
(0.624999 8.95044e-17 0)
(0.624999 -3.6585e-14 0)
(0.624999 5.53022e-14 0)
(0.624999 -1.77034e-13 0)
(0.624999 -6.23566e-13 0)
(0.624999 1.05718e-12 0)
(0.624999 -4.55324e-11 0)
(0.624999 -4.5534e-11 0)
(0.674999 -2.42483e-11 0)
(0.674999 -3.24019e-11 0)
(0.674999 -4.39886e-12 0)
(0.674999 -2.54753e-13 0)
(0.674999 -6.36985e-13 0)
(0.674999 3.80581e-13 0)
(0.674999 -3.37773e-13 0)
(0.674999 2.5905e-13 0)
(0.674999 -1.97454e-13 0)
(0.674999 1.40477e-13 0)
(0.674999 -8.89073e-14 0)
(0.674999 4.13136e-14 0)
(0.674999 4.187e-15 0)
(0.674999 -5.0577e-14 0)
(0.674999 8.16884e-14 0)
(0.674999 -2.03298e-13 0)
(0.674999 -4.61148e-13 0)
(0.674999 7.77529e-13 0)
(0.674999 -3.69741e-11 0)
(0.674999 -3.60158e-11 0)
(0.724999 -1.33108e-11 0)
(0.724999 -2.13958e-11 0)
(0.724999 -3.49081e-12 0)
(0.724999 4.17091e-14 0)
(0.724999 -6.79866e-13 0)
(0.724999 4.45737e-13 0)
(0.724999 -3.82949e-13 0)
(0.724999 2.95293e-13 0)
(0.724999 -2.24157e-13 0)
(0.724999 1.58922e-13 0)
(0.724999 -9.97384e-14 0)
(0.724999 4.49229e-14 0)
(0.724999 7.46789e-15 0)
(0.724999 -6.02823e-14 0)
(0.724999 1.00766e-13 0)
(0.724999 -2.16198e-13 0)
(0.724999 -2.96073e-13 0)
(0.724999 4.90532e-13 0)
(0.724999 -2.78957e-11 0)
(0.724999 -2.61393e-11 0)
(0.774999 -4.49723e-12 0)
(0.774999 -1.21056e-11 0)
(0.774999 -2.60544e-12 0)
(0.774999 2.74875e-13 0)
(0.774999 -6.75425e-13 0)
(0.774999 4.7284e-13 0)
(0.774999 -3.97405e-13 0)
(0.774999 3.07619e-13 0)
(0.774999 -2.32877e-13 0)
(0.774999 1.64755e-13 0)
(0.774999 -1.02825e-13 0)
(0.774999 4.5347e-14 0)
(0.774999 9.57261e-15 0)
(0.774999 -6.44926e-14 0)
(0.774999 1.10246e-13 0)
(0.774999 -2.1345e-13 0)
(0.774999 -1.44428e-13 0)
(0.774999 2.30679e-13 0)
(0.774999 -1.91453e-11 0)
(0.774999 -1.6847e-11 0)
(0.824999 1.36709e-12 0)
(0.824999 -5.30916e-12 0)
(0.824999 -1.80662e-12 0)
(0.824999 4.14369e-13 0)
(0.824999 -6.15711e-13 0)
(0.824999 4.52642e-13 0)
(0.824999 -3.74382e-13 0)
(0.824999 2.90644e-13 0)
(0.824999 -2.1962e-13 0)
(0.824999 1.55174e-13 0)
(0.824999 -9.64876e-14 0)
(0.824999 4.19459e-14 0)
(0.824999 1.01527e-14 0)
(0.824999 -6.19245e-14 0)
(0.824999 1.07642e-13 0)
(0.824999 -1.92693e-13 0)
(0.824999 -2.28119e-14 0)
(0.824999 3.14976e-14 0)
(0.824999 -1.15078e-11 0)
(0.824999 -9.02218e-12 0)
(0.874999 3.91633e-12 0)
(0.874999 -1.27215e-12 0)
(0.874999 -1.12258e-12 0)
(0.874999 4.29497e-13 0)
(0.874999 -4.9043e-13 0)
(0.874999 3.74011e-13 0)
(0.874999 -3.0566e-13 0)
(0.874999 2.37842e-13 0)
(0.874999 -1.79491e-13 0)
(0.874999 1.26733e-13 0)
(0.874999 -7.86156e-14 0)
(0.874999 3.38583e-14 0)
(0.874999 8.87775e-15 0)
(0.874999 -5.11295e-14 0)
(0.874999 9.00874e-14 0)
(0.874999 -1.51477e-13 0)
(0.874999 5.09741e-14 0)
(0.874999 -8.27969e-14 0)
(0.874999 -5.58576e-12 0)
(0.874999 -3.36656e-12 0)
(0.925 3.3891e-12 0)
(0.925 2.71082e-13 0)
(0.925 -5.51672e-13 0)
(0.925 3.09654e-13 0)
(0.925 -2.98884e-13 0)
(0.925 2.34689e-13 0)
(0.925 -1.90023e-13 0)
(0.925 1.48145e-13 0)
(0.925 -1.11701e-13 0)
(0.925 7.88471e-14 0)
(0.925 -4.88463e-14 0)
(0.925 2.09227e-14 0)
(0.925 5.73063e-15 0)
(0.925 -3.19701e-14 0)
(0.925 5.69773e-14 0)
(0.925 -9.08631e-14 0)
(0.925 6.55254e-14 0)
(0.925 -9.43947e-14 0)
(0.925 -1.8e-12 0)
(0.925 -3.39208e-13 0)
(0.975 1.26446e-12 0)
(0.975 2.81345e-13 0)
(0.975 -1.52011e-13 0)
(0.975 1.07013e-13 0)
(0.975 -9.50317e-14 0)
(0.975 7.58312e-14 0)
(0.975 -6.10605e-14 0)
(0.975 4.76613e-14 0)
(0.975 -3.59163e-14 0)
(0.975 2.53497e-14 0)
(0.975 -1.56961e-14 0)
(0.975 6.70772e-15 0)
(0.975 1.87527e-15 0)
(0.975 -1.0296e-14 0)
(0.975 1.84895e-14 0)
(0.975 -2.85491e-14 0)
(0.975 2.74141e-14 0)
(0.975 -4.30489e-14 0)
(0.975 -2.34455e-13 0)
(0.975 2.54807e-13 0)
)
;

boundaryField
{
    top
    {
        type            fixedValue;
        value           uniform (1 0 0);
    }
    bottom
    {
        type            fixedValue;
        value           uniform (0 0 0);
    }
    inlet
    {
        type            zeroGradient;
    }
    outlet
    {
        type            zeroGradient;
    }
    frontAndBack
    {
        type            empty;
    }
}


// ************************************************************************* //
