/*--------------------------------*- C++ -*----------------------------------*\
| =========                 |                                                 |
| \\      /  F ield         | OpenFOAM: The Open Source CFD Toolbox           |
|  \\    /   O peration     | Version:  4.1                                   |
|   \\  /    A nd           | Web:      www.OpenFOAM.org                      |
|    \\/     M anipulation  |                                                 |
\*---------------------------------------------------------------------------*/
FoamFile
{
    version     2.0;
    format      ascii;
    class       volScalarField;
    location    "1.1";
    object      p;
}
// * * * * * * * * * * * * * * * * * * * * * * * * * * * * * * * * * * * * * //

dimensions      [0 2 -2 0 0 0 0];

internalField   nonuniform List<scalar> 
400
(
2.48155e-07
2.69576e-07
2.35642e-07
2.46678e-07
2.21217e-07
2.26818e-07
2.06323e-07
2.07805e-07
1.90937e-07
1.8912e-07
1.75333e-07
1.70593e-07
1.59606e-07
1.5216e-07
1.43825e-07
1.33729e-07
1.28211e-07
1.15441e-07
1.14029e-07
1.11914e-07
2.47266e-07
2.68671e-07
2.35573e-07
2.46662e-07
2.21218e-07
2.26815e-07
2.06325e-07
2.07803e-07
1.90938e-07
1.89119e-07
1.75334e-07
1.70592e-07
1.59606e-07
1.5216e-07
1.43824e-07
1.33729e-07
1.28201e-07
1.15449e-07
1.13409e-07
1.11253e-07
2.46769e-07
2.68029e-07
2.35496e-07
2.4666e-07
2.21209e-07
2.26821e-07
2.06319e-07
2.07807e-07
1.90935e-07
1.89122e-07
1.75332e-07
1.70594e-07
1.59606e-07
1.5216e-07
1.43825e-07
1.33727e-07
1.28194e-07
1.15445e-07
1.12918e-07
1.10799e-07
2.46617e-07
2.67729e-07
2.35422e-07
2.46661e-07
2.21199e-07
2.26828e-07
2.06313e-07
2.07812e-07
1.90931e-07
1.89125e-07
1.75329e-07
1.70595e-07
1.59605e-07
1.5216e-07
1.43825e-07
1.33725e-07
1.28189e-07
1.15432e-07
1.12632e-07
1.10563e-07
2.46672e-07
2.67668e-07
2.35352e-07
2.46661e-07
2.21191e-07
2.26834e-07
2.06309e-07
2.07816e-07
1.90928e-07
1.89127e-07
1.75327e-07
1.70597e-07
1.59604e-07
1.52161e-07
1.43825e-07
1.33723e-07
1.28186e-07
1.15412e-07
1.12504e-07
1.10474e-07
2.46862e-07
2.67767e-07
2.35282e-07
2.46661e-07
2.21184e-07
2.26838e-07
2.06305e-07
2.07819e-07
1.90925e-07
1.89129e-07
1.75326e-07
1.70598e-07
1.59603e-07
1.52161e-07
1.43826e-07
1.33722e-07
1.28183e-07
1.15389e-07
1.12504e-07
1.105e-07
2.47148e-07
2.67978e-07
2.35211e-07
2.46661e-07
2.21179e-07
2.26842e-07
2.06302e-07
2.07822e-07
1.90923e-07
1.89131e-07
1.75325e-07
1.70599e-07
1.59603e-07
1.52161e-07
1.43826e-07
1.33721e-07
1.28182e-07
1.15365e-07
1.1261e-07
1.10621e-07
2.47484e-07
2.68253e-07
2.35136e-07
2.4666e-07
2.21175e-07
2.26845e-07
2.063e-07
2.07824e-07
1.90921e-07
1.89132e-07
1.75324e-07
1.70599e-07
1.59602e-07
1.52161e-07
1.43826e-07
1.3372e-07
1.28181e-07
1.15342e-07
1.12799e-07
1.10813e-07
2.47822e-07
2.68542e-07
2.35059e-07
2.46657e-07
2.21171e-07
2.26846e-07
2.06298e-07
2.07825e-07
1.9092e-07
1.89133e-07
1.75323e-07
1.706e-07
1.59602e-07
1.52161e-07
1.43827e-07
1.3372e-07
1.28181e-07
1.15321e-07
1.13038e-07
1.11042e-07
2.48121e-07
2.68801e-07
2.34979e-07
2.46652e-07
2.21169e-07
2.26847e-07
2.06297e-07
2.07826e-07
1.9092e-07
1.89134e-07
1.75323e-07
1.706e-07
1.59602e-07
1.52161e-07
1.43827e-07
1.3372e-07
1.28181e-07
1.15304e-07
1.13295e-07
1.11277e-07
2.48343e-07
2.68991e-07
2.34899e-07
2.46645e-07
2.21168e-07
2.26847e-07
2.06297e-07
2.07826e-07
1.9092e-07
1.89134e-07
1.75323e-07
1.706e-07
1.59602e-07
1.52161e-07
1.43827e-07
1.3372e-07
1.2818e-07
1.15293e-07
1.13538e-07
1.11486e-07
2.48461e-07
2.69086e-07
2.34818e-07
2.46636e-07
2.21167e-07
2.26846e-07
2.06298e-07
2.07825e-07
1.90921e-07
1.89133e-07
1.75323e-07
1.70599e-07
1.59602e-07
1.52161e-07
1.43827e-07
1.3372e-07
1.28178e-07
1.15286e-07
1.13737e-07
1.11641e-07
2.48455e-07
2.69067e-07
2.3474e-07
2.46624e-07
2.21168e-07
2.26844e-07
2.063e-07
2.07823e-07
1.90922e-07
1.89132e-07
1.75324e-07
1.70599e-07
1.59603e-07
1.52161e-07
1.43827e-07
1.33721e-07
1.28176e-07
1.15285e-07
1.13867e-07
1.11718e-07
2.48323e-07
2.68931e-07
2.34666e-07
2.46611e-07
2.2117e-07
2.26841e-07
2.06302e-07
2.07821e-07
1.90923e-07
1.89131e-07
1.75325e-07
1.70598e-07
1.59603e-07
1.52161e-07
1.43827e-07
1.33721e-07
1.28172e-07
1.15289e-07
1.13909e-07
1.11702e-07
2.4807e-07
2.68686e-07
2.346e-07
2.46595e-07
2.21173e-07
2.26837e-07
2.06306e-07
2.07819e-07
1.90926e-07
1.89129e-07
1.75326e-07
1.70597e-07
1.59604e-07
1.5216e-07
1.43827e-07
1.33722e-07
1.28167e-07
1.15296e-07
1.13854e-07
1.11584e-07
2.47721e-07
2.6836e-07
2.34543e-07
2.46578e-07
2.21177e-07
2.26832e-07
2.0631e-07
2.07816e-07
1.90928e-07
1.89127e-07
1.75328e-07
1.70596e-07
1.59604e-07
1.5216e-07
1.43826e-07
1.33723e-07
1.2816e-07
1.15306e-07
1.13704e-07
1.11367e-07
2.47304e-07
2.6799e-07
2.34497e-07
2.46559e-07
2.21182e-07
2.26826e-07
2.06314e-07
2.07811e-07
1.90932e-07
1.89124e-07
1.7533e-07
1.70595e-07
1.59605e-07
1.5216e-07
1.43826e-07
1.33724e-07
1.28152e-07
1.15317e-07
1.13471e-07
1.11063e-07
2.46881e-07
2.67644e-07
2.34465e-07
2.46539e-07
2.2119e-07
2.26819e-07
2.0632e-07
2.07806e-07
1.90936e-07
1.89121e-07
1.75332e-07
1.70593e-07
1.59606e-07
1.5216e-07
1.43825e-07
1.33725e-07
1.28143e-07
1.15328e-07
1.1318e-07
1.10694e-07
2.46556e-07
2.67389e-07
2.34443e-07
2.46522e-07
2.21196e-07
2.26812e-07
2.06325e-07
2.07802e-07
1.90939e-07
1.89118e-07
1.75334e-07
1.70591e-07
1.59607e-07
1.52159e-07
1.43825e-07
1.33725e-07
1.28133e-07
1.15339e-07
1.12849e-07
1.10296e-07
2.46503e-07
2.67278e-07
2.34417e-07
2.46517e-07
2.21192e-07
2.26815e-07
2.06323e-07
2.07804e-07
1.90937e-07
1.8912e-07
1.75333e-07
1.70592e-07
1.59607e-07
1.5216e-07
1.43825e-07
1.33724e-07
1.28125e-07
1.15347e-07
1.12532e-07
1.09981e-07
)
;

boundaryField
{
    top
    {
        type            zeroGradient;
    }
    bottom
    {
        type            zeroGradient;
    }
    inlet
    {
        type            fixedValue;
        value           uniform 0;
    }
    outlet
    {
        type            fixedValue;
        value           uniform 0;
    }
    frontAndBack
    {
        type            empty;
    }
}


// ************************************************************************* //
