/*--------------------------------*- C++ -*----------------------------------*\
| =========                 |                                                 |
| \\      /  F ield         | OpenFOAM: The Open Source CFD Toolbox           |
|  \\    /   O peration     | Version:  4.1                                   |
|   \\  /    A nd           | Web:      www.OpenFOAM.org                      |
|    \\/     M anipulation  |                                                 |
\*---------------------------------------------------------------------------*/
FoamFile
{
    version     2.0;
    format      ascii;
    class       surfaceScalarField;
    location    "1.1";
    object      phi;
}
// * * * * * * * * * * * * * * * * * * * * * * * * * * * * * * * * * * * * * //

dimensions      [0 3 -1 0 0 0 0];

internalField   nonuniform List<scalar> 
760
(
1.24955e-06
-3.84675e-13
1.24955e-06
-2.55329e-13
1.24955e-06
-3.66431e-17
1.24955e-06
-1.50798e-14
1.24955e-06
1.00877e-14
1.24955e-06
-8.85324e-15
1.24955e-06
7.42056e-15
1.24955e-06
-6.21967e-15
1.24955e-06
5.10457e-15
1.24955e-06
-4.05409e-15
1.24955e-06
3.05299e-15
1.24955e-06
-2.0943e-15
1.24955e-06
1.17198e-15
1.24955e-06
-2.83112e-16
1.24955e-06
-6.50218e-16
1.24955e-06
1.33598e-15
1.24955e-06
-4.72239e-15
1.24955e-06
7.62106e-15
1.24955e-06
-1.56295e-13
-2.37398e-13
3.74867e-06
-1.15819e-12
3.74867e-06
-8.9893e-13
3.74867e-06
-2.51178e-14
3.74867e-06
-3.71398e-14
3.74867e-06
2.11913e-14
3.74867e-06
-1.92248e-14
3.74867e-06
1.60434e-14
3.74867e-06
-1.34768e-14
3.74867e-06
1.10611e-14
3.74867e-06
-8.77495e-15
3.74867e-06
6.59162e-15
3.74867e-06
-4.50144e-15
3.74867e-06
2.49533e-15
3.74867e-06
-5.83426e-16
3.74867e-06
-1.50148e-15
3.74867e-06
2.55961e-15
3.74867e-06
-1.3922e-14
3.74867e-06
2.20552e-14
3.74867e-06
-5.80679e-13
-7.65841e-13
6.24782e-06
-2.08974e-12
6.24782e-06
-1.77769e-12
6.24782e-06
-7.67721e-14
6.24782e-06
-5.76523e-14
6.24782e-06
2.73779e-14
6.24782e-06
-2.59094e-14
6.24782e-06
2.14906e-14
6.24782e-06
-1.80941e-14
6.24782e-06
1.48473e-14
6.24782e-06
-1.17604e-14
6.24782e-06
8.80668e-15
6.24782e-06
-5.98034e-15
6.24782e-06
3.27442e-15
6.24782e-06
-7.29368e-16
6.24782e-06
-2.18155e-15
6.24782e-06
2.89687e-15
6.24782e-06
-2.52017e-14
6.24782e-06
3.99816e-14
6.24782e-06
-1.19832e-12
-1.46421e-12
8.74703e-06
-3.03915e-12
8.74703e-06
-2.73886e-12
8.74703e-06
-1.45617e-13
8.74703e-06
-7.56324e-14
8.74703e-06
2.92654e-14
8.74703e-06
-2.92205e-14
8.74703e-06
2.4034e-14
8.74703e-06
-2.02813e-14
8.74703e-06
1.66321e-14
8.74703e-06
-1.31488e-14
8.74703e-06
9.81098e-15
8.74703e-06
-6.61913e-15
8.74703e-06
3.57014e-15
8.74703e-06
-7.45287e-16
8.74703e-06
-2.68355e-15
8.74703e-06
2.51644e-15
8.74703e-06
-3.75683e-14
8.74703e-06
5.99067e-14
8.74703e-06
-1.91842e-12
-2.24156e-12
1.12463e-05
-3.88581e-12
1.12463e-05
-3.64802e-12
1.12463e-05
-2.21702e-13
1.12463e-05
-9.00106e-14
1.12463e-05
2.75202e-14
1.12463e-05
-2.95109e-14
1.12463e-05
2.39882e-14
1.12463e-05
-2.02894e-14
1.12463e-05
1.66213e-14
1.12463e-05
-1.31089e-14
1.12463e-05
9.74046e-15
1.12463e-05
-6.52155e-15
1.12463e-05
3.45246e-15
1.12463e-05
-6.59573e-16
1.12463e-05
-2.99837e-15
1.12463e-05
1.58519e-15
1.12463e-05
-4.99205e-14
1.12463e-05
8.02961e-14
1.12463e-05
-2.65332e-12
-3.01039e-12
1.37457e-05
-4.53754e-12
1.37457e-05
-4.39863e-12
1.37457e-05
-2.95356e-13
1.37457e-05
-9.98161e-14
1.37457e-05
2.28444e-14
1.37457e-05
-2.71797e-14
1.37457e-05
2.17132e-14
1.37457e-05
-1.84125e-14
1.37457e-05
1.50583e-14
1.37457e-05
-1.18395e-14
1.37457e-05
8.7519e-15
1.37457e-05
-5.8038e-15
1.37457e-05
2.99671e-15
1.37457e-05
-5.00975e-16
1.37457e-05
-3.12064e-15
1.37457e-05
2.63556e-16
1.37457e-05
-6.1164e-14
1.37457e-05
9.95056e-14
1.37457e-05
-3.3234e-12
-3.69156e-12
1.62452e-05
-4.93098e-12
1.62452e-05
-4.91326e-12
1.62452e-05
-3.58035e-13
1.62452e-05
-1.04311e-13
1.62452e-05
1.5961e-14
1.62452e-05
-2.26719e-14
1.62452e-05
1.76118e-14
1.62452e-05
-1.49849e-14
1.62452e-05
1.22205e-14
1.62452e-05
-9.5648e-15
1.62452e-05
7.0193e-15
1.62452e-05
-4.59113e-15
1.62452e-05
2.28044e-15
1.62452e-05
-2.96137e-16
1.62452e-05
-3.05205e-15
1.62452e-05
-1.29664e-15
1.62452e-05
-7.03024e-14
1.62452e-05
1.15832e-13
1.62452e-05
-3.86262e-12
-4.21997e-12
1.87447e-05
-5.03492e-12
1.87447e-05
-5.14763e-12
1.87447e-05
-4.03053e-13
1.87447e-05
-1.03108e-13
1.87447e-05
7.59364e-15
1.87447e-05
-1.64744e-14
1.87447e-05
1.21226e-14
1.87447e-05
-1.03743e-14
1.87447e-05
8.41281e-15
1.87447e-05
-6.5295e-15
1.87447e-05
4.72913e-15
1.87447e-05
-3.01408e-15
1.87447e-05
1.38067e-15
1.87447e-05
-6.77854e-17
1.87447e-05
-2.80389e-15
1.87447e-05
-2.95524e-15
1.87447e-05
-7.65232e-14
1.87447e-05
1.27648e-13
1.87447e-05
-4.22224e-12
-4.54837e-12
2.12445e-05
-4.84876e-12
2.12445e-05
-5.0897e-12
2.12445e-05
-4.26167e-13
2.12445e-05
-9.62514e-14
2.12445e-05
-1.55107e-15
2.12445e-05
-9.10942e-15
2.12445e-05
5.71148e-15
2.12445e-05
-4.97423e-15
2.12445e-05
3.96078e-15
2.12445e-05
-2.9929e-15
2.12445e-05
2.07619e-15
2.12445e-05
-1.2057e-15
2.12445e-05
3.7222e-16
2.12445e-05
1.65881e-16
2.12445e-05
-2.39802e-15
2.12445e-05
-4.58484e-15
2.12445e-05
-7.92666e-14
2.12445e-05
1.33598e-13
2.12445e-05
-4.37337e-12
-4.65015e-12
2.37443e-05
-4.40088e-12
2.37443e-05
-4.75847e-12
2.37443e-05
-4.25877e-13
2.37443e-05
-8.42587e-14
2.37443e-05
-1.07988e-14
2.37443e-05
-1.12621e-15
2.37443e-05
-1.13761e-15
2.37443e-05
8.04995e-16
2.37443e-05
-7.96872e-16
2.37443e-05
7.77083e-16
2.37443e-05
-7.40622e-16
2.37443e-05
7.00833e-16
2.37443e-05
-6.73086e-16
2.37443e-05
3.90937e-16
2.37443e-05
-1.86665e-15
2.37443e-05
-6.07165e-15
2.37443e-05
-7.82757e-14
2.37443e-05
1.32806e-13
2.37443e-05
-4.30804e-12
-4.52054e-12
2.62443e-05
-3.74429e-12
2.62443e-05
-4.1998e-12
2.62443e-05
-4.03433e-13
2.62443e-05
-6.81154e-14
2.62443e-05
-1.95196e-14
2.62443e-05
6.90942e-15
2.62443e-05
-7.93404e-15
2.62443e-05
6.54632e-15
2.62443e-05
-5.51664e-15
2.62443e-05
4.50998e-15
2.62443e-05
-3.52205e-15
2.62443e-05
2.57398e-15
2.62443e-05
-1.68664e-15
2.62443e-05
5.96761e-16
2.62443e-05
-1.25105e-15
2.62443e-05
-7.31566e-15
2.62443e-05
-7.36232e-14
2.62443e-05
1.25064e-13
2.62443e-05
-4.03871e-12
-4.17633e-12
2.87445e-05
-2.95085e-12
2.87445e-05
-3.48047e-12
2.87445e-05
-3.62536e-13
2.87445e-05
-4.9221e-14
2.87445e-05
-2.71352e-14
2.87445e-05
1.44268e-14
2.87445e-05
-1.41917e-14
2.87445e-05
1.1836e-14
2.87445e-05
-9.85851e-15
2.87445e-05
7.93875e-15
2.87445e-05
-6.07214e-15
2.87445e-05
4.28529e-15
2.87445e-05
-2.60266e-15
2.87445e-05
7.74597e-16
2.87445e-05
-5.99436e-16
2.87445e-05
-8.23096e-15
2.87445e-05
-6.57113e-14
2.87445e-05
1.10952e-13
2.87445e-05
-3.5962e-12
-3.65374e-12
3.12447e-05
-2.10448e-12
3.12447e-05
-2.68103e-12
3.12447e-05
-3.08701e-13
3.12447e-05
-2.92917e-14
3.12447e-05
-3.3121e-14
3.12447e-05
2.08628e-14
3.12447e-05
-1.94401e-14
3.12447e-05
1.62738e-14
3.12447e-05
-1.34939e-14
3.12447e-05
1.08055e-14
3.12447e-05
-8.20155e-15
3.12447e-05
5.71054e-15
3.12447e-05
-3.35774e-15
3.12447e-05
9.15912e-16
3.12447e-05
3.55101e-17
3.12447e-05
-8.74635e-15
3.12447e-05
-5.52454e-14
3.12447e-05
9.18413e-14
3.12447e-05
-3.02659e-12
-3.0053e-12
3.37452e-05
-1.29181e-12
3.37452e-05
-1.88589e-12
3.37452e-05
-2.48422e-13
3.37452e-05
-1.02266e-14
3.37452e-05
-3.70028e-14
3.37452e-05
2.56734e-14
3.37452e-05
-2.32344e-14
3.37452e-05
1.94819e-14
3.37452e-05
-1.61133e-14
3.37452e-05
1.28667e-14
3.37452e-05
-9.73054e-15
3.37452e-05
6.73082e-15
3.37452e-05
-3.89023e-15
3.37452e-05
1.01099e-15
3.37452e-05
5.99285e-16
3.37452e-05
-8.80655e-15
3.37452e-05
-4.31806e-14
3.37452e-05
6.98038e-14
3.37452e-05
-2.38606e-12
-2.29439e-12
3.62457e-05
-5.94819e-13
3.62457e-05
-1.17508e-12
3.62457e-05
-1.88091e-13
3.62457e-05
6.04047e-15
3.62457e-05
-3.83492e-14
3.62457e-05
2.83445e-14
3.62457e-05
-2.51637e-14
3.62457e-05
2.11128e-14
3.62457e-05
-1.74321e-14
3.62457e-05
1.38978e-14
3.62457e-05
-1.04919e-14
3.62457e-05
7.23368e-15
3.62457e-05
-4.14016e-15
3.62457e-05
1.04787e-15
3.62457e-05
1.03783e-15
3.62457e-05
-8.37398e-15
3.62457e-05
-3.06487e-14
3.62457e-05
4.73469e-14
3.62457e-05
-1.73629e-12
-1.59022e-12
3.87463e-05
-7.79681e-14
3.87463e-05
-6.10759e-13
3.87463e-05
-1.33046e-13
3.87463e-05
1.76992e-14
3.87463e-05
-3.67602e-14
3.87463e-05
2.84e-14
3.87463e-05
-2.48572e-14
3.87463e-05
2.08554e-14
3.87463e-05
-1.71962e-14
3.87463e-05
1.36972e-14
3.87463e-05
-1.03333e-14
3.87463e-05
7.11435e-15
3.87463e-05
-4.04941e-15
3.87463e-05
1.01207e-15
3.87463e-05
1.29917e-15
3.87463e-05
-7.43137e-15
3.87463e-05
-1.88673e-14
3.87463e-05
2.71115e-14
3.87463e-05
-1.1362e-12
-9.59168e-13
4.1247e-05
2.15914e-13
4.1247e-05
-2.32172e-13
4.1247e-05
-8.64863e-14
4.1247e-05
2.31861e-14
4.1247e-05
-3.1856e-14
4.1247e-05
2.5409e-14
4.1247e-05
-2.19889e-14
4.1247e-05
1.84399e-14
4.1247e-05
-1.51865e-14
4.1247e-05
1.20898e-14
4.1247e-05
-9.12028e-15
4.1247e-05
6.27781e-15
4.1247e-05
-3.56297e-15
4.1247e-05
8.87066e-16
4.1247e-05
1.33449e-15
4.1247e-05
-5.98444e-15
4.1247e-05
-9.04597e-15
4.1247e-05
1.13881e-14
4.1247e-05
-6.38299e-13
-4.60384e-13
4.37478e-05
2.83926e-13
4.37478e-05
-3.71471e-14
4.37478e-05
-4.90764e-14
4.37478e-05
2.12832e-14
4.37478e-05
-2.32639e-14
4.37478e-05
1.89877e-14
4.37478e-05
-1.62776e-14
4.37478e-05
1.36384e-14
4.37478e-05
-1.12194e-14
4.37478e-05
8.92863e-15
4.37478e-05
-6.73787e-15
4.37478e-05
4.6402e-15
4.37478e-05
-2.63021e-15
4.37478e-05
6.55478e-16
4.37478e-05
1.09785e-15
4.37478e-05
-4.0651e-15
4.37478e-05
-2.29264e-15
4.37478e-05
1.78516e-15
4.37478e-05
-2.76273e-13
-1.32957e-13
4.62487e-05
1.57219e-13
4.62487e-05
1.24693e-14
4.62487e-05
-1.85364e-14
4.62487e-05
1.11205e-14
4.62487e-05
-1.06015e-14
4.62487e-05
8.79362e-15
4.62487e-05
-7.48093e-15
4.62487e-05
6.26141e-15
4.62487e-05
-5.14536e-15
4.62487e-05
4.09371e-15
4.62487e-05
-3.09071e-15
4.62487e-05
2.13008e-15
4.62487e-05
-1.20677e-15
4.62487e-05
3.01348e-16
4.62487e-05
5.44952e-16
4.62487e-05
-1.73127e-15
4.62487e-05
4.60678e-16
4.62487e-05
-1.27997e-15
4.62487e-05
-6.64559e-14
3.23884e-15
4.87496e-05
4.87496e-05
4.87496e-05
4.87496e-05
4.87496e-05
4.87496e-05
4.87496e-05
4.87496e-05
4.87496e-05
4.87496e-05
4.87496e-05
4.87496e-05
4.87496e-05
4.87496e-05
4.87496e-05
4.87496e-05
4.87496e-05
4.87496e-05
4.87496e-05
)
;

boundaryField
{
    top
    {
        type            calculated;
        value           uniform 0;
    }
    bottom
    {
        type            calculated;
        value           uniform 0;
    }
    inlet
    {
        type            calculated;
        value           nonuniform List<scalar> 
20
(
-1.24955e-06
-3.74867e-06
-6.24782e-06
-8.74703e-06
-1.12463e-05
-1.37457e-05
-1.62452e-05
-1.87447e-05
-2.12445e-05
-2.37443e-05
-2.62443e-05
-2.87445e-05
-3.12447e-05
-3.37452e-05
-3.62457e-05
-3.87463e-05
-4.1247e-05
-4.37478e-05
-4.62487e-05
-4.87496e-05
)
;
    }
    outlet
    {
        type            calculated;
        value           nonuniform List<scalar> 
20
(
1.24955e-06
3.74867e-06
6.24782e-06
8.74703e-06
1.12463e-05
1.37457e-05
1.62452e-05
1.87447e-05
2.12445e-05
2.37443e-05
2.62443e-05
2.87445e-05
3.12447e-05
3.37452e-05
3.62457e-05
3.87463e-05
4.1247e-05
4.37478e-05
4.62487e-05
4.87496e-05
)
;
    }
    frontAndBack
    {
        type            empty;
        value           nonuniform 0();
    }
}


// ************************************************************************* //
