/*--------------------------------*- C++ -*----------------------------------*\
| =========                 |                                                 |
| \\      /  F ield         | OpenFOAM: The Open Source CFD Toolbox           |
|  \\    /   O peration     | Version:  4.1                                   |
|   \\  /    A nd           | Web:      www.OpenFOAM.org                      |
|    \\/     M anipulation  |                                                 |
\*---------------------------------------------------------------------------*/
FoamFile
{
    version     2.0;
    format      ascii;
    class       volVectorField;
    location    "1.1";
    object      U;
}
// * * * * * * * * * * * * * * * * * * * * * * * * * * * * * * * * * * * * * //

dimensions      [0 1 -1 0 0 0 0];

internalField   nonuniform List<vector> 
400
(
(0.024991 -1.70866e-10 0)
(0.024991 -1.01636e-10 0)
(0.024991 2.27875e-12 0)
(0.024991 -7.48174e-12 0)
(0.024991 5.30075e-12 0)
(0.024991 -4.60645e-12 0)
(0.024991 3.8685e-12 0)
(0.024991 -3.24103e-12 0)
(0.024991 2.66077e-12 0)
(0.024991 -2.11456e-12 0)
(0.024991 1.59417e-12 0)
(0.024991 -1.09568e-12 0)
(0.024991 6.15793e-13 0)
(0.024991 -1.5161e-13 0)
(0.024991 -3.29294e-13 0)
(0.024991 7.16169e-13 0)
(0.024991 -2.14167e-12 0)
(0.024991 3.07477e-12 0)
(0.024991 -5.81633e-11 0)
(0.0249911 -9.9153e-11 0)
(0.0749734 -7.18851e-10 0)
(0.0749734 -5.14543e-10 0)
(0.0749734 -6.25385e-12 0)
(0.0749734 -2.56041e-11 0)
(0.0749734 1.6168e-11 0)
(0.0749734 -1.43582e-11 0)
(0.0749734 1.20168e-11 0)
(0.0749734 -1.00817e-11 0)
(0.0749734 8.27493e-12 0)
(0.0749734 -6.56956e-12 0)
(0.0749734 4.94276e-12 0)
(0.0749734 -3.38499e-12 0)
(0.0749734 1.88771e-12 0)
(0.0749734 -4.50949e-13 0)
(0.0749734 -1.07877e-12 0)
(0.0749734 2.07397e-12 0)
(0.0749734 -8.62059e-12 0)
(0.0749734 1.41538e-11 0)
(0.0749734 -3.20726e-10 0)
(0.0749734 -4.54932e-10 0)
(0.124956 -1.59163e-09 0)
(0.124956 -1.29305e-09 0)
(0.124956 -4.57225e-11 0)
(0.124956 -4.74517e-11 0)
(0.124956 2.50757e-11 0)
(0.124956 -2.31427e-11 0)
(0.124956 1.92696e-11 0)
(0.124956 -1.62043e-11 0)
(0.124956 1.32997e-11 0)
(0.124956 -1.05444e-11 0)
(0.124956 7.91053e-12 0)
(0.124956 -5.38945e-12 0)
(0.124956 2.97264e-12 0)
(0.124956 -6.82318e-13 0)
(0.124956 -1.86329e-12 0)
(0.124956 2.87386e-12 0)
(0.124956 -1.90632e-11 0)
(0.124956 2.98597e-11 0)
(0.124956 -8.49863e-10 0)
(0.124956 -1.07817e-09 0)
(0.174941 -2.57047e-09 0)
(0.174941 -2.24948e-09 0)
(0.174941 -1.07765e-10 0)
(0.174941 -6.73591e-11 0)
(0.174941 2.93288e-11 0)
(0.174941 -2.83687e-11 0)
(0.174941 2.34536e-11 0)
(0.174941 -1.97675e-11 0)
(0.174941 1.62174e-11 0)
(0.174941 -1.28353e-11 0)
(0.174941 9.59664e-12 0)
(0.174941 -6.4985e-12 0)
(0.174941 3.53563e-12 0)
(0.174941 -7.66938e-13 0)
(0.174941 -2.47755e-12 0)
(0.174941 2.86886e-12 0)
(0.174941 -3.12152e-11 0)
(0.174941 4.94987e-11 0)
(0.174941 -1.54123e-09 0)
(0.174941 -1.84142e-09 0)
(0.224926 -3.49899e-09 0)
(0.224926 -3.21836e-09 0)
(0.224926 -1.82958e-10 0)
(0.224926 -8.38799e-11 0)
(0.224926 2.92565e-11 0)
(0.224926 -3.0106e-11 0)
(0.224926 2.46436e-11 0)
(0.224926 -2.08187e-11 0)
(0.224926 1.7066e-11 0)
(0.224926 -1.34777e-11 0)
(0.224926 1.00374e-11 0)
(0.224926 -6.74855e-12 0)
(0.224926 3.61013e-12 0)
(0.224926 -7.25572e-13 0)
(0.224926 -2.8907e-12 0)
(0.224926 2.17267e-12 0)
(0.224926 -4.38907e-11 0)
(0.224926 7.00452e-11 0)
(0.224926 -2.29164e-09 0)
(0.224926 -2.63767e-09 0)
(0.274914 -4.26758e-09 0)
(0.274914 -4.07169e-09 0)
(0.274914 -2.60235e-10 0)
(0.274914 -9.61496e-11 0)
(0.274914 2.58328e-11 0)
(0.274914 -2.89513e-11 0)
(0.274914 2.33635e-11 0)
(0.274914 -1.97854e-11 0)
(0.274914 1.61973e-11 0)
(0.274914 -1.27568e-11 0)
(0.274914 9.4563e-12 0)
(0.274914 -6.30358e-12 0)
(0.274914 3.30016e-12 0)
(0.274914 -5.95259e-13 0)
(0.274914 -3.108e-12 0)
(0.274914 1.00229e-12 0)
(0.274914 -5.59421e-11 0)
(0.274914 9.02735e-11 0)
(0.274914 -3.01244e-09 0)
(0.274914 -3.38064e-09 0)
(0.324903 -4.80171e-09 0)
(0.324903 -4.71943e-09 0)
(0.324903 -3.30384e-10 0)
(0.324903 -1.03432e-10 0)
(0.324903 1.98619e-11 0)
(0.324903 -2.54069e-11 0)
(0.324903 2.0063e-11 0)
(0.324903 -1.70393e-11 0)
(0.324903 1.39191e-11 0)
(0.324903 -1.09221e-11 0)
(0.324903 8.04759e-12 0)
(0.324903 -5.30426e-12 0)
(0.324903 2.6936e-12 0)
(0.324903 -4.06974e-13 0)
(0.324903 -3.13266e-12 0)
(0.324903 -4.76033e-13 0)
(0.324903 -6.63544e-11 0)
(0.324903 1.08475e-10 0)
(0.324903 -3.63119e-09 0)
(0.324903 -3.99922e-09 0)
(0.374895 -5.05441e-09 0)
(0.374895 -5.10103e-09 0)
(0.374895 -3.85661e-10 0)
(0.374895 -1.05127e-10 0)
(0.374895 1.20582e-11 0)
(0.374895 -1.99294e-11 0)
(0.374895 1.51555e-11 0)
(0.374895 -1.29257e-11 0)
(0.374895 1.05181e-11 0)
(0.374895 -8.20452e-12 0)
(0.374895 5.98888e-12 0)
(0.374895 -3.87668e-12 0)
(0.374895 1.86672e-12 0)
(0.374895 -1.85258e-13 0)
(0.374895 -2.97018e-12 0)
(0.374895 -2.11801e-12 0)
(0.374895 -7.42051e-11 0)
(0.374895 1.22957e-10 0)
(0.374895 -4.0902e-09 0)
(0.374895 -4.4368e-09 0)
(0.424889 -5.00999e-09 0)
(0.424889 -5.18858e-09 0)
(0.424889 -4.20498e-10 0)
(0.424889 -1.01036e-10 0)
(0.424889 3.12955e-12 0)
(0.424889 -1.30152e-11 0)
(0.424889 9.08727e-12 0)
(0.424889 -7.82051e-12 0)
(0.424889 6.30564e-12 0)
(0.424889 -4.85304e-12 0)
(0.424889 3.46841e-12 0)
(0.424889 -2.15091e-12 0)
(0.424889 8.9443e-13 0)
(0.424889 4.9726e-14 0)
(0.424889 -2.63641e-12 0)
(0.424889 -3.79145e-12 0)
(0.424889 -7.87909e-11 0)
(0.424889 1.32163e-10 0)
(0.424889 -4.35016e-09 0)
(0.424889 -4.65586e-09 0)
(0.474887 -4.68295e-09 0)
(0.474887 -4.98611e-09 0)
(0.474887 -4.31972e-10 0)
(0.474887 -9.14294e-11 0)
(0.474887 -6.23087e-12 0)
(0.474887 -5.20168e-12 0)
(0.474887 2.33516e-12 0)
(0.474887 -2.12727e-12 0)
(0.474887 1.61538e-12 0)
(0.474887 -1.13236e-12 0)
(0.474887 6.83718e-13 0)
(0.474887 -2.60374e-13 0)
(0.474887 -1.49951e-13 0)
(0.474887 2.82105e-13 0)
(0.474887 -2.1585e-12 0)
(0.474887 -5.37571e-12 0)
(0.474887 -7.96922e-11 0)
(0.474887 1.34921e-10 0)
(0.474887 -4.39252e-09 0)
(0.474887 -4.64051e-09 0)
(0.524887 -4.11529e-09 0)
(0.524887 -4.52731e-09 0)
(0.524887 -4.19988e-10 0)
(0.524887 -7.70678e-11 0)
(0.524887 -1.53673e-11 0)
(0.524887 2.9501e-12 0)
(0.524887 -4.61009e-12 0)
(0.524887 3.73718e-12 0)
(0.524887 -3.20903e-12 0)
(0.524887 2.68645e-12 0)
(0.524887 -2.16489e-12 0)
(0.524887 1.66198e-12 0)
(0.524887 -1.19613e-12 0)
(0.524887 4.99893e-13 0)
(0.524887 -1.57368e-12 0)
(0.524887 -6.76376e-12 0)
(0.524887 -7.68135e-11 0)
(0.524887 1.30645e-10 0)
(0.524887 -4.21984e-09 0)
(0.524887 -4.39705e-09 0)
(0.574889 -3.37102e-09 0)
(0.574889 -3.87012e-09 0)
(0.574889 -3.87139e-10 0)
(0.574889 -5.91623e-11 0)
(0.574889 -2.36738e-11 0)
(0.574889 1.08684e-11 0)
(0.574889 -1.12568e-11 0)
(0.574889 9.35456e-12 0)
(0.574889 -7.82349e-12 0)
(0.574889 6.33291e-12 0)
(0.574889 -4.87878e-12 0)
(0.574889 3.48571e-12 0)
(0.574889 -2.17695e-12 0)
(0.574889 6.93775e-13 0)
(0.574889 -9.27323e-13 0)
(0.574889 -7.86251e-12 0)
(0.574889 -7.03955e-11 0)
(0.574889 1.19501e-10 0)
(0.574889 -3.85441e-09 0)
(0.574889 -3.95266e-09 0)
(0.624895 -2.53008e-09 0)
(0.624895 -3.09039e-09 0)
(0.624895 -3.38218e-10 0)
(0.624895 -3.93006e-11 0)
(0.624895 -3.0598e-11 0)
(0.624895 1.79824e-11 0)
(0.624895 -1.71235e-11 0)
(0.624895 1.43149e-11 0)
(0.624895 -1.18913e-11 0)
(0.624895 9.54283e-12 0)
(0.624895 -7.26422e-12 0)
(0.624895 5.08402e-12 0)
(0.624895 -3.02787e-12 0)
(0.624895 8.55475e-13 0)
(0.624895 -2.70597e-13 0)
(0.624895 -8.59313e-12 0)
(0.624895 -6.10017e-11 0)
(0.624895 1.02473e-10 0)
(0.624895 -3.33573e-09 0)
(0.624895 -3.35282e-09 0)
(0.674903 -1.67976e-09 0)
(0.674903 -2.27277e-09 0)
(0.674903 -2.79476e-10 0)
(0.674903 -1.93252e-11 0)
(0.674903 -3.5643e-11 0)
(0.674903 2.37366e-11 0)
(0.674903 -2.17507e-11 0)
(0.674903 1.82276e-11 0)
(0.674903 -1.50922e-11 0)
(0.674903 1.20647e-11 0)
(0.674903 -9.13629e-12 0)
(0.674903 6.33532e-12 0)
(0.674903 -3.68658e-12 0)
(0.674903 9.76224e-13 0)
(0.674903 3.42314e-13 0)
(0.674903 -8.89232e-12 0)
(0.674903 -4.94786e-11 0)
(0.674903 8.13254e-11 0)
(0.674903 -2.71616e-09 0)
(0.674903 -2.65675e-09 0)
(0.724914 -9.06822e-10 0)
(0.724914 -1.50233e-09 0)
(0.724914 -2.1764e-10 0)
(0.724914 -1.17702e-12 0)
(0.724914 -3.83699e-11 0)
(0.724914 2.76094e-11 0)
(0.724914 -2.47172e-11 0)
(0.724914 2.07353e-11 0)
(0.724914 -1.71334e-11 0)
(0.724914 1.3668e-11 0)
(0.724914 -1.03243e-11 0)
(0.724914 7.12597e-12 0)
(0.724914 -4.09361e-12 0)
(0.724914 1.04571e-12 0)
(0.724914 8.57283e-13 0)
(0.724914 -8.7147e-12 0)
(0.724914 -3.68869e-11 0)
(0.724914 5.84183e-11 0)
(0.724914 -2.05628e-09 0)
(0.724914 -1.93248e-09 0)
(0.774926 -2.86514e-10 0)
(0.774926 -8.52558e-10 0)
(0.774926 -1.58863e-10 0)
(0.774926 1.32531e-11 0)
(0.774926 -3.83788e-11 0)
(0.774926 2.91144e-11 0)
(0.774926 -2.56396e-11 0)
(0.774926 2.15146e-11 0)
(0.774926 -1.77504e-11 0)
(0.774926 1.41433e-11 0)
(0.774926 -1.06713e-11 0)
(0.774926 7.34946e-12 0)
(0.774926 -4.19113e-12 0)
(0.774926 1.05103e-12 0)
(0.774926 1.22183e-12 0)
(0.774926 -8.03352e-12 0)
(0.774926 -2.44179e-11 0)
(0.774926 3.64186e-11 0)
(0.774926 -1.41776e-09 0)
(0.774926 -1.24923e-09 0)
(0.824941 1.22932e-10 0)
(0.824941 -3.77535e-10 0)
(0.824941 -1.07437e-10 0)
(0.824941 2.21624e-11 0)
(0.824941 -3.51862e-11 0)
(0.824941 2.77185e-11 0)
(0.824941 -2.41013e-11 0)
(0.824941 2.02175e-11 0)
(0.824941 -1.66591e-11 0)
(0.824941 1.32645e-11 0)
(0.824941 -1.00053e-11 0)
(0.824941 6.88608e-12 0)
(0.824941 -3.91127e-12 0)
(0.824941 9.73566e-13 0)
(0.824941 1.38099e-12 0)
(0.824941 -6.82576e-12 0)
(0.824941 -1.3303e-11 0)
(0.824941 1.79452e-11 0)
(0.824941 -8.57855e-10 0)
(0.824941 -6.72091e-10 0)
(0.874956 2.9594e-10 0)
(0.874956 -9.50445e-11 0)
(0.874956 -6.51009e-11 0)
(0.874956 2.37539e-11 0)
(0.874956 -2.81639e-11 0)
(0.874956 2.27904e-11 0)
(0.874956 -1.9614e-11 0)
(0.874956 1.64421e-11 0)
(0.874956 -1.35326e-11 0)
(0.874956 1.07707e-11 0)
(0.874956 -8.12585e-12 0)
(0.874956 5.59373e-12 0)
(0.874956 -3.17113e-12 0)
(0.874956 7.88695e-13 0)
(0.874956 1.27004e-12 0)
(0.874956 -5.08213e-12 0)
(0.874956 -4.85443e-12 0)
(0.874956 4.922e-12 0)
(0.874956 -4.20947e-10 0)
(0.874956 -2.53097e-10 0)
(0.924973 2.50064e-10 0)
(0.924973 1.42814e-11 0)
(0.924973 -3.13009e-11 0)
(0.924973 1.74097e-11 0)
(0.924973 -1.72336e-11 0)
(0.924973 1.42324e-11 0)
(0.924973 -1.21423e-11 0)
(0.924973 1.01679e-11 0)
(0.924973 -8.35933e-12 0)
(0.924973 6.65147e-12 0)
(0.924973 -5.02072e-12 0)
(0.924973 3.45896e-12 0)
(0.924973 -1.95977e-12 0)
(0.924973 4.88547e-13 0)
(0.924973 8.60391e-13 0)
(0.924973 -2.89594e-12 0)
(0.924973 -7.7126e-14 0)
(0.924973 -9.39991e-13 0)
(0.924973 -1.38419e-10 0)
(0.924973 -2.65547e-11 0)
(0.974991 9.24532e-11 0)
(0.974991 1.79371e-11 0)
(0.974991 -8.49361e-12 0)
(0.974991 6.05274e-12 0)
(0.974991 -5.49142e-12 0)
(0.974991 4.58364e-12 0)
(0.974991 -3.88959e-12 0)
(0.974991 3.25566e-12 0)
(0.974991 -2.67492e-12 0)
(0.974991 2.12833e-12 0)
(0.974991 -1.60726e-12 0)
(0.974991 1.10812e-12 0)
(0.974991 -6.27951e-13 0)
(0.974991 1.57581e-13 0)
(0.974991 2.89286e-13 0)
(0.974991 -8.80071e-13 0)
(0.974991 5.38028e-13 0)
(0.974991 -1.43929e-12 0)
(0.974991 -1.91102e-11 0)
(0.974991 1.88652e-11 0)
)
;

boundaryField
{
    top
    {
        type            fixedValue;
        value           uniform (1 0 0);
    }
    bottom
    {
        type            fixedValue;
        value           uniform (0 0 0);
    }
    inlet
    {
        type            zeroGradient;
    }
    outlet
    {
        type            zeroGradient;
    }
    frontAndBack
    {
        type            empty;
    }
}


// ************************************************************************* //
