/*--------------------------------*- C++ -*----------------------------------*\
| =========                 |                                                 |
| \\      /  F ield         | OpenFOAM: The Open Source CFD Toolbox           |
|  \\    /   O peration     | Version:  4.1                                   |
|   \\  /    A nd           | Web:      www.OpenFOAM.org                      |
|    \\/     M anipulation  |                                                 |
\*---------------------------------------------------------------------------*/
FoamFile
{
    version     2.0;
    format      ascii;
    class       volScalarField;
    location    "1.2";
    object      p;
}
// * * * * * * * * * * * * * * * * * * * * * * * * * * * * * * * * * * * * * //

dimensions      [0 2 -2 0 0 0 0];

internalField   nonuniform List<scalar> 
400
(
1.73136e-07
1.89779e-07
1.64664e-07
1.73423e-07
1.5491e-07
1.59188e-07
1.44754e-07
1.45673e-07
1.34107e-07
1.32528e-07
1.23196e-07
1.19562e-07
1.12175e-07
1.06647e-07
1.01161e-07
9.36732e-08
9.03161e-08
8.07507e-08
8.04586e-08
7.80338e-08
1.72512e-07
1.89142e-07
1.64615e-07
1.73412e-07
1.54911e-07
1.59186e-07
1.44755e-07
1.45672e-07
1.34108e-07
1.32527e-07
1.23196e-07
1.19562e-07
1.12175e-07
1.06647e-07
1.01161e-07
9.36729e-08
9.03092e-08
8.07554e-08
8.00302e-08
7.75792e-08
1.72162e-07
1.8869e-07
1.64559e-07
1.7341e-07
1.54904e-07
1.5919e-07
1.44751e-07
1.45675e-07
1.34105e-07
1.32529e-07
1.23195e-07
1.19563e-07
1.12175e-07
1.06647e-07
1.01161e-07
9.36714e-08
9.03051e-08
8.0752e-08
7.96932e-08
7.72683e-08
1.72053e-07
1.88478e-07
1.64506e-07
1.73411e-07
1.54896e-07
1.59195e-07
1.44747e-07
1.45678e-07
1.34102e-07
1.32531e-07
1.23194e-07
1.19564e-07
1.12174e-07
1.06647e-07
1.01162e-07
9.36698e-08
9.03025e-08
8.07418e-08
7.94985e-08
7.7109e-08
1.7209e-07
1.88434e-07
1.64455e-07
1.73411e-07
1.5489e-07
1.59199e-07
1.44743e-07
1.45681e-07
1.341e-07
1.32533e-07
1.23192e-07
1.19565e-07
1.12174e-07
1.06647e-07
1.01162e-07
9.36685e-08
9.03007e-08
8.07279e-08
7.94151e-08
7.70525e-08
1.72222e-07
1.88502e-07
1.64405e-07
1.73411e-07
1.54886e-07
1.59203e-07
1.44741e-07
1.45683e-07
1.34099e-07
1.32534e-07
1.23191e-07
1.19565e-07
1.12173e-07
1.06647e-07
1.01163e-07
9.36675e-08
9.02996e-08
8.0712e-08
7.94208e-08
7.70765e-08
1.72421e-07
1.88649e-07
1.64353e-07
1.7341e-07
1.54881e-07
1.59205e-07
1.44739e-07
1.45685e-07
1.34097e-07
1.32535e-07
1.23191e-07
1.19566e-07
1.12173e-07
1.06647e-07
1.01163e-07
9.36667e-08
9.0299e-08
8.06954e-08
7.95012e-08
7.71672e-08
1.72655e-07
1.8884e-07
1.643e-07
1.73409e-07
1.54878e-07
1.59207e-07
1.44737e-07
1.45686e-07
1.34096e-07
1.32536e-07
1.2319e-07
1.19566e-07
1.12173e-07
1.06647e-07
1.01163e-07
9.36662e-08
9.02989e-08
8.06796e-08
7.96386e-08
7.73063e-08
1.72891e-07
1.89041e-07
1.64244e-07
1.73407e-07
1.54875e-07
1.59208e-07
1.44736e-07
1.45687e-07
1.34095e-07
1.32536e-07
1.2319e-07
1.19567e-07
1.12173e-07
1.06647e-07
1.01163e-07
9.36659e-08
9.0299e-08
8.06658e-08
7.98114e-08
7.7472e-08
1.731e-07
1.89221e-07
1.64187e-07
1.73403e-07
1.54874e-07
1.59209e-07
1.44735e-07
1.45687e-07
1.34095e-07
1.32537e-07
1.23189e-07
1.19567e-07
1.12173e-07
1.06647e-07
1.01164e-07
9.36658e-08
9.0299e-08
8.06549e-08
7.99968e-08
7.76415e-08
1.73254e-07
1.89353e-07
1.64129e-07
1.73398e-07
1.54873e-07
1.59209e-07
1.44735e-07
1.45687e-07
1.34095e-07
1.32537e-07
1.23189e-07
1.19567e-07
1.12173e-07
1.06647e-07
1.01164e-07
9.36659e-08
9.02987e-08
8.06475e-08
8.01718e-08
7.77929e-08
1.73336e-07
1.89417e-07
1.64071e-07
1.73391e-07
1.54872e-07
1.59208e-07
1.44736e-07
1.45687e-07
1.34096e-07
1.32536e-07
1.2319e-07
1.19566e-07
1.12173e-07
1.06647e-07
1.01164e-07
9.36663e-08
9.02978e-08
8.06439e-08
8.03159e-08
7.79065e-08
1.73331e-07
1.89402e-07
1.64016e-07
1.73382e-07
1.54873e-07
1.59207e-07
1.44737e-07
1.45686e-07
1.34096e-07
1.32536e-07
1.2319e-07
1.19566e-07
1.12173e-07
1.06647e-07
1.01164e-07
9.36668e-08
9.02962e-08
8.06437e-08
8.04113e-08
7.79658e-08
1.73237e-07
1.89304e-07
1.63963e-07
1.73371e-07
1.54874e-07
1.59204e-07
1.44739e-07
1.45685e-07
1.34097e-07
1.32535e-07
1.23191e-07
1.19566e-07
1.12173e-07
1.06647e-07
1.01164e-07
9.36674e-08
9.02936e-08
8.06467e-08
8.04455e-08
7.79598e-08
1.73059e-07
1.89131e-07
1.63915e-07
1.7336e-07
1.54876e-07
1.59201e-07
1.44741e-07
1.45683e-07
1.34099e-07
1.32534e-07
1.23192e-07
1.19565e-07
1.12174e-07
1.06647e-07
1.01163e-07
9.36682e-08
9.02901e-08
8.0652e-08
8.04114e-08
7.78826e-08
1.72813e-07
1.88899e-07
1.63874e-07
1.73347e-07
1.54879e-07
1.59198e-07
1.44744e-07
1.4568e-07
1.34101e-07
1.32532e-07
1.23193e-07
1.19564e-07
1.12174e-07
1.06647e-07
1.01163e-07
9.36689e-08
9.02857e-08
8.0659e-08
8.0311e-08
7.77368e-08
1.7252e-07
1.88637e-07
1.63841e-07
1.73333e-07
1.54883e-07
1.59193e-07
1.44747e-07
1.45678e-07
1.34103e-07
1.32531e-07
1.23194e-07
1.19564e-07
1.12175e-07
1.06647e-07
1.01163e-07
9.36698e-08
9.02803e-08
8.06669e-08
8.01523e-08
7.75297e-08
1.72222e-07
1.88392e-07
1.63818e-07
1.73318e-07
1.54888e-07
1.59188e-07
1.44752e-07
1.45674e-07
1.34106e-07
1.32528e-07
1.23196e-07
1.19563e-07
1.12175e-07
1.06647e-07
1.01162e-07
9.36708e-08
9.0274e-08
8.06748e-08
7.99536e-08
7.72781e-08
1.71993e-07
1.8821e-07
1.63802e-07
1.73305e-07
1.54893e-07
1.59183e-07
1.44755e-07
1.45671e-07
1.34108e-07
1.32527e-07
1.23197e-07
1.19562e-07
1.12175e-07
1.06647e-07
1.01161e-07
9.36714e-08
9.02672e-08
8.0682e-08
7.97278e-08
7.70072e-08
1.71954e-07
1.88129e-07
1.63781e-07
1.73301e-07
1.5489e-07
1.59184e-07
1.44754e-07
1.45672e-07
1.34107e-07
1.32527e-07
1.23196e-07
1.19562e-07
1.12175e-07
1.06647e-07
1.01161e-07
9.36705e-08
9.02622e-08
8.0686e-08
7.9513e-08
7.67946e-08
)
;

boundaryField
{
    top
    {
        type            zeroGradient;
    }
    bottom
    {
        type            zeroGradient;
    }
    inlet
    {
        type            fixedValue;
        value           uniform 0;
    }
    outlet
    {
        type            fixedValue;
        value           uniform 0;
    }
    frontAndBack
    {
        type            empty;
    }
}


// ************************************************************************* //
