/*--------------------------------*- C++ -*----------------------------------*\
| =========                 |                                                 |
| \\      /  F ield         | OpenFOAM: The Open Source CFD Toolbox           |
|  \\    /   O peration     | Version:  4.1                                   |
|   \\  /    A nd           | Web:      www.OpenFOAM.org                      |
|    \\/     M anipulation  |                                                 |
\*---------------------------------------------------------------------------*/
FoamFile
{
    version     2.0;
    format      ascii;
    class       surfaceScalarField;
    location    "1.2";
    object      phi;
}
// * * * * * * * * * * * * * * * * * * * * * * * * * * * * * * * * * * * * * //

dimensions      [0 3 -1 0 0 0 0];

internalField   nonuniform List<scalar> 
760
(
1.24969e-06
-2.68741e-13
1.24969e-06
-1.80579e-13
1.24969e-06
5.24349e-16
1.24969e-06
-1.12341e-14
1.24969e-06
7.35212e-15
1.24969e-06
-6.31422e-15
1.24969e-06
5.1359e-15
1.24969e-06
-4.19198e-15
1.24969e-06
3.35734e-15
1.24969e-06
-2.60892e-15
1.24969e-06
1.91861e-15
1.24969e-06
-1.26417e-15
1.24969e-06
6.26036e-16
1.24969e-06
9.47415e-18
1.24969e-06
-6.9861e-16
1.24969e-06
1.25446e-15
1.24969e-06
-3.54943e-15
1.24969e-06
5.51181e-15
1.24969e-06
-1.08673e-13
-1.63888e-13
3.74907e-06
-8.10296e-13
3.74907e-06
-6.34588e-13
3.74907e-06
-1.68543e-14
3.74907e-06
-2.76269e-14
3.74907e-06
1.5365e-14
3.74907e-06
-1.36704e-14
3.74907e-06
1.10419e-14
3.74907e-06
-9.03415e-15
3.74907e-06
7.239e-15
3.74907e-06
-5.62721e-15
3.74907e-06
4.13796e-15
3.74907e-06
-2.72455e-15
3.74907e-06
1.34559e-15
3.74907e-06
1.94446e-17
3.74907e-06
-1.55594e-15
3.74907e-06
2.49671e-15
3.74907e-06
-1.00412e-14
3.74907e-06
1.53682e-14
3.74907e-06
-4.02622e-13
-5.28103e-13
6.24847e-06
-1.46356e-12
6.24847e-06
-1.25392e-12
6.24847e-06
-5.36344e-14
6.24847e-06
-4.28372e-14
6.24847e-06
1.97099e-14
6.24847e-06
-1.83681e-14
6.24847e-06
1.47e-14
6.24847e-06
-1.20605e-14
6.24847e-06
9.66689e-15
6.24847e-06
-7.51514e-15
6.24847e-06
5.52326e-15
6.24847e-06
-3.6306e-15
6.24847e-06
1.78277e-15
6.24847e-06
3.24609e-17
6.24847e-06
-2.17239e-15
6.24847e-06
3.00266e-15
6.24847e-06
-1.76201e-14
6.24847e-06
2.70537e-14
6.24847e-06
-8.29404e-13
-1.00863e-12
8.74792e-06
-2.13023e-12
8.74792e-06
-1.93129e-12
8.74792e-06
-1.03124e-13
8.74792e-06
-5.61613e-14
8.74792e-06
2.08712e-14
8.74792e-06
-2.06636e-14
8.74792e-06
1.63388e-14
8.74792e-06
-1.34466e-14
8.74792e-06
1.07775e-14
8.74792e-06
-8.37598e-15
8.74792e-06
6.14889e-15
8.74792e-06
-4.03025e-15
8.74792e-06
1.95999e-15
8.74792e-06
5.45204e-17
8.74792e-06
-2.56701e-15
8.74792e-06
2.90306e-15
8.74792e-06
-2.5667e-14
8.74792e-06
3.96517e-14
8.74792e-06
-1.32599e-12
-1.54253e-12
1.12474e-05
-2.72564e-12
1.12474e-05
-2.57219e-12
1.12474e-05
-1.58188e-13
1.12474e-05
-6.68323e-14
1.12474e-05
1.93689e-14
1.12474e-05
-2.0834e-14
1.12474e-05
1.62082e-14
1.12474e-05
-1.33874e-14
1.12474e-05
1.07247e-14
1.12474e-05
-8.32814e-15
1.12474e-05
6.10183e-15
1.12474e-05
-3.98137e-15
1.12474e-05
1.90685e-15
1.12474e-05
8.72355e-17
1.12474e-05
-2.75631e-15
1.12474e-05
2.32652e-15
1.12474e-05
-3.35013e-14
1.12474e-05
5.22469e-14
1.12474e-05
-1.83175e-12
-2.06949e-12
1.3747e-05
-3.18497e-12
1.3747e-05
-3.10168e-12
1.3747e-05
-2.11855e-13
1.3747e-05
-7.41493e-14
1.3747e-05
1.57465e-14
1.3747e-05
-1.91797e-14
1.3747e-05
1.45791e-14
1.3747e-05
-1.20974e-14
1.3747e-05
9.67954e-15
1.3747e-05
-7.50469e-15
1.3747e-05
5.48087e-15
1.3747e-05
-3.55061e-15
1.3747e-05
1.65883e-15
1.3747e-05
1.29038e-16
1.3747e-05
-2.75699e-15
1.3747e-05
1.39632e-15
1.3747e-05
-4.04536e-14
1.3747e-05
6.38652e-14
1.3747e-05
-2.29183e-12
-2.5352e-12
1.62466e-05
-3.46358e-12
1.62466e-05
-3.46518e-12
1.62466e-05
-2.57926e-13
1.62466e-05
-7.75733e-14
1.62466e-05
1.05562e-14
1.62466e-05
-1.60237e-14
1.62466e-05
1.17407e-14
1.62466e-05
-9.80826e-15
1.62466e-05
7.82859e-15
1.62466e-05
-6.05152e-15
1.62466e-05
4.39486e-15
1.62466e-05
-2.8119e-15
1.62466e-05
1.25593e-15
1.62466e-05
1.76117e-16
1.62466e-05
-2.58736e-15
1.62466e-05
2.28929e-16
1.62466e-05
-4.59234e-14
1.62466e-05
7.34971e-14
1.62466e-05
-2.6609e-12
-2.89515e-12
1.87463e-05
-3.53932e-12
1.87463e-05
-3.63141e-12
1.87463e-05
-2.91505e-13
1.87463e-05
-7.68129e-14
1.87463e-05
4.34264e-15
1.87463e-05
-1.1708e-14
1.87463e-05
7.99616e-15
1.87463e-05
-6.76519e-15
1.87463e-05
5.37008e-15
1.87463e-05
-4.12436e-15
1.87463e-05
2.96018e-15
1.87463e-05
-1.8443e-15
1.87463e-05
7.41033e-16
1.87463e-05
2.23449e-16
1.87463e-05
-2.26881e-15
1.87463e-05
-1.06775e-15
1.87463e-05
-4.94315e-14
1.87463e-05
8.01776e-14
1.87463e-05
-2.90567e-12
-3.11726e-12
2.12461e-05
-3.41147e-12
2.12461e-05
-3.59172e-12
2.12461e-05
-3.0942e-13
2.12461e-05
-7.18844e-14
2.12461e-05
-2.37074e-15
2.12461e-05
-6.59114e-15
2.12461e-05
3.65852e-15
2.12461e-05
-3.22348e-15
2.12461e-05
2.51099e-15
2.12461e-05
-1.88597e-15
2.12461e-05
1.29839e-15
2.12461e-05
-7.30198e-16
2.12461e-05
1.58565e-16
2.12461e-05
2.65618e-16
2.12461e-05
-1.82672e-15
2.12461e-05
-2.3946e-15
2.12461e-05
-5.06624e-14
2.12461e-05
8.31077e-14
2.12461e-05
-3.00663e-12
-3.18366e-12
2.3746e-05
-3.09967e-12
2.3746e-05
-3.35932e-12
2.3746e-05
-3.10459e-13
2.3746e-05
-6.31468e-14
2.3746e-05
-9.09271e-15
2.3746e-05
-1.04475e-15
2.3746e-05
-9.54005e-16
2.3746e-05
5.55623e-16
2.3746e-05
-5.36584e-16
2.3746e-05
4.96882e-16
2.3746e-05
-4.66224e-16
2.3746e-05
4.4656e-16
2.3746e-05
-4.46799e-16
2.3746e-05
2.97546e-16
2.3746e-05
-1.29117e-15
2.3746e-05
-3.6611e-15
2.3746e-05
-4.94945e-14
2.3746e-05
8.17904e-14
2.3746e-05
-2.95866e-12
-3.09151e-12
2.6246e-05
-2.64084e-12
2.6246e-05
-2.96632e-12
2.6246e-05
-2.95386e-13
2.6246e-05
-5.13021e-14
2.6246e-05
-1.53718e-14
2.6246e-05
4.55047e-15
2.6246e-05
-5.5224e-15
2.6246e-05
4.30889e-15
2.6246e-05
-3.5591e-15
2.6246e-05
2.85646e-15
2.6246e-05
-2.20895e-15
2.6246e-05
1.60235e-15
2.6246e-05
-1.03127e-15
2.6246e-05
3.15048e-16
2.6246e-05
-6.97201e-16
2.6246e-05
-4.78478e-15
2.6246e-05
-4.6015e-14
2.6246e-05
7.61489e-14
2.6246e-05
-2.77069e-12
-2.8527e-12
2.87461e-05
-2.08522e-12
2.87461e-05
-2.45964e-12
2.87461e-05
-2.66738e-13
2.87461e-05
-3.73609e-14
2.87461e-05
-2.07997e-14
2.87461e-05
9.80931e-15
2.87461e-05
-9.73147e-15
2.87461e-05
7.77536e-15
2.87461e-05
-6.3452e-15
2.87461e-05
5.02708e-15
2.87461e-05
-3.80704e-15
2.87461e-05
2.65545e-15
2.87461e-05
-1.55286e-15
2.87461e-05
3.15314e-16
2.87461e-05
-8.4723e-17
2.87461e-05
-5.69074e-15
2.87461e-05
-4.05186e-14
2.87461e-05
6.66055e-14
2.87461e-05
-2.46423e-12
-2.4924e-12
3.12463e-05
-1.49155e-12
3.12463e-05
-1.89594e-12
3.12463e-05
-2.28383e-13
3.12463e-05
-2.25776e-14
3.12463e-05
-2.50106e-14
3.12463e-05
1.43472e-14
3.12463e-05
-1.32741e-14
3.12463e-05
1.07003e-14
3.12463e-05
-8.68922e-15
3.12463e-05
6.84797e-15
3.12463e-05
-5.14188e-15
3.12463e-05
3.52742e-15
3.12463e-05
-1.97233e-15
3.12463e-05
2.97187e-16
3.12463e-05
5.01919e-16
3.12463e-05
-6.31145e-15
3.12463e-05
-3.34894e-14
3.12463e-05
5.40844e-14
3.12463e-05
-2.0712e-12
-2.04685e-12
3.37466e-05
-9.20605e-13
3.37466e-05
-1.33471e-12
3.37466e-05
-1.84938e-13
3.37466e-05
-8.35472e-15
3.37466e-05
-2.76758e-14
3.37466e-05
1.77852e-14
3.37466e-05
-1.5855e-14
3.37466e-05
1.28389e-14
3.37466e-05
-1.03944e-14
3.37466e-05
8.16596e-15
3.37466e-05
-6.1009e-15
3.37466e-05
4.14451e-15
3.37466e-05
-2.25378e-15
3.37466e-05
2.61471e-16
3.37466e-05
1.01456e-15
3.37466e-05
-6.58741e-15
3.37466e-05
-2.55659e-14
3.37466e-05
3.99493e-14
3.37466e-05
-1.63038e-12
-1.55958e-12
3.6247e-05
-4.29971e-13
3.6247e-05
-8.3245e-13
3.6247e-05
-1.40999e-13
3.6247e-05
3.863e-15
3.6247e-05
-2.84956e-14
3.6247e-05
1.97556e-14
3.6247e-05
-1.71942e-14
3.6247e-05
1.39596e-14
3.6247e-05
-1.12758e-14
3.6247e-05
8.83769e-15
3.6247e-05
-6.57944e-15
3.6247e-05
4.43884e-15
3.6247e-05
-2.36543e-15
3.6247e-05
2.11095e-16
3.6247e-05
1.40206e-15
3.6247e-05
-6.46839e-15
3.6247e-05
-1.7494e-14
3.6247e-05
2.58309e-14
3.6247e-05
-1.18418e-12
-1.07805e-12
3.87474e-05
-6.50333e-14
3.87474e-05
-4.33148e-13
3.87474e-05
-1.00457e-13
3.87474e-05
1.27061e-14
3.87474e-05
-2.71897e-14
3.87474e-05
1.99066e-14
3.87474e-05
-1.70292e-14
3.87474e-05
1.38464e-14
3.87474e-05
-1.11623e-14
3.87474e-05
8.73155e-15
3.87474e-05
-6.48202e-15
3.87474e-05
4.34933e-15
3.87474e-05
-2.28009e-15
3.87474e-05
1.5131e-16
3.87474e-05
1.61123e-15
3.87474e-05
-5.91565e-15
3.87474e-05
-1.00691e-14
3.87474e-05
1.34284e-14
3.87474e-05
-7.73038e-13
-6.47569e-13
4.12479e-05
1.43928e-13
4.12479e-05
-1.64759e-13
4.12479e-05
-6.57267e-14
4.12479e-05
1.69755e-14
4.12479e-05
-2.34866e-14
4.12479e-05
1.79078e-14
4.12479e-05
-1.51177e-14
4.12479e-05
1.23017e-14
4.12479e-05
-9.89891e-15
4.12479e-05
7.72946e-15
4.12479e-05
-5.72398e-15
4.12479e-05
3.82282e-15
4.12479e-05
-1.97577e-15
4.12479e-05
8.98192e-17
4.12479e-05
1.58785e-15
4.12479e-05
-4.90477e-15
4.12479e-05
-4.07755e-15
4.12479e-05
4.18967e-15
4.12479e-05
-4.32841e-13
-3.08437e-13
4.37485e-05
1.946e-13
4.37485e-05
-2.61425e-14
4.37485e-05
-3.74372e-14
4.37485e-05
1.57213e-14
4.37485e-05
-1.71144e-14
4.37485e-05
1.34529e-14
4.37485e-05
-1.12381e-14
4.37485e-05
9.1471e-15
4.37485e-05
-7.34754e-15
4.37485e-05
5.72745e-15
4.37485e-05
-4.23182e-15
4.37485e-05
2.81441e-15
4.37485e-05
-1.43589e-15
4.37485e-05
3.67432e-17
4.37485e-05
1.27748e-15
4.37485e-05
-3.42883e-15
4.37485e-05
-2.37014e-16
4.37485e-05
-9.02231e-16
4.37485e-05
-1.86381e-13
-8.69965e-14
4.62491e-05
1.08556e-13
4.62491e-05
9.15728e-15
4.62491e-05
-1.4132e-14
4.62491e-05
8.25583e-15
4.62491e-05
-7.78827e-15
4.62491e-05
6.25928e-15
4.62491e-05
-5.18644e-15
4.62491e-05
4.22114e-15
4.62491e-05
-3.38531e-15
4.62491e-05
2.63477e-15
4.62491e-05
-1.94284e-15
4.62491e-05
1.28735e-15
4.62491e-05
-6.49329e-16
4.62491e-05
4.79384e-18
4.62491e-05
6.25913e-16
4.62491e-05
-1.49996e-15
4.62491e-05
8.47095e-16
4.62491e-05
-1.66542e-15
4.62491e-05
-4.44363e-14
3.64526e-15
4.87497e-05
4.87497e-05
4.87497e-05
4.87497e-05
4.87497e-05
4.87497e-05
4.87497e-05
4.87497e-05
4.87497e-05
4.87497e-05
4.87497e-05
4.87497e-05
4.87497e-05
4.87497e-05
4.87497e-05
4.87497e-05
4.87497e-05
4.87497e-05
4.87497e-05
)
;

boundaryField
{
    top
    {
        type            calculated;
        value           uniform 0;
    }
    bottom
    {
        type            calculated;
        value           uniform 0;
    }
    inlet
    {
        type            calculated;
        value           nonuniform List<scalar> 
20
(
-1.24969e-06
-3.74907e-06
-6.24847e-06
-8.74792e-06
-1.12474e-05
-1.3747e-05
-1.62466e-05
-1.87463e-05
-2.12461e-05
-2.3746e-05
-2.6246e-05
-2.87461e-05
-3.12463e-05
-3.37466e-05
-3.6247e-05
-3.87474e-05
-4.12479e-05
-4.37485e-05
-4.62491e-05
-4.87497e-05
)
;
    }
    outlet
    {
        type            calculated;
        value           nonuniform List<scalar> 
20
(
1.24969e-06
3.74907e-06
6.24847e-06
8.74792e-06
1.12474e-05
1.3747e-05
1.62466e-05
1.87463e-05
2.12461e-05
2.3746e-05
2.6246e-05
2.87461e-05
3.12463e-05
3.37466e-05
3.6247e-05
3.87474e-05
4.12479e-05
4.37485e-05
4.62491e-05
4.87497e-05
)
;
    }
    frontAndBack
    {
        type            empty;
        value           nonuniform 0();
    }
}


// ************************************************************************* //
