/*--------------------------------*- C++ -*----------------------------------*\
| =========                 |                                                 |
| \\      /  F ield         | OpenFOAM: The Open Source CFD Toolbox           |
|  \\    /   O peration     | Version:  4.1                                   |
|   \\  /    A nd           | Web:      www.OpenFOAM.org                      |
|    \\/     M anipulation  |                                                 |
\*---------------------------------------------------------------------------*/
FoamFile
{
    version     2.0;
    format      ascii;
    class       volVectorField;
    location    "1.2";
    object      U;
}
// * * * * * * * * * * * * * * * * * * * * * * * * * * * * * * * * * * * * * //

dimensions      [0 1 -1 0 0 0 0];

internalField   nonuniform List<vector> 
400
(
(0.0249937 -1.19252e-10 0)
(0.0249937 -7.19812e-11 0)
(0.0249937 1.91795e-12 0)
(0.0249937 -5.57659e-12 0)
(0.0249937 3.87043e-12 0)
(0.0249937 -3.288e-12 0)
(0.0249937 2.68149e-12 0)
(0.0249937 -2.18728e-12 0)
(0.0249937 1.75201e-12 0)
(0.0249937 -1.36178e-12 0)
(0.0249937 1.00201e-12 0)
(0.0249937 -6.60998e-13 0)
(0.0249937 3.28524e-13 0)
(0.0249937 3.41385e-15 0)
(0.0249937 -3.58591e-13 0)
(0.0249937 6.66307e-13 0)
(0.0249937 -1.64916e-12 0)
(0.0249937 2.30404e-12 0)
(0.0249937 -4.05717e-11 0)
(0.0249937 -6.85376e-11 0)
(0.0749813 -5.02515e-10 0)
(0.0749814 -3.63526e-10 0)
(0.0749814 -3.60758e-12 0)
(0.0749814 -1.90605e-11 0)
(0.0749814 1.17628e-11 0)
(0.0749814 -1.02273e-11 0)
(0.0749814 8.29826e-12 0)
(0.0749814 -6.77967e-12 0)
(0.0749814 5.43121e-12 0)
(0.0749814 -4.2214e-12 0)
(0.0749814 3.10468e-12 0)
(0.0749814 -2.04548e-12 0)
(0.0749814 1.01239e-12 0)
(0.0749814 1.41916e-14 0)
(0.0749814 -1.14313e-12 0)
(0.0749814 1.97163e-12 0)
(0.0749814 -6.37045e-12 0)
(0.0749814 1.00672e-11 0)
(0.0749814 -2.2279e-10 0)
(0.0749814 -3.13999e-10 0)
(0.124969 -1.11407e-09 0)
(0.124969 -9.1239e-10 0)
(0.124969 -3.14283e-11 0)
(0.124969 -3.52764e-11 0)
(0.124969 1.81296e-11 0)
(0.124969 -1.64319e-11 0)
(0.124969 1.32248e-11 0)
(0.124969 -1.08332e-11 0)
(0.124969 8.68253e-12 0)
(0.124969 -6.7503e-12 0)
(0.124969 4.96342e-12 0)
(0.124969 -3.26662e-12 0)
(0.124969 1.61071e-12 0)
(0.124969 2.33712e-14 0)
(0.124969 -1.89752e-12 0)
(0.124969 2.86805e-12 0)
(0.124969 -1.35534e-11 0)
(0.124969 2.05352e-11 0)
(0.124969 -5.88816e-10 0)
(0.124969 -7.43195e-10 0)
(0.174958 -1.80091e-09 0)
(0.174958 -1.58639e-09 0)
(0.174958 -7.58228e-11 0)
(0.174958 -5.00299e-11 0)
(0.174958 2.10338e-11 0)
(0.174958 -2.00855e-11 0)
(0.174958 1.59969e-11 0)
(0.174958 -1.31422e-11 0)
(0.174958 1.05346e-11 0)
(0.174958 -8.18936e-12 0)
(0.174958 6.01648e-12 0)
(0.174958 -3.95074e-12 0)
(0.174958 1.93321e-12 0)
(0.174958 4.0923e-14 0)
(0.174958 -2.42301e-12 0)
(0.174958 3.09074e-12 0)
(0.174958 -2.15894e-11 0)
(0.174958 3.31475e-11 0)
(0.174958 -1.06611e-09 0)
(0.174958 -1.26795e-09 0)
(0.224948 -2.45336e-09 0)
(0.224948 -2.26924e-09 0)
(0.224948 -1.30058e-10 0)
(0.224948 -6.22754e-11 0)
(0.224948 2.07496e-11 0)
(0.224948 -2.12673e-11 0)
(0.224948 1.67027e-11 0)
(0.224948 -1.37684e-11 0)
(0.224948 1.10341e-11 0)
(0.224948 -8.57321e-12 0)
(0.224948 6.28905e-12 0)
(0.224948 -4.11488e-12 0)
(0.224948 1.98932e-12 0)
(0.224948 6.81886e-14 0)
(0.224948 -2.71332e-12 0)
(0.224948 2.72281e-12 0)
(0.224948 -2.9727e-11 0)
(0.224948 4.59748e-11 0)
(0.224948 -1.58309e-09 0)
(0.224948 -1.81431e-09 0)
(0.274939 -2.99438e-09 0)
(0.274939 -2.87095e-09 0)
(0.274939 -1.86166e-10 0)
(0.274939 -7.13976e-11 0)
(0.274939 1.80245e-11 0)
(0.274939 -2.04267e-11 0)
(0.274939 1.57358e-11 0)
(0.274939 -1.30242e-11 0)
(0.274939 1.04293e-11 0)
(0.274939 -8.09403e-12 0)
(0.274939 5.92268e-12 0)
(0.274939 -3.85322e-12 0)
(0.274939 1.82711e-12 0)
(0.274939 1.06228e-13 0)
(0.274939 -2.80187e-12 0)
(0.274939 1.93507e-12 0)
(0.274939 -3.7272e-11 0)
(0.274939 5.83347e-11 0)
(0.274939 -2.07861e-09 0)
(0.274939 -2.32294e-09 0)
(0.324932 -3.37151e-09 0)
(0.324932 -3.3281e-09 0)
(0.324932 -2.37479e-10 0)
(0.324932 -7.68653e-11 0)
(0.324932 1.34732e-11 0)
(0.324932 -1.79325e-11 0)
(0.324932 1.3423e-11 0)
(0.324932 -1.11709e-11 0)
(0.324932 8.92995e-12 0)
(0.324932 -6.91547e-12 0)
(0.324932 5.03915e-12 0)
(0.324932 -3.24807e-12 0)
(0.324932 1.4906e-12 0)
(0.324932 1.51867e-13 0)
(0.324932 -2.71183e-12 0)
(0.324932 8.57343e-13 0)
(0.324932 -4.36143e-11 0)
(0.324932 6.92182e-11 0)
(0.324932 -2.50283e-09 0)
(0.324932 -2.74516e-09 0)
(0.374926 -3.55156e-09 0)
(0.374926 -3.598e-09 0)
(0.374926 -2.78356e-10 0)
(0.374926 -7.82366e-11 0)
(0.374926 7.63811e-12 0)
(0.374926 -1.411e-11 0)
(0.374926 1.00552e-11 0)
(0.374926 -8.44281e-12 0)
(0.374926 6.72498e-12 0)
(0.374926 -5.18581e-12 0)
(0.374926 3.74927e-12 0)
(0.374926 -2.37486e-12 0)
(0.374926 1.02082e-12 0)
(0.374926 2.00452e-13 0)
(0.374926 -2.46201e-12 0)
(0.374926 -3.99888e-13 0)
(0.374926 -4.82022e-11 0)
(0.374926 7.76212e-11 0)
(0.374926 -2.81627e-09 0)
(0.374926 -3.0424e-09 0)
(0.424922 -3.52326e-09 0)
(0.424922 -3.66084e-09 0)
(0.424922 -3.04689e-10 0)
(0.424922 -7.53515e-11 0)
(0.424922 1.04778e-12 0)
(0.424922 -9.30332e-12 0)
(0.424922 5.93582e-12 0)
(0.424922 -5.08632e-12 0)
(0.424922 4.01416e-12 0)
(0.424922 -3.06211e-12 0)
(0.424922 2.17049e-12 0)
(0.424922 -1.31334e-12 0)
(0.424922 4.61047e-13 0)
(0.424922 2.46559e-13 0)
(0.424922 -2.07484e-12 0)
(0.424922 -1.73472e-12 0)
(0.424922 -5.06273e-11 0)
(0.424922 8.26186e-11 0)
(0.424922 -2.9922e-09 0)
(0.424922 -3.18927e-09 0)
(0.474921 -3.29647e-09 0)
(0.474921 -3.51928e-09 0)
(0.474921 -3.14245e-10 0)
(0.474921 -6.83907e-11 0)
(0.474921 -5.78852e-12 0)
(0.474921 -3.87774e-12 0)
(0.474921 1.38105e-12 0)
(0.474921 -1.36033e-12 0)
(0.474921 1.00759e-12 0)
(0.474921 -7.09636e-13 0)
(0.474921 4.26134e-13 0)
(0.474921 -1.46959e-13 0)
(0.474921 -1.43943e-13 0)
(0.474921 2.84787e-13 0)
(0.474921 -1.57786e-12 0)
(0.474921 -3.05255e-12 0)
(0.474921 -5.06644e-11 0)
(0.474921 8.35264e-11 0)
(0.474921 -3.01822e-09 0)
(0.474921 -3.1753e-09 0)
(0.524921 -2.9004e-09 0)
(0.524921 -3.19687e-09 0)
(0.524921 -3.06818e-10 0)
(0.524921 -5.78888e-11 0)
(0.524921 -1.23973e-11 0)
(0.524921 1.78886e-12 0)
(0.524921 -3.28884e-12 0)
(0.524921 2.47151e-12 0)
(0.524921 -2.08068e-12 0)
(0.524921 1.70334e-12 0)
(0.524921 -1.35852e-12 0)
(0.524921 1.04002e-12 0)
(0.524921 -7.49591e-13 0)
(0.524921 3.10379e-13 0)
(0.524921 -1.00369e-12 0)
(0.524921 -4.26691e-12 0)
(0.524921 -4.82945e-11 0)
(0.524921 8.00296e-11 0)
(0.524921 -2.89649e-09 0)
(0.524921 -3.00525e-09 0)
(0.574923 -2.3797e-09 0)
(0.574922 -2.73425e-09 0)
(0.574922 -2.84138e-10 0)
(0.574922 -4.47149e-11 0)
(0.574922 -1.83478e-11 0)
(0.574922 7.31199e-12 0)
(0.574922 -7.75534e-12 0)
(0.574922 6.14582e-12 0)
(0.574922 -5.03711e-12 0)
(0.574922 4.00923e-12 0)
(0.574922 -3.05909e-12 0)
(0.574922 2.16447e-12 0)
(0.574922 -1.31275e-12 0)
(0.574922 3.19741e-13 0)
(0.574922 -3.89894e-13 0)
(0.574922 -5.29919e-12 0)
(0.574922 -4.3711e-11 0)
(0.574922 7.22877e-11 0)
(0.574922 -2.64267e-09 0)
(0.574922 -2.6981e-09 0)
(0.624926 -1.79031e-09 0)
(0.624926 -2.18472e-09 0)
(0.624926 -2.49536e-10 0)
(0.624926 -3.00221e-11 0)
(0.624926 -2.32529e-11 0)
(0.624926 1.23049e-11 0)
(0.624926 -1.17058e-11 0)
(0.624926 9.40341e-12 0)
(0.624926 -7.65202e-12 0)
(0.624926 6.04388e-12 0)
(0.624926 -4.55418e-12 0)
(0.624926 3.14583e-12 0)
(0.624926 -1.79256e-12 0)
(0.624926 3.10817e-13 0)
(0.624926 2.21193e-13 0)
(0.624926 -6.07803e-12 0)
(0.624926 -3.73099e-11 0)
(0.624926 6.0979e-11 0)
(0.624926 -2.28422e-09 0)
(0.624926 -2.28532e-09 0)
(0.674932 -1.19341e-09 0)
(0.674932 -1.60793e-09 0)
(0.674932 -2.07433e-10 0)
(0.674932 -1.51636e-11 0)
(0.674932 -2.67678e-11 0)
(0.674932 1.63851e-11 0)
(0.674932 -1.48386e-11 0)
(0.674932 1.19941e-11 0)
(0.674932 -9.72381e-12 0)
(0.674932 7.64996e-12 0)
(0.674932 -5.72794e-12 0)
(0.674932 3.90784e-12 0)
(0.674932 -2.15135e-12 0)
(0.674932 2.83392e-13 0)
(0.674932 7.83163e-13 0)
(0.674932 -6.53993e-12 0)
(0.674932 -2.96627e-11 0)
(0.674932 4.72753e-11 0)
(0.674932 -1.8573e-09 0)
(0.674932 -1.80767e-09 0)
(0.724939 -6.49883e-10 0)
(0.724939 -1.06383e-09 0)
(0.724939 -1.62634e-10 0)
(0.724939 -1.58094e-12 0)
(0.724939 -2.85893e-11 0)
(0.724939 1.9185e-11 0)
(0.724939 -1.68712e-11 0)
(0.724939 1.36835e-11 0)
(0.724939 -1.10647e-11 0)
(0.724939 8.68162e-12 0)
(0.724939 -6.47352e-12 0)
(0.724939 4.38084e-12 0)
(0.724939 -2.35584e-12 0)
(0.724939 2.39282e-13 0)
(0.724939 1.24689e-12 0)
(0.724939 -6.63105e-12 0)
(0.724939 -2.14722e-11 0)
(0.724939 3.27204e-11 0)
(0.724939 -1.40368e-09 0)
(0.724939 -1.31183e-09 0)
(0.774948 -2.1266e-10 0)
(0.774948 -6.04377e-10 0)
(0.774948 -1.19593e-10 0)
(0.774948 9.30479e-12 0)
(0.774948 -2.84392e-11 0)
(0.774948 2.03514e-11 0)
(0.774948 -1.7538e-11 0)
(0.774948 1.42525e-11 0)
(0.774948 -1.15002e-11 0)
(0.774948 9.00401e-12 0)
(0.774948 -6.69275e-12 0)
(0.774948 4.50156e-12 0)
(0.774948 -2.37709e-12 0)
(0.774948 1.82449e-13 0)
(0.774948 1.56095e-12 0)
(0.774948 -6.30766e-12 0)
(0.774948 -1.35189e-11 0)
(0.774948 1.904e-11 0)
(0.774948 -9.65714e-10 0)
(0.774948 -8.45161e-10 0)
(0.824958 7.72315e-11 0)
(0.824958 -2.67921e-10 0)
(0.824958 -8.14673e-11 0)
(0.824958 1.61224e-11 0)
(0.824958 -2.5973e-11 0)
(0.824958 1.94866e-11 0)
(0.824958 -1.654e-11 0)
(0.824958 1.34559e-11 0)
(0.824958 -1.08365e-11 0)
(0.824958 8.46822e-12 0)
(0.824958 -6.27768e-12 0)
(0.824958 4.20089e-12 0)
(0.824958 -2.18431e-12 0)
(0.824958 1.18994e-13 0)
(0.824958 1.66621e-12 0)
(0.824958 -5.52353e-12 0)
(0.824958 -6.60922e-12 0)
(0.824958 7.91493e-12 0)
(0.824958 -5.82641e-10 0)
(0.824958 -4.52095e-10 0)
(0.874969 2.01592e-10 0)
(0.874969 -6.73937e-11 0)
(0.874969 -4.96466e-11 0)
(0.874969 1.749e-11 0)
(0.874969 -2.07346e-11 0)
(0.874969 1.61085e-11 0)
(0.874969 -1.35135e-11 0)
(0.874969 1.09992e-11 0)
(0.874969 -8.84219e-12 0)
(0.874969 6.89776e-12 0)
(0.874969 -5.10148e-12 0)
(0.874969 3.39882e-12 0)
(0.874969 -1.74354e-12 0)
(0.874969 5.95184e-14 0)
(0.874969 1.48853e-12 0)
(0.874969 -4.23329e-12 0)
(0.874969 -1.60678e-12 0)
(0.874969 5.55314e-13 0)
(0.874969 -2.84646e-10 0)
(0.874969 -1.6791e-10 0)
(0.924981 1.72393e-10 0)
(0.924981 1.04521e-11 0)
(0.924981 -2.39257e-11 0)
(0.924981 1.29038e-11 0)
(0.924981 -1.26649e-11 0)
(0.924981 1.01124e-11 0)
(0.924981 -8.4032e-12 0)
(0.924981 6.83999e-12 0)
(0.924981 -5.48918e-12 0)
(0.924981 4.27493e-12 0)
(0.924981 -3.15481e-12 0)
(0.924981 2.09346e-12 0)
(0.924981 -1.06066e-12 0)
(0.924981 1.52517e-14 0)
(0.924981 9.92162e-13 0)
(0.924981 -2.48317e-12 0)
(0.924981 8.5411e-13 0)
(0.924981 -2.03909e-12 0)
(0.924981 -9.29008e-11 0)
(0.924981 -1.56168e-11 0)
(0.974994 6.40276e-11 0)
(0.974994 1.29017e-11 0)
(0.974994 -6.49349e-12 0)
(0.974994 4.50153e-12 0)
(0.974994 -4.03165e-12 0)
(0.974994 3.26704e-12 0)
(0.974994 -2.69925e-12 0)
(0.974994 2.19751e-12 0)
(0.974994 -1.76177e-12 0)
(0.974994 1.37081e-12 0)
(0.974994 -1.01046e-12 0)
(0.974994 6.69095e-13 0)
(0.974994 -3.36683e-13 0)
(0.974994 1.38416e-15 0)
(0.974994 3.31277e-13 0)
(0.974994 -7.69019e-13 0)
(0.974994 6.25368e-13 0)
(0.974994 -1.3458e-12 0)
(0.974994 -1.2541e-11 0)
(0.974994 1.35678e-11 0)
)
;

boundaryField
{
    top
    {
        type            fixedValue;
        value           uniform (1 0 0);
    }
    bottom
    {
        type            fixedValue;
        value           uniform (0 0 0);
    }
    inlet
    {
        type            zeroGradient;
    }
    outlet
    {
        type            zeroGradient;
    }
    frontAndBack
    {
        type            empty;
    }
}


// ************************************************************************* //
