/*--------------------------------*- C++ -*----------------------------------*\
| =========                 |                                                 |
| \\      /  F ield         | OpenFOAM: The Open Source CFD Toolbox           |
|  \\    /   O peration     | Version:  4.1                                   |
|   \\  /    A nd           | Web:      www.OpenFOAM.org                      |
|    \\/     M anipulation  |                                                 |
\*---------------------------------------------------------------------------*/
FoamFile
{
    version     2.0;
    format      ascii;
    class       volScalarField;
    location    "2.8";
    object      p;
}
// * * * * * * * * * * * * * * * * * * * * * * * * * * * * * * * * * * * * * //

dimensions      [0 2 -2 0 0 0 0];

internalField   nonuniform List<scalar> 
400
(
5.84927e-10
6.52972e-10
5.57116e-10
5.95943e-10
5.25371e-10
5.4577e-10
4.92398e-10
4.98071e-10
4.57616e-10
4.51853e-10
4.21666e-10
4.06522e-10
3.85091e-10
3.61604e-10
3.48319e-10
3.16687e-10
3.11885e-10
2.72173e-10
2.78526e-10
2.62587e-10
5.8281e-10
6.50801e-10
5.56953e-10
5.959e-10
5.25374e-10
5.45763e-10
4.92403e-10
4.98067e-10
4.57619e-10
4.51852e-10
4.21667e-10
4.06522e-10
3.8509e-10
3.61605e-10
3.48316e-10
3.16688e-10
3.11861e-10
2.72189e-10
2.77079e-10
2.61057e-10
5.81607e-10
6.49257e-10
5.56754e-10
5.95896e-10
5.25348e-10
5.4578e-10
4.92388e-10
4.98079e-10
4.5761e-10
4.51858e-10
4.21663e-10
4.06524e-10
3.85091e-10
3.61603e-10
3.4832e-10
3.1668e-10
3.11851e-10
2.72173e-10
2.75938e-10
2.60001e-10
5.8123e-10
6.48534e-10
5.56564e-10
5.95902e-10
5.25319e-10
5.458e-10
4.92372e-10
4.98092e-10
4.576e-10
4.51865e-10
4.21659e-10
4.06526e-10
3.85091e-10
3.616e-10
3.48325e-10
3.16671e-10
3.11846e-10
2.72134e-10
2.75283e-10
2.59462e-10
5.81349e-10
6.48385e-10
5.56386e-10
5.95905e-10
5.25295e-10
5.45816e-10
4.92358e-10
4.98102e-10
4.57593e-10
4.5187e-10
4.21655e-10
4.06527e-10
3.85092e-10
3.61598e-10
3.48329e-10
3.16665e-10
3.11844e-10
2.72084e-10
2.75009e-10
2.59275e-10
5.81794e-10
6.48617e-10
5.56208e-10
5.95907e-10
5.25275e-10
5.45828e-10
4.92348e-10
4.9811e-10
4.57587e-10
4.51874e-10
4.21653e-10
4.06528e-10
3.85092e-10
3.61596e-10
3.48332e-10
3.16659e-10
3.11843e-10
2.72027e-10
2.75038e-10
2.59363e-10
5.82469e-10
6.49118e-10
5.56026e-10
5.95906e-10
5.25259e-10
5.45838e-10
4.92339e-10
4.98117e-10
4.57582e-10
4.51878e-10
4.21651e-10
4.06529e-10
3.85092e-10
3.61594e-10
3.48335e-10
3.16655e-10
3.11844e-10
2.71969e-10
2.75321e-10
2.59679e-10
5.83264e-10
6.49769e-10
5.5584e-10
5.95902e-10
5.25246e-10
5.45846e-10
4.92333e-10
4.98121e-10
4.57578e-10
4.5188e-10
4.21649e-10
4.0653e-10
3.85093e-10
3.61593e-10
3.48337e-10
3.16652e-10
3.11845e-10
2.71914e-10
2.75798e-10
2.60159e-10
5.84068e-10
6.50454e-10
5.55647e-10
5.95894e-10
5.25235e-10
5.45851e-10
4.92329e-10
4.98125e-10
4.57575e-10
4.51882e-10
4.21648e-10
4.0653e-10
3.85093e-10
3.61593e-10
3.48339e-10
3.1665e-10
3.11847e-10
2.71867e-10
2.76395e-10
2.60731e-10
5.84776e-10
6.51065e-10
5.55449e-10
5.9588e-10
5.25228e-10
5.45853e-10
4.92327e-10
4.98126e-10
4.57574e-10
4.51883e-10
4.21648e-10
4.0653e-10
3.85093e-10
3.61592e-10
3.4834e-10
3.16649e-10
3.11848e-10
2.7183e-10
2.77034e-10
2.61315e-10
5.85302e-10
6.51513e-10
5.55249e-10
5.95861e-10
5.25224e-10
5.45852e-10
4.92327e-10
4.98126e-10
4.57575e-10
4.51883e-10
4.21648e-10
4.0653e-10
3.85093e-10
3.61592e-10
3.4834e-10
3.1665e-10
3.11847e-10
2.71806e-10
2.77638e-10
2.61839e-10
5.85578e-10
6.51729e-10
5.55051e-10
5.95835e-10
5.25223e-10
5.45849e-10
4.92329e-10
4.98124e-10
4.57576e-10
4.51881e-10
4.21649e-10
4.0653e-10
3.85093e-10
3.61592e-10
3.4834e-10
3.16652e-10
3.11844e-10
2.71795e-10
2.78134e-10
2.62233e-10
5.85562e-10
6.51672e-10
5.54859e-10
5.95803e-10
5.25225e-10
5.45842e-10
4.92334e-10
4.9812e-10
4.57579e-10
4.51879e-10
4.2165e-10
4.06529e-10
3.85093e-10
3.61593e-10
3.48339e-10
3.16654e-10
3.11838e-10
2.71796e-10
2.78465e-10
2.62444e-10
5.85242e-10
6.51334e-10
5.54679e-10
5.95764e-10
5.2523e-10
5.45833e-10
4.92341e-10
4.98115e-10
4.57583e-10
4.51876e-10
4.21652e-10
4.06528e-10
3.85093e-10
3.61594e-10
3.48338e-10
3.16658e-10
3.11829e-10
2.71808e-10
2.78586e-10
2.62432e-10
5.84634e-10
6.50735e-10
5.54516e-10
5.95721e-10
5.25238e-10
5.45822e-10
4.92349e-10
4.98108e-10
4.57588e-10
4.51873e-10
4.21654e-10
4.06527e-10
3.85093e-10
3.61595e-10
3.48335e-10
3.16662e-10
3.11815e-10
2.71828e-10
2.78473e-10
2.62178e-10
5.83795e-10
6.49939e-10
5.54377e-10
5.95673e-10
5.2525e-10
5.45808e-10
4.9236e-10
4.981e-10
4.57595e-10
4.51868e-10
4.21657e-10
4.06526e-10
3.85093e-10
3.61596e-10
3.48332e-10
3.16667e-10
3.11799e-10
2.71854e-10
2.78135e-10
2.61691e-10
5.82797e-10
6.49036e-10
5.54266e-10
5.95621e-10
5.25266e-10
5.4579e-10
4.92373e-10
4.98089e-10
4.57603e-10
4.51863e-10
4.21661e-10
4.06524e-10
3.85093e-10
3.61598e-10
3.48329e-10
3.16672e-10
3.11779e-10
2.71883e-10
2.77597e-10
2.60996e-10
5.81785e-10
6.4819e-10
5.54189e-10
5.95564e-10
5.25287e-10
5.45768e-10
4.9239e-10
4.98076e-10
4.57612e-10
4.51856e-10
4.21665e-10
4.06522e-10
3.85093e-10
3.61601e-10
3.48324e-10
3.16679e-10
3.11755e-10
2.71912e-10
2.76922e-10
2.60149e-10
5.81005e-10
6.47562e-10
5.54133e-10
5.95513e-10
5.25305e-10
5.4575e-10
4.92404e-10
4.98065e-10
4.57621e-10
4.5185e-10
4.21669e-10
4.06521e-10
3.85092e-10
3.61603e-10
3.48319e-10
3.16683e-10
3.1173e-10
2.71938e-10
2.76155e-10
2.59236e-10
5.80862e-10
6.47285e-10
5.54059e-10
5.95502e-10
5.25293e-10
5.45755e-10
4.92399e-10
4.98069e-10
4.57618e-10
4.51852e-10
4.21668e-10
4.06521e-10
3.85093e-10
3.61602e-10
3.4832e-10
3.16679e-10
3.11716e-10
2.71948e-10
2.75436e-10
2.58532e-10
)
;

boundaryField
{
    top
    {
        type            zeroGradient;
    }
    bottom
    {
        type            zeroGradient;
    }
    inlet
    {
        type            fixedValue;
        value           uniform 0;
    }
    outlet
    {
        type            fixedValue;
        value           uniform 0;
    }
    frontAndBack
    {
        type            empty;
    }
}


// ************************************************************************* //
