/*--------------------------------*- C++ -*----------------------------------*\
| =========                 |                                                 |
| \\      /  F ield         | OpenFOAM: The Open Source CFD Toolbox           |
|  \\    /   O peration     | Version:  4.1                                   |
|   \\  /    A nd           | Web:      www.OpenFOAM.org                      |
|    \\/     M anipulation  |                                                 |
\*---------------------------------------------------------------------------*/
FoamFile
{
    version     2.0;
    format      ascii;
    class       surfaceScalarField;
    location    "2.8";
    object      phi;
}
// * * * * * * * * * * * * * * * * * * * * * * * * * * * * * * * * * * * * * //

dimensions      [0 3 -1 0 0 0 0];

internalField   nonuniform List<scalar> 
760
(
1.25e-06
-9.09104e-16
1.25e-06
-6.24563e-16
1.25e-06
7.83883e-18
1.25e-06
-4.42537e-17
1.25e-06
2.94921e-17
1.25e-06
-2.49435e-17
1.25e-06
1.97247e-17
1.25e-06
-1.54301e-17
1.25e-06
1.15757e-17
1.25e-06
-8.12942e-18
1.25e-06
4.97734e-18
1.25e-06
-2.01787e-18
1.25e-06
-7.92115e-19
1.25e-06
3.52012e-18
1.25e-06
-6.37507e-18
1.25e-06
8.70346e-18
1.25e-06
-1.65418e-17
1.25e-06
2.33049e-17
1.25e-06
-3.74218e-16
-5.51465e-16
3.75e-06
-2.74782e-15
3.75e-06
-2.18535e-15
3.75e-06
-4.52118e-17
3.75e-06
-1.07682e-16
3.75e-06
6.18207e-17
3.75e-06
-5.40605e-17
3.75e-06
4.23574e-17
3.75e-06
-3.31709e-17
3.75e-06
2.48412e-17
3.75e-06
-1.74173e-17
3.75e-06
1.06223e-17
3.75e-06
-4.2128e-18
3.75e-06
-1.85495e-18
3.75e-06
7.71841e-18
3.75e-06
-1.40638e-17
3.75e-06
1.8239e-17
3.75e-06
-4.34416e-17
3.75e-06
6.14788e-17
3.75e-06
-1.37821e-15
-1.78067e-15
6.24999e-06
-4.97136e-15
6.24999e-06
-4.30871e-15
6.24999e-06
-1.68097e-16
6.24999e-06
-1.65183e-16
6.24999e-06
7.9551e-17
6.24999e-06
-7.27091e-17
6.24999e-06
5.62986e-17
6.24999e-06
-4.41565e-17
6.24999e-06
3.29914e-17
6.24999e-06
-2.3086e-17
6.24999e-06
1.40096e-17
6.24999e-06
-5.40093e-18
6.24999e-06
-2.72135e-18
6.24999e-06
1.05244e-17
6.24999e-06
-1.93227e-17
6.24999e-06
2.34996e-17
6.24999e-06
-7.16304e-17
6.24999e-06
1.03082e-16
6.24999e-06
-2.83034e-15
-3.40466e-15
8.74999e-06
-7.24422e-15
8.74999e-06
-6.62821e-15
8.74999e-06
-3.37646e-16
8.74999e-06
-2.14337e-16
8.74999e-06
8.45014e-17
8.74999e-06
-8.18663e-17
8.74999e-06
6.24416e-17
8.74999e-06
-4.9074e-17
8.74999e-06
3.65657e-17
8.74999e-06
-2.5534e-17
8.74999e-06
1.54067e-17
8.74999e-06
-5.73396e-18
8.74999e-06
-3.35273e-18
8.74999e-06
1.20171e-17
8.74999e-06
-2.22851e-17
8.74999e-06
2.50046e-17
8.74999e-06
-9.92176e-17
8.74999e-06
1.45276e-16
8.74999e-06
-4.51636e-15
-5.20966e-15
1.125e-05
-9.2773e-15
1.125e-05
-8.82112e-15
1.125e-05
-5.29011e-16
1.125e-05
-2.52552e-16
1.125e-05
7.86745e-17
1.125e-05
-8.2609e-17
1.125e-05
6.17846e-17
1.125e-05
-4.86907e-17
1.125e-05
3.61492e-17
1.125e-05
-2.51841e-17
1.125e-05
1.50879e-17
1.125e-05
-5.35854e-18
1.125e-05
-3.72064e-18
1.125e-05
1.23005e-17
1.125e-05
-2.31234e-17
1.125e-05
2.33114e-17
1.125e-05
-1.24188e-16
1.125e-05
1.85351e-16
1.125e-05
-6.23055e-15
-6.99112e-15
1.375e-05
-1.0849e-14
1.375e-05
-1.06314e-14
1.375e-05
-7.17789e-16
1.375e-05
-2.77525e-16
1.375e-05
6.42071e-17
1.375e-05
-7.6112e-17
1.375e-05
5.53826e-17
1.375e-05
-4.38246e-17
1.375e-05
3.23747e-17
1.375e-05
-2.24925e-17
1.375e-05
1.33456e-17
1.375e-05
-4.42515e-18
1.375e-05
-3.81744e-18
1.375e-05
1.15212e-17
1.375e-05
-2.20693e-17
1.375e-05
1.90077e-17
1.375e-05
-1.44634e-16
1.375e-05
2.20474e-16
1.375e-05
-7.78706e-15
-8.56506e-15
1.625e-05
-1.18064e-14
1.625e-05
-1.18726e-14
1.625e-05
-8.82124e-16
1.625e-05
-2.87546e-16
1.625e-05
4.33018e-17
1.625e-05
-6.36543e-17
1.625e-05
4.43744e-17
1.625e-05
-3.53489e-17
1.625e-05
2.59044e-17
1.625e-05
-1.792e-17
1.625e-05
1.04757e-17
1.625e-05
-3.07991e-18
1.625e-05
-3.65061e-18
1.625e-05
9.83295e-18
1.625e-05
-1.93675e-17
1.625e-05
1.27082e-17
1.625e-05
-1.58931e-16
1.625e-05
2.4775e-16
1.625e-05
-9.03269e-15
-9.78102e-15
1.875e-05
-1.20731e-14
1.875e-05
-1.2438e-14
1.875e-05
-1.00457e-15
1.875e-05
-2.81826e-16
1.875e-05
1.81496e-17
1.875e-05
-4.65775e-17
1.875e-05
2.99309e-17
1.875e-05
-2.41751e-17
1.875e-05
1.74264e-17
1.875e-05
-1.19612e-17
1.875e-05
6.79695e-18
1.875e-05
-1.46932e-18
1.875e-05
-3.24923e-18
1.875e-05
7.43098e-18
1.875e-05
-1.53348e-17
1.875e-05
5.03679e-18
1.875e-05
-1.65905e-16
1.875e-05
2.64471e-16
1.875e-05
-9.85527e-15
-1.05306e-14
2.125e-05
-1.16461e-14
2.125e-05
-1.22983e-14
2.125e-05
-1.07357e-15
2.125e-05
-2.6068e-16
2.125e-05
-9.11874e-18
2.125e-05
-2.63148e-17
2.125e-05
1.32732e-17
2.125e-05
-1.12334e-17
2.125e-05
7.65465e-18
2.125e-05
-5.10985e-18
2.125e-05
2.60309e-18
2.125e-05
2.76477e-19
2.125e-05
-2.64576e-18
2.125e-05
4.5136e-18
2.125e-05
-1.03134e-17
2.125e-05
-3.39463e-18
2.125e-05
-1.64923e-16
2.125e-05
2.68461e-16
2.125e-05
-1.01894e-14
-1.07539e-14
2.375e-05
-1.05914e-14
2.375e-05
-1.14987e-14
2.375e-05
-1.08433e-15
2.375e-05
-2.25666e-16
2.375e-05
-3.64723e-17
2.375e-05
-4.33198e-18
2.375e-05
-4.40682e-18
2.375e-05
2.53331e-18
2.375e-05
-2.69417e-18
2.375e-05
2.12042e-18
2.375e-05
-1.80188e-18
2.375e-05
2.04681e-18
2.375e-05
-1.89034e-18
2.375e-05
1.29922e-18
2.375e-05
-4.6846e-18
2.375e-05
-1.195e-17
2.375e-05
-1.55994e-16
2.375e-05
2.58524e-16
2.375e-05
-1.00185e-14
-1.04414e-14
2.625e-05
-9.03437e-15
2.625e-05
-1.01493e-14
2.625e-05
-1.03889e-15
2.625e-05
-1.7954e-16
2.625e-05
-6.20495e-17
2.625e-05
1.78517e-17
2.625e-05
-2.18709e-17
2.625e-05
1.61795e-17
2.625e-05
-1.29228e-17
2.625e-05
9.26272e-18
2.625e-05
-6.12488e-18
2.625e-05
3.71816e-18
2.625e-05
-1.05863e-18
2.625e-05
-1.98605e-18
2.625e-05
1.16059e-18
2.625e-05
-2.0044e-17
2.625e-05
-1.39798e-16
2.625e-05
2.34842e-16
2.625e-05
-9.37365e-15
-9.63378e-15
2.875e-05
-7.14559e-15
2.875e-05
-8.41098e-15
2.875e-05
-9.45457e-16
2.875e-05
-1.26203e-16
2.875e-05
-8.41661e-17
2.875e-05
3.87181e-17
2.875e-05
-3.79232e-17
2.875e-05
2.87642e-17
2.875e-05
-2.2339e-17
2.875e-05
1.58119e-17
2.875e-05
-1.00606e-17
2.875e-05
5.19364e-18
2.875e-05
-2.01686e-19
2.875e-05
-5.10215e-18
2.875e-05
6.80667e-18
2.875e-05
-2.71075e-17
2.875e-05
-1.17656e-16
2.875e-05
1.99174e-16
2.875e-05
-8.32854e-15
-8.41626e-15
3.125e-05
-5.12497e-15
3.125e-05
-6.47781e-15
3.125e-05
-8.16888e-16
3.125e-05
-7.03777e-17
3.125e-05
-1.01301e-16
3.125e-05
5.67257e-17
3.125e-05
-5.14156e-17
3.125e-05
3.94018e-17
3.125e-05
-3.02277e-17
3.125e-05
2.12779e-17
3.125e-05
-1.33479e-17
3.125e-05
6.38258e-18
3.125e-05
5.96891e-19
3.125e-05
-7.80464e-18
3.125e-05
1.18196e-17
3.125e-05
-3.25793e-17
3.125e-05
-9.14996e-17
3.125e-05
1.54905e-16
3.125e-05
-6.99192e-15
-6.91145e-15
3.375e-05
-3.1794e-15
3.375e-05
-4.55364e-15
3.375e-05
-6.68794e-16
3.375e-05
-1.73538e-17
3.375e-05
-1.12086e-16
3.375e-05
7.03692e-17
3.375e-05
-6.12231e-17
3.375e-05
4.71752e-17
3.375e-05
-3.59626e-17
3.375e-05
2.52566e-17
3.375e-05
-1.5714e-17
3.375e-05
7.16927e-18
3.375e-05
1.26693e-18
3.375e-05
-9.85295e-18
3.375e-05
1.57674e-17
3.375e-05
-3.59811e-17
3.375e-05
-6.36584e-17
3.375e-05
1.06793e-16
3.375e-05
-5.49556e-15
-5.26643e-15
3.625e-05
-1.50507e-15
3.625e-05
-2.83223e-15
3.625e-05
-5.16804e-16
3.625e-05
2.74896e-17
3.625e-05
-1.15314e-16
3.625e-05
7.81792e-17
3.625e-05
-6.62883e-17
3.625e-05
5.12839e-17
3.625e-05
-3.89239e-17
3.625e-05
2.72883e-17
3.625e-05
-1.69094e-17
3.625e-05
7.49088e-18
3.625e-05
1.74757e-18
3.625e-05
-1.10379e-17
3.625e-05
1.82478e-17
3.625e-05
-3.68695e-17
3.625e-05
-3.68018e-17
3.625e-05
6.04303e-17
3.625e-05
-3.98353e-15
-3.64134e-15
3.875e-05
-2.56696e-16
3.875e-05
-1.4646e-15
3.875e-05
-3.74236e-16
3.875e-05
5.90122e-17
3.875e-05
-1.09877e-16
3.875e-05
7.87745e-17
3.875e-05
-6.55943e-17
3.875e-05
5.0874e-17
3.875e-05
-3.85019e-17
3.875e-05
2.69939e-17
3.875e-05
-1.66766e-17
3.875e-05
7.2234e-18
3.875e-05
1.96896e-18
3.875e-05
-1.11579e-17
3.875e-05
1.88624e-17
3.875e-05
-3.48909e-17
3.875e-05
-1.36751e-17
3.875e-05
2.15397e-17
3.875e-05
-2.59285e-15
-2.18896e-15
4.125e-05
4.62349e-16
4.125e-05
-5.46971e-16
4.125e-05
-2.4945e-16
4.125e-05
7.27165e-17
4.125e-05
-9.47304e-17
4.125e-05
7.08436e-17
4.125e-05
-5.81885e-17
4.125e-05
4.52242e-17
4.125e-05
-3.41608e-17
4.125e-05
2.39593e-17
4.125e-05
-1.47866e-17
4.125e-05
6.31098e-18
4.125e-05
1.88518e-18
4.125e-05
-1.00249e-17
4.125e-05
1.72454e-17
4.125e-05
-2.97569e-17
4.125e-05
3.02497e-18
4.125e-05
-5.05019e-18
4.125e-05
-1.44503e-15
-1.0449e-15
4.375e-05
6.44058e-16
4.375e-05
-7.60914e-17
4.375e-05
-1.44809e-16
4.375e-05
6.50913e-17
4.375e-05
-6.88667e-17
4.375e-05
5.31978e-17
4.375e-05
-4.32275e-17
4.375e-05
3.36516e-17
4.375e-05
-2.53939e-17
4.375e-05
1.78279e-17
4.375e-05
-1.09883e-17
4.375e-05
4.64641e-18
4.375e-05
1.4609e-18
4.375e-05
-7.48506e-18
4.375e-05
1.30818e-17
4.375e-05
-2.13193e-17
4.375e-05
1.09161e-17
4.375e-05
-1.61388e-17
4.375e-05
-6.16882e-16
-2.97404e-16
4.625e-05
3.6177e-16
4.625e-05
3.78637e-17
4.625e-05
-5.55118e-17
4.625e-05
3.35807e-17
4.625e-05
-3.12574e-17
4.625e-05
2.47288e-17
4.625e-05
-1.99449e-17
4.625e-05
1.55537e-17
4.625e-05
-1.17205e-17
4.625e-05
8.22482e-18
4.625e-05
-5.07049e-18
4.625e-05
2.145e-18
4.625e-05
6.84025e-19
4.625e-05
-3.46272e-18
4.625e-05
6.11926e-18
4.625e-05
-9.51375e-18
4.625e-05
7.98943e-18
4.625e-05
-1.1238e-17
4.625e-05
-1.44423e-16
1.012e-17
4.875e-05
4.875e-05
4.875e-05
4.875e-05
4.875e-05
4.875e-05
4.875e-05
4.875e-05
4.875e-05
4.875e-05
4.875e-05
4.875e-05
4.875e-05
4.875e-05
4.875e-05
4.875e-05
4.875e-05
4.875e-05
4.875e-05
)
;

boundaryField
{
    top
    {
        type            calculated;
        value           uniform 0;
    }
    bottom
    {
        type            calculated;
        value           uniform 0;
    }
    inlet
    {
        type            calculated;
        value           nonuniform List<scalar> 
20
(
-1.25e-06
-3.75e-06
-6.24999e-06
-8.74999e-06
-1.125e-05
-1.375e-05
-1.625e-05
-1.875e-05
-2.125e-05
-2.375e-05
-2.625e-05
-2.875e-05
-3.125e-05
-3.375e-05
-3.625e-05
-3.875e-05
-4.125e-05
-4.375e-05
-4.625e-05
-4.875e-05
)
;
    }
    outlet
    {
        type            calculated;
        value           nonuniform List<scalar> 
20
(
1.25e-06
3.75e-06
6.24999e-06
8.74999e-06
1.125e-05
1.375e-05
1.625e-05
1.875e-05
2.125e-05
2.375e-05
2.625e-05
2.875e-05
3.125e-05
3.375e-05
3.625e-05
3.875e-05
4.125e-05
4.375e-05
4.625e-05
4.875e-05
)
;
    }
    frontAndBack
    {
        type            empty;
        value           nonuniform 0();
    }
}


// ************************************************************************* //
