/*--------------------------------*- C++ -*----------------------------------*\
| =========                 |                                                 |
| \\      /  F ield         | OpenFOAM: The Open Source CFD Toolbox           |
|  \\    /   O peration     | Version:  4.1                                   |
|   \\  /    A nd           | Web:      www.OpenFOAM.org                      |
|    \\/     M anipulation  |                                                 |
\*---------------------------------------------------------------------------*/
FoamFile
{
    version     2.0;
    format      ascii;
    class       volVectorField;
    location    "2.8";
    object      U;
}
// * * * * * * * * * * * * * * * * * * * * * * * * * * * * * * * * * * * * * //

dimensions      [0 1 -1 0 0 0 0];

internalField   nonuniform List<vector> 
400
(
(0.025 -4.03992e-13 0)
(0.025 -2.51482e-13 0)
(0.025 9.32929e-15 0)
(0.025 -2.21023e-14 0)
(0.025 1.55315e-14 0)
(0.025 -1.29987e-14 0)
(0.025 1.03121e-14 0)
(0.025 -8.06369e-15 0)
(0.025 6.05373e-15 0)
(0.025 -4.2542e-15 0)
(0.025 2.60878e-15 0)
(0.025 -1.06667e-15 0)
(0.025 -3.99507e-16 0)
(0.025 1.82496e-15 0)
(0.025 -3.29887e-15 0)
(0.025 4.57315e-15 0)
(0.025 -8.0025e-15 0)
(0.025 1.03271e-14 0)
(0.025 -1.4178e-13 0)
(0.025 -2.31335e-13 0)
(0.0749999 -1.7033e-12 0)
(0.0749999 -1.25648e-12 0)
(0.0749999 -3.23851e-15 0)
(0.0749999 -7.48276e-14 0)
(0.0749999 4.7254e-14 0)
(0.0749999 -4.04295e-14 0)
(0.0749999 3.18645e-14 0)
(0.0749999 -2.49355e-14 0)
(0.0749999 1.86943e-14 0)
(0.0749999 -1.31199e-14 0)
(0.0749999 8.02045e-15 0)
(0.0749999 -3.22375e-15 0)
(0.0749999 -1.32492e-15 0)
(0.0749999 5.73318e-15 0)
(0.0749999 -1.04065e-14 0)
(0.0749999 1.39388e-14 0)
(0.0749999 -2.88397e-14 0)
(0.0749999 4.14854e-14 0)
(0.0749999 -7.66511e-13 0)
(0.0749999 -1.05897e-12 0)
(0.125 -3.78109e-12 0)
(0.125 -3.13866e-12 0)
(0.125 -9.30471e-14 0)
(0.125 -1.36865e-13 0)
(0.125 7.30497e-14 0)
(0.125 -6.501e-14 0)
(0.125 5.06964e-14 0)
(0.125 -3.97255e-14 0)
(0.125 2.97218e-14 0)
(0.125 -2.08214e-14 0)
(0.125 1.26722e-14 0)
(0.125 -4.96856e-15 0)
(0.125 -2.31555e-15 0)
(0.125 9.33729e-15 0)
(0.125 -1.70641e-14 0)
(0.125 2.15547e-14 0)
(0.125 -5.70137e-14 0)
(0.125 8.0493e-14 0)
(0.125 -2.01266e-12 0)
(0.125 -2.50754e-12 0)
(0.175 -6.1205e-12 0)
(0.175 -5.44759e-12 0)
(0.175 -2.43327e-13 0)
(0.175 -1.92036e-13 0)
(0.175 8.5016e-14 0)
(0.175 -7.95384e-14 0)
(0.175 6.12098e-14 0)
(0.175 -4.80472e-14 0)
(0.175 3.58584e-14 0)
(0.175 -2.5069e-14 0)
(0.175 1.51761e-14 0)
(0.175 -5.76608e-15 0)
(0.175 -3.0976e-15 0)
(0.175 1.15857e-14 0)
(0.175 -2.13562e-14 0)
(0.175 2.51306e-14 0)
(0.175 -8.57559e-14 0)
(0.175 1.24065e-13 0)
(0.175 -3.63465e-12 0)
(0.175 -4.28119e-12 0)
(0.225 -8.34663e-12 0)
(0.225 -7.78495e-12 0)
(0.225 -4.30622e-13 0)
(0.225 -2.36584e-13 0)
(0.225 8.41422e-14 0)
(0.225 -8.42927e-14 0)
(0.225 6.37613e-14 0)
(0.225 -5.01676e-14 0)
(0.225 3.7323e-14 0)
(0.225 -2.60349e-14 0)
(0.225 1.56599e-14 0)
(0.225 -5.71279e-15 0)
(0.225 -3.60576e-15 0)
(0.225 1.24566e-14 0)
(0.225 -2.32315e-14 0)
(0.225 2.49165e-14 0)
(0.225 -1.12636e-13 0)
(0.225 1.65891e-13 0)
(0.225 -5.38846e-12 0)
(0.225 -6.12845e-12 0)
(0.275 -1.01958e-11 0)
(0.275 -9.84296e-12 0)
(0.275 -6.26845e-13 0)
(0.275 -2.68572e-13 0)
(0.275 7.33498e-14 0)
(0.275 -8.10278e-14 0)
(0.275 5.98913e-14 0)
(0.275 -4.72799e-14 0)
(0.275 3.50266e-14 0)
(0.275 -2.43712e-14 0)
(0.275 1.45384e-14 0)
(0.275 -5.01401e-15 0)
(0.275 -3.83621e-15 0)
(0.275 1.21603e-14 0)
(0.275 -2.3044e-14 0)
(0.275 2.17389e-14 0)
(0.275 -1.35745e-13 0)
(0.275 2.04207e-13 0)
(0.275 -7.06645e-12 0)
(0.275 -7.84783e-12 0)
(0.325 -1.14883e-11 0)
(0.325 -1.14051e-11 0)
(0.325 -8.08518e-13 0)
(0.325 -2.86353e-13 0)
(0.325 5.50819e-14 0)
(0.325 -7.11981e-14 0)
(0.325 5.08784e-14 0)
(0.325 -4.03709e-14 0)
(0.325 2.97234e-14 0)
(0.325 -2.06113e-14 0)
(0.325 1.21511e-14 0)
(0.325 -3.83658e-15 0)
(0.325 -3.79692e-15 0)
(0.325 1.08794e-14 0)
(0.325 -2.1088e-14 0)
(0.325 1.62757e-14 0)
(0.325 -1.5345e-13 0)
(0.325 2.36141e-13 0)
(0.325 -8.5001e-12 0)
(0.325 -9.27451e-12 0)
(0.375 -1.21104e-11 0)
(0.375 -1.23256e-11 0)
(0.375 -9.5568e-13 0)
(0.375 -2.88582e-13 0)
(0.375 3.15129e-14 0)
(0.375 -5.60876e-14 0)
(0.375 3.78573e-14 0)
(0.375 -3.03185e-14 0)
(0.375 2.20754e-14 0)
(0.375 -1.5224e-14 0)
(0.375 8.80238e-15 0)
(0.375 -2.32514e-15 0)
(0.375 -3.50542e-15 0)
(0.375 8.78669e-15 0)
(0.375 -1.7641e-14 0)
(0.375 9.13719e-15 0)
(0.375 -1.64311e-13 0)
(0.375 2.5884e-13 0)
(0.375 -9.55609e-12 0)
(0.375 -1.02782e-11 0)
(0.425 -1.20228e-11 0)
(0.425 -1.25369e-11 0)
(0.425 -1.05358e-12 0)
(0.425 -2.74938e-13 0)
(0.425 4.78402e-15 0)
(0.425 -3.70594e-14 0)
(0.425 2.20052e-14 0)
(0.425 -1.8027e-14 0)
(0.425 1.27752e-14 0)
(0.425 -8.69565e-15 0)
(0.425 4.78945e-15 0)
(0.425 -6.15483e-16 0)
(0.425 -2.99115e-15 0)
(0.425 6.07449e-15 0)
(0.425 -1.30247e-14 0)
(0.425 9.33334e-16 0)
(0.425 -1.67387e-13 0)
(0.425 2.69718e-13 0)
(0.425 -1.01446e-11 0)
(0.425 -1.07734e-11 0)
(0.475 -1.12584e-11 0)
(0.475 -1.20483e-11 0)
(0.475 -1.09389e-12 0)
(0.475 -2.46334e-13 0)
(0.475 -2.3016e-14 0)
(0.475 -1.55635e-14 0)
(0.475 4.53204e-15 0)
(0.475 -4.43743e-15 0)
(0.475 2.53698e-15 0)
(0.475 -1.53076e-15 0)
(0.475 4.15884e-16 0)
(0.475 1.17137e-15 0)
(0.475 -2.29755e-15 0)
(0.475 2.95258e-15 0)
(0.475 -7.6026e-15 0)
(0.475 -7.71022e-15 0)
(0.475 -1.62349e-13 0)
(0.475 2.66972e-13 0)
(0.475 -1.02244e-11 0)
(0.475 -1.0725e-11 0)
(0.525 -9.916e-12 0)
(0.525 -1.09406e-11 0)
(0.525 -1.07527e-12 0)
(0.525 -2.04943e-13 0)
(0.525 -4.99294e-14 0)
(0.525 6.89953e-15 0)
(0.525 -1.33418e-14 0)
(0.525 9.50371e-15 0)
(0.525 -7.92783e-15 0)
(0.525 5.77908e-15 0)
(0.525 -4.0212e-15 0)
(0.525 2.91893e-15 0)
(0.525 -1.48782e-15 0)
(0.525 -3.55945e-16 0)
(0.525 -1.76271e-15 0)
(0.525 -1.61813e-14 0)
(0.525 -1.4954e-13 0)
(0.525 2.50007e-13 0)
(0.525 -9.80363e-12 0)
(0.525 -1.01494e-11 0)
(0.575 -8.14729e-12 0)
(0.575 -9.3529e-12 0)
(0.575 -1.00314e-12 0)
(0.575 -1.54141e-13 0)
(0.575 -7.41782e-14 0)
(0.575 2.88071e-14 0)
(0.575 -3.03944e-14 0)
(0.575 2.28497e-14 0)
(0.575 -1.79226e-14 0)
(0.575 1.27434e-14 0)
(0.575 -8.22167e-15 0)
(0.575 4.51812e-15 0)
(0.575 -6.25341e-16 0)
(0.575 -3.61694e-15 0)
(0.575 4.0893e-15 0)
(0.575 -2.38984e-14 0)
(0.575 -1.29973e-13 0)
(0.575 2.19752e-13 0)
(0.575 -8.93614e-12 0)
(0.575 -9.11114e-12 0)
(0.625 -6.14242e-12 0)
(0.625 -7.46801e-12 0)
(0.625 -8.88441e-13 0)
(0.625 -9.83141e-14 0)
(0.625 -9.4159e-14 0)
(0.625 4.86208e-14 0)
(0.625 -4.54485e-14 0)
(0.625 3.46815e-14 0)
(0.625 -2.67396e-14 0)
(0.625 1.8865e-14 0)
(0.625 -1.19002e-14 0)
(0.625 5.87342e-15 0)
(0.625 2.19911e-16 0)
(0.625 -6.5854e-15 0)
(0.625 9.52472e-15 0)
(0.625 -3.02935e-14 0)
(0.625 -1.05299e-13 0)
(0.625 1.78797e-13 0)
(0.625 -7.71562e-12 0)
(0.625 -7.71666e-12 0)
(0.675 -4.10961e-12 0)
(0.675 -5.49021e-12 0)
(0.675 -7.46031e-13 0)
(0.675 -4.25567e-14 0)
(0.675 -1.08433e-13 0)
(0.675 6.48122e-14 0)
(0.675 -5.73686e-14 0)
(0.675 4.41012e-14 0)
(0.675 -3.37098e-14 0)
(0.675 2.3696e-14 0)
(0.675 -1.47917e-14 0)
(0.675 6.88378e-15 0)
(0.675 9.71693e-16 0)
(0.675 -9.01752e-15 0)
(0.675 1.41107e-14 0)
(0.675 -3.48473e-14 0)
(0.675 -7.76808e-14 0)
(0.675 1.31311e-13 0)
(0.675 -6.26521e-12 0)
(0.675 -6.10381e-12 0)
(0.725 -2.25628e-12 0)
(0.725 -3.62502e-12 0)
(0.725 -5.92217e-13 0)
(0.725 7.73516e-15 0)
(0.725 -1.15757e-13 0)
(0.725 7.59194e-14 0)
(0.725 -6.50815e-14 0)
(0.725 5.02628e-14 0)
(0.725 -3.82204e-14 0)
(0.725 2.68116e-14 0)
(0.725 -1.66402e-14 0)
(0.725 7.46216e-15 0)
(0.725 1.56546e-15 0)
(0.725 -1.06918e-14 0)
(0.725 1.74313e-14 0)
(0.725 -3.7101e-14 0)
(0.725 -4.96505e-14 0)
(0.725 8.26136e-14 0)
(0.725 -4.72671e-12 0)
(0.725 -4.43019e-12 0)
(0.775 -7.62813e-13 0)
(0.775 -2.05069e-12 0)
(0.775 -4.42198e-13 0)
(0.775 4.72546e-14 0)
(0.775 -1.15017e-13 0)
(0.775 8.05407e-14 0)
(0.775 -6.75755e-14 0)
(0.775 5.23547e-14 0)
(0.775 -3.96679e-14 0)
(0.775 2.78076e-14 0)
(0.775 -1.71991e-14 0)
(0.775 7.51715e-15 0)
(0.775 1.93338e-15 0)
(0.775 -1.14036e-14 0)
(0.775 1.90943e-14 0)
(0.775 -3.66654e-14 0)
(0.775 -2.39407e-14 0)
(0.775 3.85625e-14 0)
(0.775 -3.24384e-12 0)
(0.775 -2.85551e-12 0)
(0.825 2.30934e-13 0)
(0.825 -8.99025e-13 0)
(0.825 -3.06769e-13 0)
(0.825 7.08256e-14 0)
(0.825 -1.04858e-13 0)
(0.825 7.71016e-14 0)
(0.825 -6.36784e-14 0)
(0.825 4.94496e-14 0)
(0.825 -3.73797e-14 0)
(0.825 2.62082e-14 0)
(0.825 -1.61762e-14 0)
(0.825 6.94148e-15 0)
(0.825 2.0111e-15 0)
(0.825 -1.0926e-14 0)
(0.825 1.86567e-14 0)
(0.825 -3.31262e-14 0)
(0.825 -3.37002e-15 0)
(0.825 4.84346e-15 0)
(0.825 -1.94959e-12 0)
(0.825 -1.52947e-12 0)
(0.875 6.63033e-13 0)
(0.875 -2.15061e-13 0)
(0.875 -1.90729e-13 0)
(0.875 7.32499e-14 0)
(0.875 -8.35264e-14 0)
(0.875 6.37123e-14 0)
(0.875 -5.19924e-14 0)
(0.875 4.04478e-14 0)
(0.875 -3.05292e-14 0)
(0.875 2.14211e-14 0)
(0.875 -1.3208e-14 0)
(0.875 5.60082e-15 0)
(0.875 1.73762e-15 0)
(0.875 -8.99744e-15 0)
(0.875 1.56182e-14 0)
(0.875 -2.60564e-14 0)
(0.875 9.03505e-15 0)
(0.875 -1.44319e-14 0)
(0.875 -9.46185e-13 0)
(0.875 -5.71032e-13 0)
(0.925 5.74066e-13 0)
(0.925 4.62953e-14 0)
(0.925 -9.38051e-14 0)
(0.925 5.27511e-14 0)
(0.925 -5.09046e-14 0)
(0.925 3.99808e-14 0)
(0.925 -3.23246e-14 0)
(0.925 2.51886e-14 0)
(0.925 -1.89925e-14 0)
(0.925 1.33325e-14 0)
(0.925 -8.2155e-15 0)
(0.925 3.46736e-15 0)
(0.925 1.10953e-15 0)
(0.925 -5.61313e-15 0)
(0.925 9.87523e-15 0)
(0.925 -1.56368e-14 0)
(0.925 1.13509e-14 0)
(0.925 -1.62427e-14 0)
(0.925 -3.05009e-13 0)
(0.925 -5.79927e-14 0)
(0.975 2.14288e-13 0)
(0.975 4.78199e-14 0)
(0.975 -2.58681e-14 0)
(0.975 1.82205e-14 0)
(0.975 -1.61853e-14 0)
(0.975 1.29188e-14 0)
(0.975 -1.03885e-14 0)
(0.975 8.1045e-15 0)
(0.975 -6.1053e-15 0)
(0.975 4.28687e-15 0)
(0.975 -2.64091e-15 0)
(0.975 1.11368e-15 0)
(0.975 3.59664e-16 0)
(0.975 -1.8043e-15 0)
(0.975 3.20442e-15 0)
(0.975 -4.91579e-15 0)
(0.975 4.72605e-15 0)
(0.975 -7.37211e-15 0)
(0.975 -3.98422e-14 0)
(0.975 4.29332e-14 0)
)
;

boundaryField
{
    top
    {
        type            fixedValue;
        value           uniform (1 0 0);
    }
    bottom
    {
        type            fixedValue;
        value           uniform (0 0 0);
    }
    inlet
    {
        type            zeroGradient;
    }
    outlet
    {
        type            zeroGradient;
    }
    frontAndBack
    {
        type            empty;
    }
}


// ************************************************************************* //
