/*--------------------------------*- C++ -*----------------------------------*\
| =========                 |                                                 |
| \\      /  F ield         | OpenFOAM: The Open Source CFD Toolbox           |
|  \\    /   O peration     | Version:  4.1                                   |
|   \\  /    A nd           | Web:      www.OpenFOAM.org                      |
|    \\/     M anipulation  |                                                 |
\*---------------------------------------------------------------------------*/
FoamFile
{
    version     2.0;
    format      ascii;
    class       surfaceScalarField;
    location    "0.8";
    object      phi;
}
// * * * * * * * * * * * * * * * * * * * * * * * * * * * * * * * * * * * * * //

dimensions      [0 3 -1 0 0 0 0];

internalField   nonuniform List<scalar> 
760
(
3.16513e-05
-2.10711e-11
3.16513e-05
6.53336e-12
3.16513e-05
-8.70559e-12
3.16513e-05
-7.10912e-12
3.16514e-05
9.69274e-12
3.16514e-05
-2.56349e-12
3.16514e-05
-1.40132e-11
3.16514e-05
8.69109e-12
3.16514e-05
-1.8099e-12
3.16514e-05
-6.43551e-12
3.16514e-05
1.94099e-12
3.16514e-05
-1.45757e-12
3.16514e-05
-3.87257e-12
3.16514e-05
-3.26633e-12
3.16514e-05
-7.02812e-12
3.16514e-05
4.15425e-12
3.16514e-05
-3.12119e-12
3.16514e-05
-4.27454e-12
3.16514e-05
-1.42398e-11
-3.35977e-11
8.86215e-05
-8.74417e-11
8.86216e-05
-1.74598e-11
8.86216e-05
-1.2476e-11
8.86216e-05
-1.5335e-11
8.86216e-05
9.32158e-12
8.86216e-05
-3.44813e-12
8.86216e-05
-2.37086e-11
8.86216e-05
1.37168e-11
8.86216e-05
5.65769e-12
8.86216e-05
-1.75456e-11
8.86216e-05
1.24461e-12
8.86216e-05
-2.83152e-12
8.86216e-05
-1.90974e-11
8.86216e-05
-3.71083e-12
8.86216e-05
-1.94153e-11
8.86216e-05
9.60774e-12
8.86216e-05
-2.57291e-11
8.86216e-05
-6.09231e-13
8.86216e-05
-5.58438e-11
-9.86458e-11
0.00013926
-1.66478e-10
0.00013926
-6.36215e-11
0.00013926
-1.16066e-11
0.00013926
-1.56119e-11
0.00013926
7.26503e-12
0.00013926
-1.32137e-12
0.00013926
-2.89088e-11
0.00013926
1.31786e-11
0.00013926
1.44464e-11
0.00013926
-3.1284e-11
0.00013926
-2.70778e-12
0.00013926
-3.55856e-12
0.00013926
-3.5968e-11
0.00013926
-4.91701e-12
0.00013926
-3.11546e-11
0.00013926
1.32032e-11
0.00013926
-5.38837e-11
0.00013926
2.78273e-12
0.00013926
-1.18084e-10
-1.78408e-10
0.000183567
-2.27464e-10
0.000183567
-1.0178e-10
0.000183567
-1.24252e-11
0.000183567
-1.38168e-11
0.000183567
1.00722e-11
0.000183567
5.19971e-12
0.000183567
-3.30923e-11
0.000183567
1.11472e-11
0.000183567
2.14538e-11
0.000183567
-4.59024e-11
0.000183567
-6.82194e-12
0.000183567
-3.19393e-12
0.000183567
-4.96939e-11
0.000183567
-6.845e-12
0.000183567
-4.28057e-11
0.000183567
1.3219e-11
0.000183567
-7.92773e-11
0.000183567
6.91819e-12
0.000183567
-1.84155e-10
-2.55993e-10
0.000221543
-2.58513e-10
0.000221543
-1.15306e-10
0.000221543
-8.96156e-12
0.000221543
-9.76197e-12
0.000221543
1.49203e-11
0.000221543
1.32955e-11
0.000221543
-3.6428e-11
0.000221543
8.01214e-12
0.000221543
2.72373e-11
0.000221543
-5.96189e-11
0.000221543
-1.04446e-11
0.000221543
-1.39285e-12
0.000221543
-5.96612e-11
0.000221543
-9.6862e-12
0.000221543
-5.38568e-11
0.000221543
9.86592e-12
0.000221543
-1.01006e-10
0.000221543
9.90304e-12
0.000221543
-2.39069e-10
-3.15674e-10
0.000253189
-2.54396e-10
0.000253189
-9.59227e-11
0.000253189
1.67056e-12
0.000253189
-3.83747e-12
0.000253189
2.07879e-11
0.000253189
2.18196e-11
0.000253189
-3.8927e-11
0.000253189
4.16111e-12
0.000253189
3.21975e-11
0.000253189
-7.15567e-11
0.000253189
-1.3349e-11
0.000253189
1.61051e-12
0.000253189
-6.56921e-11
0.000253189
-1.30174e-11
0.000253189
-6.36262e-11
0.000253189
3.48278e-12
0.000253189
-1.18394e-10
0.000253189
1.05655e-11
0.000253189
-2.74894e-10
-3.48147e-10
0.000278506
-2.15944e-10
0.000278506
-4.32745e-11
0.000278506
2.06373e-11
0.000278506
3.95035e-12
0.000278506
2.69224e-11
0.000278506
2.97253e-11
0.000278506
-4.06288e-11
0.000278506
-1.61369e-13
0.000278506
3.64681e-11
0.000278506
-8.12279e-11
0.000278506
-1.56463e-11
0.000278506
5.35014e-12
0.000278506
-6.79e-11
0.000278506
-1.65676e-11
0.000278506
-7.11683e-11
0.000278506
-5.25496e-12
0.000278506
-1.30964e-10
0.000278506
7.62471e-12
0.000278506
-2.88534e-10
-3.49521e-10
0.000297493
-1.48468e-10
0.000297493
3.69254e-11
0.000297493
4.68213e-11
0.000297493
1.32652e-11
0.000297493
3.26702e-11
0.000297493
3.62592e-11
0.000297493
-4.15124e-11
0.000297493
-4.62081e-12
0.000297493
4.00539e-11
0.000297493
-8.84088e-11
0.000297493
-1.74558e-11
0.000297493
9.35329e-12
0.000297493
-6.66637e-11
0.000297493
-2.01347e-11
0.000297493
-7.57833e-11
0.000297493
-1.54799e-11
0.000297493
-1.38654e-10
0.000297493
5.11887e-13
0.000297493
-2.80544e-10
-3.20547e-10
0.000310151
-6.05772e-11
0.000310151
1.34365e-10
0.000310151
7.71112e-11
0.000310151
2.33846e-11
0.000310151
3.74111e-11
0.000310151
4.08839e-11
0.000310151
-4.15459e-11
0.000310151
-8.85421e-12
0.000310151
4.29016e-11
0.000310151
-9.29901e-11
0.000310151
-1.88601e-11
0.000310151
1.32258e-11
0.000310151
-6.25345e-11
0.000310151
-2.36001e-11
0.000310151
-7.71038e-11
0.000310151
-2.61977e-11
0.000310151
-1.41718e-10
0.000310151
-1.05065e-11
0.000310151
-2.54061e-10
-2.65802e-10
0.00031648
3.70246e-11
0.000316479
2.359e-10
0.000316479
1.07022e-10
0.000316479
3.32416e-11
0.000316479
4.05738e-11
0.000316479
4.33261e-11
0.000316479
-4.0672e-11
0.000316479
-1.25134e-11
0.000316479
4.49174e-11
0.000316479
-9.4925e-11
0.000316479
-1.98898e-11
0.000316479
1.66903e-11
0.000316479
-5.61539e-11
0.000316479
-2.68841e-11
0.000316479
-7.51529e-11
0.000316479
-3.63755e-11
0.000316479
-1.40665e-10
0.000316479
-2.43546e-11
0.000316479
-2.13976e-10
-1.92779e-10
0.00031648
1.32713e-10
0.000316479
3.27379e-10
0.000316479
1.3159e-10
0.000316479
4.16125e-11
0.000316479
4.17114e-11
0.000316479
4.35877e-11
0.000316479
-3.88084e-11
0.000316479
-1.53208e-11
0.000316479
4.5981e-11
0.000316479
-9.42113e-11
0.000316479
-2.05479e-11
0.000316479
1.95616e-11
0.000316479
-4.8201e-11
0.000316479
-2.99017e-11
0.000316479
-7.0289e-11
0.000316479
-4.50215e-11
0.000316479
-1.3614e-10
0.000316479
-3.93293e-11
0.000316479
-1.66171e-10
-1.10845e-10
0.000310151
2.15104e-10
0.000310151
3.9549e-10
0.000310151
1.46369e-10
0.000310151
4.7376e-11
0.000310151
4.05834e-11
0.000310151
4.19348e-11
0.000310151
-3.58585e-11
0.000310151
-1.71092e-11
0.000310151
4.59551e-11
0.000310151
-9.09042e-11
0.000310151
-2.0846e-11
0.000310151
2.17045e-11
0.000310151
-3.93537e-11
0.000310151
-3.25315e-11
0.000310151
-6.31107e-11
0.000310151
-5.12484e-11
0.000310151
-1.28793e-10
0.000310151
-5.33791e-11
0.000310151
-1.16867e-10
-3.01373e-11
0.000297493
2.74202e-10
0.000297493
4.29543e-10
0.000297493
1.48364e-10
0.000297493
4.97691e-11
0.000297493
3.72039e-11
0.000297493
3.88444e-11
0.000297493
-3.17304e-11
0.000297493
-1.7834e-11
0.000297493
4.46992e-11
0.000297493
-8.5147e-11
0.000297493
-2.08399e-11
0.000297493
2.2996e-11
0.000297493
-3.02595e-11
0.000297493
-3.46073e-11
0.000297493
-5.43392e-11
0.000297493
-5.43155e-11
0.000297493
-1.19137e-10
0.000297493
-6.44424e-11
0.000297493
-7.19976e-11
3.95988e-11
0.000278506
3.02535e-10
0.000278506
4.23117e-10
0.000278506
1.36763e-10
0.000278506
4.85472e-11
0.000278506
3.18128e-11
0.000278506
3.49079e-11
0.000278506
-2.63541e-11
0.000278506
-1.75517e-11
0.000278506
4.20808e-11
0.000278506
-7.72141e-11
0.000278506
-2.06339e-11
0.000278506
2.33175e-11
0.000278506
-2.15145e-11
0.000278506
-3.59375e-11
0.000278506
-4.46986e-11
0.000278506
-5.36498e-11
0.000278506
-1.07468e-10
0.000278506
-7.07992e-11
0.000278506
-3.65796e-11
9.01767e-11
0.00025319
2.96358e-10
0.00025319
3.7541e-10
0.00025319
1.13243e-10
0.00025319
4.39986e-11
0.00025319
2.47764e-11
0.00025319
3.06688e-11
0.00025319
-1.96944e-11
0.00025319
-1.63357e-11
0.00025319
3.80154e-11
0.00025319
-6.75105e-11
0.00025319
-2.03515e-11
0.00025319
2.25915e-11
0.00025319
-1.36392e-11
0.00025319
-3.63298e-11
0.00025319
-3.48207e-11
0.00025319
-4.88743e-11
0.00025319
-9.38746e-11
0.00025319
-7.1345e-11
0.00025319
-1.3915e-11
1.16123e-10
0.000221543
2.5664e-10
0.000221543
2.92444e-10
0.000221544
8.19984e-11
0.000221544
3.67001e-11
0.000221544
1.63344e-11
0.000221544
2.64741e-11
0.000221544
-1.17524e-11
0.000221544
-1.42286e-11
0.000221544
3.24368e-11
0.000221544
-5.65773e-11
0.000221544
-1.99703e-11
0.000221544
2.08849e-11
0.000221544
-7.13369e-12
0.000221544
-3.56467e-11
0.000221544
-2.51775e-11
0.000221544
-3.99278e-11
0.000221544
-7.83212e-11
0.000221544
-6.56809e-11
0.000221544
-4.63139e-12
1.15747e-10
0.000183567
1.9108e-10
0.000183567
1.87909e-10
0.000183567
4.86486e-11
0.000183567
2.70403e-11
0.000183567
6.39076e-12
0.000183567
2.20468e-11
0.000183567
-2.57199e-12
0.000183567
-1.09429e-11
0.000183567
2.55706e-11
0.000183567
-4.46762e-11
0.000183567
-1.92367e-11
0.000183567
1.83882e-11
0.000183567
-2.38209e-12
0.000183567
-3.37866e-11
0.000183567
-1.63696e-11
0.000183567
-2.71982e-11
0.000183567
-6.11637e-11
0.000183567
-5.41141e-11
0.000183567
-4.99367e-12
9.25352e-11
0.00013926
1.13015e-10
0.00013926
8.39203e-11
0.00013926
2.09634e-11
0.00013926
1.41264e-11
0.00013926
-6.85816e-12
0.00013926
1.64904e-11
0.00013926
8.05757e-12
0.00013926
-6.22595e-12
0.00013926
1.73202e-11
0.00013926
-3.17093e-11
0.00013926
-1.64651e-11
0.00013926
1.65376e-11
0.00013926
-9.27236e-14
0.00013926
-3.09552e-11
0.00013926
-8.26095e-12
0.00013926
-1.20141e-11
0.00013926
-4.21027e-11
0.00013926
-3.53272e-11
0.00013926
-4.67587e-12
5.58808e-11
8.86216e-05
4.38784e-11
8.86216e-05
5.91848e-12
8.86216e-05
4.51489e-12
8.86217e-05
2.15208e-12
8.86217e-05
-1.91115e-11
8.86217e-05
9.3831e-12
8.86217e-05
1.872e-11
8.86217e-05
-1.486e-12
8.86217e-05
6.72791e-12
8.86217e-05
-1.67888e-11
8.86217e-05
-1.04889e-11
8.86217e-05
1.61558e-11
8.86217e-05
5.30353e-13
8.86217e-05
-2.65608e-11
8.86217e-05
-1.63869e-12
8.86217e-05
5.07021e-12
8.86217e-05
-2.33201e-11
8.86217e-05
-1.41541e-11
8.86217e-05
6.0107e-12
1.88753e-11
3.16514e-05
3.16514e-05
3.16514e-05
3.16514e-05
3.16514e-05
3.16514e-05
3.16514e-05
3.16514e-05
3.16514e-05
3.16514e-05
3.16514e-05
3.16514e-05
3.16514e-05
3.16514e-05
3.16514e-05
3.16514e-05
3.16514e-05
3.16514e-05
3.16514e-05
)
;

boundaryField
{
    top
    {
        type            calculated;
        value           uniform 0;
    }
    bottom
    {
        type            calculated;
        value           uniform 0;
    }
    inlet
    {
        type            calculated;
        value           nonuniform List<scalar> 
20
(
-3.16513e-05
-8.86215e-05
-0.00013926
-0.000183567
-0.000221543
-0.000253189
-0.000278506
-0.000297493
-0.000310151
-0.00031648
-0.00031648
-0.000310151
-0.000297493
-0.000278506
-0.00025319
-0.000221543
-0.000183567
-0.00013926
-8.86215e-05
-3.16513e-05
)
;
    }
    outlet
    {
        type            calculated;
        value           nonuniform List<scalar> 
20
(
3.16514e-05
8.86216e-05
0.00013926
0.000183567
0.000221543
0.000253189
0.000278506
0.000297493
0.00031015
0.000316479
0.000316479
0.000310151
0.000297493
0.000278506
0.00025319
0.000221544
0.000183567
0.00013926
8.86217e-05
3.16514e-05
)
;
    }
    frontAndBack
    {
        type            empty;
        value           nonuniform 0();
    }
}


// ************************************************************************* //
