/*--------------------------------*- C++ -*----------------------------------*\
| =========                 |                                                 |
| \\      /  F ield         | OpenFOAM: The Open Source CFD Toolbox           |
|  \\    /   O peration     | Version:  4.1                                   |
|   \\  /    A nd           | Web:      www.OpenFOAM.org                      |
|    \\/     M anipulation  |                                                 |
\*---------------------------------------------------------------------------*/
FoamFile
{
    version     2.0;
    format      ascii;
    class       volVectorField;
    location    "0.8";
    object      U;
}
// * * * * * * * * * * * * * * * * * * * * * * * * * * * * * * * * * * * * * //

dimensions      [0 1 -1 0 0 0 0];

internalField   nonuniform List<vector> 
400
(
(0.633027 -3.01231e-09 0)
(0.633027 1.11909e-08 0)
(0.633027 -1.06868e-08 0)
(0.633027 -1.1155e-08 0)
(0.633027 3.5008e-09 0)
(0.633027 5.36036e-10 0)
(0.633027 -4.37317e-09 0)
(0.633027 5.5047e-09 0)
(0.633027 -4.01805e-12 0)
(0.633027 -2.07396e-09 0)
(0.633027 2.22325e-09 0)
(0.633027 -1.5702e-11 0)
(0.633027 -1.68767e-09 0)
(0.633027 3.94083e-11 0)
(0.633027 -5.61223e-09 0)
(0.633027 7.79063e-10 0)
(0.633027 -1.94745e-10 0)
(0.633027 3.46914e-09 0)
(0.633027 -2.84818e-09 0)
(0.633027 -1.17357e-08 0)
(1.77243 -5.61888e-08 0)
(1.77243 -4.06092e-09 0)
(1.77243 -4.19958e-09 0)
(1.77243 -6.71534e-09 0)
(1.77243 8.74189e-09 0)
(1.77243 -5.97834e-09 0)
(1.77243 -2.09996e-08 0)
(1.77243 1.02357e-08 0)
(1.77243 8.58982e-10 0)
(1.77243 -1.22405e-08 0)
(1.77243 8.4616e-10 0)
(1.77243 -1.88327e-09 0)
(1.77243 -1.12069e-08 0)
(1.77243 -5.28431e-09 0)
(1.77243 -1.15292e-08 0)
(1.77243 7.96921e-09 0)
(1.77243 -1.36602e-08 0)
(1.77243 -8.20089e-09 0)
(1.77243 -3.21203e-08 0)
(1.77243 -6.28994e-08 0)
(2.7852 -1.23142e-07 0)
(2.7852 -3.51225e-08 0)
(2.7852 -1.74566e-08 0)
(2.7852 -2.14769e-08 0)
(2.7852 8.42423e-09 0)
(2.7852 -8.12726e-10 0)
(2.7852 -2.51609e-08 0)
(2.7852 1.51813e-08 0)
(2.7852 1.078e-08 0)
(2.7852 -2.41286e-08 0)
(2.7852 3.28477e-10 0)
(2.7852 -3.03359e-09 0)
(2.7852 -2.75181e-08 0)
(2.7852 -2.91915e-09 0)
(2.7852 -2.70508e-08 0)
(2.7852 1.06107e-08 0)
(2.7852 -3.87483e-08 0)
(2.7852 4.72659e-09 0)
(2.7852 -8.46182e-08 0)
(2.7852 -1.35387e-07 0)
(3.67134 -2.0112e-07 0)
(3.67134 -8.63708e-08 0)
(3.67134 -1.24699e-08 0)
(3.67134 -1.56036e-08 0)
(3.67134 7.44668e-09 0)
(3.67134 9.75129e-10 0)
(3.67134 -3.07679e-08 0)
(3.67134 1.269e-08 0)
(3.67134 1.81313e-08 0)
(3.67134 -3.8278e-08 0)
(3.67134 -5.01389e-09 0)
(3.67134 -3.52656e-09 0)
(3.67134 -4.30866e-08 0)
(3.67134 -6.14211e-09 0)
(3.67134 -3.70543e-08 0)
(3.67134 1.35871e-08 0)
(3.67134 -6.66507e-08 0)
(3.67134 4.54414e-09 0)
(3.67134 -1.51663e-07 0)
(3.67134 -2.19492e-07 0)
(4.43087 -2.48963e-07 0)
(4.43087 -1.15379e-07 0)
(4.43087 -1.32364e-08 0)
(4.43087 -1.33093e-08 0)
(4.43087 1.20389e-08 0)
(4.43087 9.2312e-09 0)
(4.43087 -3.45232e-08 0)
(4.43087 1.0226e-08 0)
(4.43087 2.47416e-08 0)
(4.43087 -5.26772e-08 0)
(4.43087 -8.78249e-09 0)
(4.43087 -2.62514e-09 0)
(4.43087 -5.51615e-08 0)
(4.43087 -8.09268e-09 0)
(4.43087 -4.87265e-08 0)
(4.43087 1.18655e-08 0)
(4.43087 -9.08399e-08 0)
(4.43087 9.4815e-09 0)
(4.43087 -2.14691e-07 0)
(4.43087 -2.91495e-07 0)
(5.06379 -2.63053e-07 0)
(5.06379 -1.13685e-07 0)
(5.06379 -6.46304e-09 0)
(5.06379 -8.06491e-09 0)
(5.06379 1.74586e-08 0)
(5.06379 1.7576e-08 0)
(5.06379 -3.75651e-08 0)
(5.06379 6.48555e-09 0)
(5.06379 3.00088e-08 0)
(5.06379 -6.55693e-08 0)
(5.06379 -1.20826e-08 0)
(5.06379 -1.70674e-10 0)
(5.06379 -6.31699e-08 0)
(5.06379 -1.12197e-08 0)
(5.06379 -5.90552e-08 0)
(5.06379 7.0837e-09 0)
(5.06379 -1.10589e-07 0)
(5.06379 1.15837e-08 0)
(5.06379 -2.60934e-07 0)
(5.06379 -3.39055e-07 0)
(5.57012 -2.4117e-07 0)
(5.57012 -7.70847e-08 0)
(5.57012 8.5566e-09 0)
(5.57012 -9.72149e-10 0)
(5.57012 2.34871e-08 0)
(5.57012 2.58557e-08 0)
(5.57012 -3.96957e-08 0)
(5.57012 2.25303e-09 0)
(5.57012 3.45196e-08 0)
(5.57012 -7.64233e-08 0)
(5.57012 -1.46509e-08 0)
(5.57012 3.30184e-09 0)
(5.57012 -6.7258e-08 0)
(5.57012 -1.47073e-08 0)
(5.57012 -6.77295e-08 0)
(5.57012 -4.48162e-10 0)
(5.57012 -1.25733e-07 0)
(5.57012 1.06067e-08 0)
(5.57012 -2.85677e-07 0)
(5.57012 -3.56225e-07 0)
(5.94986 -1.86814e-07 0)
(5.94986 -8.9444e-09 0)
(5.94986 3.18793e-08 0)
(5.94985 7.96754e-09 0)
(5.94985 2.95164e-08 0)
(5.94985 3.30651e-08 0)
(5.94985 -4.10234e-08 0)
(5.94985 -2.27799e-09 0)
(5.94985 3.83913e-08 0)
(5.94985 -8.48448e-08 0)
(5.94986 -1.66802e-08 0)
(5.94985 7.23971e-09 0)
(5.94986 -6.76891e-08 0)
(5.94985 -1.83303e-08 0)
(5.94986 -7.37613e-08 0)
(5.94985 -9.94823e-09 0)
(5.94986 -1.35865e-07 0)
(5.94985 5.47939e-09 0)
(5.94986 -2.87894e-07 0)
(5.94985 -3.41681e-07 0)
(6.20301 -1.07167e-07 0)
(6.20301 8.2486e-08 0)
(6.20301 6.12681e-08 0)
(6.20301 1.81656e-08 0)
(6.20301 3.4896e-08 0)
(6.20301 3.86575e-08 0)
(6.20301 -4.14861e-08 0)
(6.20301 -6.72816e-09 0)
(6.20301 4.15533e-08 0)
(6.20301 -9.07281e-08 0)
(6.20301 -1.82579e-08 0)
(6.20301 1.1234e-08 0)
(6.20301 -6.49224e-08 0)
(6.20301 -2.19083e-08 0)
(6.20301 -7.66764e-08 0)
(6.20301 -2.05144e-08 0)
(6.20301 -1.41136e-07 0)
(6.20301 -3.90848e-09 0)
(6.20301 -2.69741e-07 0)
(6.20301 -2.98301e-07 0)
(6.32959 -1.21483e-08 0)
(6.32959 1.8507e-07 0)
(6.32959 9.27412e-08 0)
(6.32959 2.86808e-08 0)
(6.32959 3.9013e-08 0)
(6.32959 4.22108e-08 0)
(6.32959 -4.10603e-08 0)
(6.32959 -1.07543e-08 0)
(6.32959 4.3934e-08 0)
(6.32959 -9.3999e-08 0)
(6.32959 -1.94467e-08 0)
(6.32959 1.49447e-08 0)
(6.32959 -5.95636e-08 0)
(6.32959 -2.53373e-08 0)
(6.32959 -7.62846e-08 0)
(6.32959 -3.1121e-08 0)
(6.32959 -1.41934e-07 0)
(6.32959 -1.68287e-08 0)
(6.32959 -2.35369e-07 0)
(6.32959 -2.32355e-07 0)
(6.32959 8.6836e-08 0)
(6.32959 2.84756e-07 0)
(6.32959 1.21331e-07 0)
(6.32959 3.82815e-08 0)
(6.32959 4.13287e-08 0)
(6.32959 4.35861e-08 0)
(6.32959 -3.96898e-08 0)
(6.32959 -1.40539e-08 0)
(6.32959 4.54259e-08 0)
(6.32959 -9.46313e-08 0)
(6.32959 -2.02616e-08 0)
(6.32959 1.81454e-08 0)
(6.32959 -5.22785e-08 0)
(6.32959 -2.85283e-08 0)
(6.32959 -7.27857e-08 0)
(6.32959 -4.07398e-08 0)
(6.32959 -1.38876e-07 0)
(6.32959 -3.18026e-08 0)
(6.32959 -1.90279e-07 0)
(6.32959 -1.52535e-07 0)
(6.20302 1.78046e-07 0)
(6.20301 3.67405e-07 0)
(6.20301 1.42086e-07 0)
(6.20301 4.57105e-08 0)
(6.20301 4.14721e-08 0)
(6.20301 4.29087e-08 0)
(6.20301 -3.72972e-08 0)
(6.20301 -1.6414e-08 0)
(6.20301 4.58997e-08 0)
(6.20301 -9.26485e-08 0)
(6.20301 -2.07071e-08 0)
(6.20301 2.06828e-08 0)
(6.20301 -4.37546e-08 0)
(6.20301 -3.13746e-08 0)
(6.20301 -6.66732e-08 0)
(6.20301 -4.84076e-08 0)
(6.20301 -1.32657e-07 0)
(6.20301 -4.68617e-08 0)
(6.20301 -1.40612e-07 0)
(6.20301 -6.88577e-08 0)
(5.94986 2.50559e-07 0)
(5.94986 4.20619e-07 0)
(5.94986 1.51069e-07 0)
(5.94986 4.99688e-08 0)
(5.94986 3.93207e-08 0)
(5.94986 4.05425e-08 0)
(5.94986 -3.38024e-08 0)
(5.94986 -1.77384e-08 0)
(5.94986 4.52158e-08 0)
(5.94986 -8.81461e-08 0)
(5.94986 -2.08164e-08 0)
(5.94986 2.24348e-08 0)
(5.94986 -3.46629e-08 0)
(5.94986 -3.37319e-08 0)
(5.94986 -5.86266e-08 0)
(5.94986 -5.32831e-08 0)
(5.94986 -1.23897e-07 0)
(5.94986 -5.98625e-08 0)
(5.94986 -9.2535e-08 0)
(5.94986 8.45967e-09 0)
(5.57012 2.95358e-07 0)
(5.57012 4.35521e-07 0)
(5.57012 1.46288e-07 0)
(5.57012 5.05432e-08 0)
(5.57012 3.49928e-08 0)
(5.57012 3.70326e-08 0)
(5.57012 -2.91273e-08 0)
(5.57012 -1.80478e-08 0)
(5.57012 4.32099e-08 0)
(5.57012 -8.13557e-08 0)
(5.57012 -2.06594e-08 0)
(5.57012 2.32884e-08 0)
(5.57012 -2.56409e-08 0)
(5.57012 -3.54363e-08 0)
(5.57012 -4.93805e-08 0)
(5.57012 -5.46784e-08 0)
(5.57012 -1.13029e-07 0)
(5.57012 -6.8857e-08 0)
(5.57012 -5.16699e-08 0)
(5.57012 7.01803e-08 0)
(5.06379 3.06787e-07 0)
(5.06379 4.08038e-07 0)
(5.06379 1.28012e-07 0)
(5.06379 4.75795e-08 0)
(5.06379 2.88687e-08 0)
(5.06379 3.28946e-08 0)
(5.06379 -2.32341e-08 0)
(5.06379 -1.73299e-08 0)
(5.06379 3.98169e-08 0)
(5.06379 -7.25734e-08 0)
(5.06379 -2.04076e-08 0)
(5.06379 2.31351e-08 0)
(5.06379 -1.72089e-08 0)
(5.06379 -3.62828e-08 0)
(5.06379 -3.96195e-08 0)
(5.06379 -5.20746e-08 0)
(5.06379 -1.00294e-07 0)
(5.06379 -7.23997e-08 0)
(5.06379 -2.22875e-08 0)
(5.06379 1.09259e-07 0)
(4.43087 2.8274e-07 0)
(4.43087 3.40528e-07 0)
(4.43087 9.94842e-08 0)
(4.43087 4.16134e-08 0)
(4.43087 2.1215e-08 0)
(4.43087 2.86692e-08 0)
(4.43087 -1.60888e-08 0)
(4.43087 -1.57507e-08 0)
(4.43087 3.48148e-08 0)
(4.43087 -6.24187e-08 0)
(4.43087 -2.00816e-08 0)
(4.43087 2.19933e-08 0)
(4.43087 -9.95489e-09 0)
(4.43087 -3.61498e-08 0)
(4.43087 -2.98214e-08 0)
(4.43087 -4.52455e-08 0)
(4.43087 -8.5577e-08 0)
(4.43087 -6.97698e-08 0)
(4.43087 -6.86325e-09 0)
(4.43087 1.21708e-07 0)
(3.67134 2.28788e-07 0)
(3.67134 2.4237e-07 0)
(3.67134 6.42564e-08 0)
(3.67134 3.30496e-08 0)
(3.67134 1.25726e-08 0)
(3.67134 2.42224e-08 0)
(3.67134 -7.67392e-09 0)
(3.67134 -1.27555e-08 0)
(3.67134 2.88995e-08 0)
(3.67134 -5.07878e-08 0)
(3.67134 -2.01306e-08 0)
(3.67134 1.939e-08 0)
(3.67134 -4.01323e-09 0)
(3.67134 -3.47856e-08 0)
(3.67134 -2.11591e-08 0)
(3.67134 -3.40191e-08 0)
(3.67134 -6.97942e-08 0)
(3.67134 -6.19243e-08 0)
(3.67134 -4.21805e-09 0)
(3.67134 1.08438e-07 0)
(2.7852 1.44591e-07 0)
(2.7852 1.31861e-07 0)
(2.7852 3.69839e-08 0)
(2.7852 2.13686e-08 0)
(2.7852 -2.86935e-10 0)
(2.7852 2.14735e-08 0)
(2.7852 3.16791e-09 0)
(2.7852 -1.09454e-08 0)
(2.7852 1.89208e-08 0)
(2.7852 -4.00037e-08 0)
(2.7852 -1.68202e-08 0)
(2.7852 1.94788e-08 0)
(2.7852 -1.39064e-09 0)
(2.7852 -3.36567e-08 0)
(2.7852 -1.0297e-08 0)
(2.7852 -1.95983e-08 0)
(2.7852 -4.89739e-08 0)
(2.7852 -4.35472e-08 0)
(2.7852 -8.10089e-09 0)
(2.7852 7.30035e-08 0)
(1.77243 8.34808e-08 0)
(1.77243 3.84687e-08 0)
(1.77243 5.1225e-09 0)
(1.77243 6.09456e-09 0)
(1.77243 -1.42892e-08 0)
(1.77243 1.21123e-08 0)
(1.77243 1.49473e-08 0)
(1.77243 -1.81943e-09 0)
(1.77243 1.47474e-08 0)
(1.77243 -2.36406e-08 0)
(1.77243 -1.57366e-08 0)
(1.77243 1.57238e-08 0)
(1.77243 1.04577e-09 0)
(1.77243 -3.01654e-08 0)
(1.77243 -7.28436e-09 0)
(1.77243 -1.80998e-09 0)
(1.77243 -3.68081e-08 0)
(1.77243 -2.779e-08 0)
(1.77243 1.45642e-09 0)
(1.77243 3.86463e-08 0)
(0.633027 1.03427e-08 0)
(0.633027 -1.09259e-09 0)
(0.633028 6.49977e-09 0)
(0.633027 3.01301e-09 0)
(0.633028 -7.20394e-09 0)
(0.633028 7.70406e-09 0)
(0.633028 8.78052e-09 0)
(0.633028 -4.29055e-09 0)
(0.633028 -7.13141e-10 0)
(0.633028 -9.62184e-09 0)
(0.633028 -3.45222e-09 0)
(0.633028 9.31602e-09 0)
(0.633028 1.96272e-10 0)
(0.633028 -1.34236e-08 0)
(0.633028 1.72115e-09 0)
(0.633028 2.42126e-09 0)
(0.633028 -7.15652e-09 0)
(0.633028 -5.59784e-09 0)
(0.633028 -3.9782e-09 0)
(0.633028 5.20614e-09 0)
)
;

boundaryField
{
    top
    {
        type            fixedValue;
        value           uniform (0 0 0);
    }
    bottom
    {
        type            fixedValue;
        value           uniform (0 0 0);
    }
    inlet
    {
        type            zeroGradient;
    }
    outlet
    {
        type            zeroGradient;
    }
    frontAndBack
    {
        type            empty;
    }
}


// ************************************************************************* //
