/*--------------------------------*- C++ -*----------------------------------*\
| =========                 |                                                 |
| \\      /  F ield         | OpenFOAM: The Open Source CFD Toolbox           |
|  \\    /   O peration     | Version:  4.1                                   |
|   \\  /    A nd           | Web:      www.OpenFOAM.org                      |
|    \\/     M anipulation  |                                                 |
\*---------------------------------------------------------------------------*/
FoamFile
{
    version     2.0;
    format      ascii;
    class       volScalarField;
    location    "2.6";
    object      p;
}
// * * * * * * * * * * * * * * * * * * * * * * * * * * * * * * * * * * * * * //

dimensions      [0 2 -2 0 0 0 0];

internalField   nonuniform List<scalar> 
400
(
1.18989e-09
1.32815e-09
1.1333e-09
1.21216e-09
1.06872e-09
1.11012e-09
1.00163e-09
1.01312e-09
9.3086e-10
9.19129e-10
8.57713e-10
8.26937e-10
7.83288e-10
7.35578e-10
7.08465e-10
6.44225e-10
6.34346e-10
5.53681e-10
5.6649e-10
5.34186e-10
1.18557e-09
1.32373e-09
1.13297e-09
1.21207e-09
1.06873e-09
1.1101e-09
1.00164e-09
1.01311e-09
9.30865e-10
9.19125e-10
8.57715e-10
8.26937e-10
7.83286e-10
7.3558e-10
7.08461e-10
6.44227e-10
6.34297e-10
5.53714e-10
5.63543e-10
5.31068e-10
1.18313e-09
1.32059e-09
1.13257e-09
1.21206e-09
1.06867e-09
1.11014e-09
1.00161e-09
1.01313e-09
9.30848e-10
9.19137e-10
8.57707e-10
8.2694e-10
7.83287e-10
7.35575e-10
7.08468e-10
6.44211e-10
6.34276e-10
5.53682e-10
5.61222e-10
5.28922e-10
1.18236e-09
1.31912e-09
1.13218e-09
1.21207e-09
1.06861e-09
1.11018e-09
1.00158e-09
1.01316e-09
9.30828e-10
9.19151e-10
8.57699e-10
8.26944e-10
7.83288e-10
7.3557e-10
7.08478e-10
6.44193e-10
6.34268e-10
5.53602e-10
5.59892e-10
5.27826e-10
1.1826e-09
1.31882e-09
1.13182e-09
1.21208e-09
1.06857e-09
1.11021e-09
1.00155e-09
1.01318e-09
9.30812e-10
9.19163e-10
8.57692e-10
8.26947e-10
7.83289e-10
7.35566e-10
7.08486e-10
6.44179e-10
6.34263e-10
5.53499e-10
5.59334e-10
5.27446e-10
1.18351e-09
1.31929e-09
1.13146e-09
1.21208e-09
1.06853e-09
1.11024e-09
1.00153e-09
1.0132e-09
9.30799e-10
9.19171e-10
8.57686e-10
8.26949e-10
7.83289e-10
7.35562e-10
7.08493e-10
6.44168e-10
6.34261e-10
5.53384e-10
5.59393e-10
5.27625e-10
1.18488e-09
1.32031e-09
1.13109e-09
1.21208e-09
1.06849e-09
1.11026e-09
1.00151e-09
1.01321e-09
9.3079e-10
9.19178e-10
8.57682e-10
8.26951e-10
7.8329e-10
7.35559e-10
7.08498e-10
6.4416e-10
6.34262e-10
5.53265e-10
5.59969e-10
5.28267e-10
1.1865e-09
1.32163e-09
1.13071e-09
1.21207e-09
1.06847e-09
1.11027e-09
1.0015e-09
1.01322e-09
9.30782e-10
9.19183e-10
8.57679e-10
8.26952e-10
7.83291e-10
7.35557e-10
7.08503e-10
6.44154e-10
6.34265e-10
5.53154e-10
5.60939e-10
5.29245e-10
1.18813e-09
1.32303e-09
1.13032e-09
1.21206e-09
1.06845e-09
1.11028e-09
1.00149e-09
1.01323e-09
9.30777e-10
9.19187e-10
8.57677e-10
8.26953e-10
7.83291e-10
7.35555e-10
7.08506e-10
6.4415e-10
6.34269e-10
5.53058e-10
5.62154e-10
5.30407e-10
1.18957e-09
1.32427e-09
1.12991e-09
1.21203e-09
1.06843e-09
1.11029e-09
1.00149e-09
1.01323e-09
9.30775e-10
9.19188e-10
8.57676e-10
8.26953e-10
7.83292e-10
7.35554e-10
7.08508e-10
6.44149e-10
6.34271e-10
5.52983e-10
5.63454e-10
5.31596e-10
1.19064e-09
1.32518e-09
1.12951e-09
1.21199e-09
1.06842e-09
1.11029e-09
1.00149e-09
1.01323e-09
9.30776e-10
9.19188e-10
8.57676e-10
8.26953e-10
7.83292e-10
7.35554e-10
7.08509e-10
6.4415e-10
6.3427e-10
5.52934e-10
5.64681e-10
5.32661e-10
1.19121e-09
1.32562e-09
1.1291e-09
1.21194e-09
1.06842e-09
1.11028e-09
1.00149e-09
1.01322e-09
9.30779e-10
9.19185e-10
8.57678e-10
8.26952e-10
7.83292e-10
7.35555e-10
7.08509e-10
6.44154e-10
6.34263e-10
5.52911e-10
5.65691e-10
5.33463e-10
1.19117e-09
1.3255e-09
1.12871e-09
1.21187e-09
1.06842e-09
1.11027e-09
1.0015e-09
1.01322e-09
9.30785e-10
9.19181e-10
8.57681e-10
8.26951e-10
7.83292e-10
7.35556e-10
7.08507e-10
6.44159e-10
6.34251e-10
5.52913e-10
5.66363e-10
5.33891e-10
1.19052e-09
1.32481e-09
1.12835e-09
1.21179e-09
1.06843e-09
1.11025e-09
1.00152e-09
1.01321e-09
9.30793e-10
9.19175e-10
8.57684e-10
8.26949e-10
7.83292e-10
7.35558e-10
7.08504e-10
6.44166e-10
6.34232e-10
5.52937e-10
5.66609e-10
5.33867e-10
1.18929e-09
1.3236e-09
1.12802e-09
1.2117e-09
1.06845e-09
1.11023e-09
1.00154e-09
1.01319e-09
9.30804e-10
9.19168e-10
8.57689e-10
8.26947e-10
7.83292e-10
7.35561e-10
7.08499e-10
6.44175e-10
6.34205e-10
5.52978e-10
5.66381e-10
5.33351e-10
1.18758e-09
1.32198e-09
1.12773e-09
1.21161e-09
1.06847e-09
1.1102e-09
1.00156e-09
1.01317e-09
9.30817e-10
9.19158e-10
8.57695e-10
8.26944e-10
7.83292e-10
7.35564e-10
7.08493e-10
6.44185e-10
6.34172e-10
5.5303e-10
5.65692e-10
5.32361e-10
1.18555e-09
1.32014e-09
1.12751e-09
1.2115e-09
1.06851e-09
1.11016e-09
1.00158e-09
1.01315e-09
9.30833e-10
9.19147e-10
8.57702e-10
8.26941e-10
7.83291e-10
7.35568e-10
7.08485e-10
6.44196e-10
6.34131e-10
5.53089e-10
5.64598e-10
5.30947e-10
1.18349e-09
1.31842e-09
1.12735e-09
1.21139e-09
1.06855e-09
1.11012e-09
1.00162e-09
1.01313e-09
9.30854e-10
9.19133e-10
8.57711e-10
8.26937e-10
7.83291e-10
7.35574e-10
7.08475e-10
6.44209e-10
6.34082e-10
5.53149e-10
5.63225e-10
5.29224e-10
1.1819e-09
1.31714e-09
1.12724e-09
1.21128e-09
1.06859e-09
1.11008e-09
1.00165e-09
1.0131e-09
9.30871e-10
9.1912e-10
8.57719e-10
8.26933e-10
7.8329e-10
7.35578e-10
7.08466e-10
6.44219e-10
6.34032e-10
5.53202e-10
5.61665e-10
5.27366e-10
1.18161e-09
1.31658e-09
1.12709e-09
1.21126e-09
1.06856e-09
1.11009e-09
1.00164e-09
1.01311e-09
9.30865e-10
9.19125e-10
8.57716e-10
8.26934e-10
7.83291e-10
7.35576e-10
7.08469e-10
6.44209e-10
6.34004e-10
5.53222e-10
5.60202e-10
5.25934e-10
)
;

boundaryField
{
    top
    {
        type            zeroGradient;
    }
    bottom
    {
        type            zeroGradient;
    }
    inlet
    {
        type            fixedValue;
        value           uniform 0;
    }
    outlet
    {
        type            fixedValue;
        value           uniform 0;
    }
    frontAndBack
    {
        type            empty;
    }
}


// ************************************************************************* //
