/*--------------------------------*- C++ -*----------------------------------*\
| =========                 |                                                 |
| \\      /  F ield         | OpenFOAM: The Open Source CFD Toolbox           |
|  \\    /   O peration     | Version:  4.1                                   |
|   \\  /    A nd           | Web:      www.OpenFOAM.org                      |
|    \\/     M anipulation  |                                                 |
\*---------------------------------------------------------------------------*/
FoamFile
{
    version     2.0;
    format      ascii;
    class       surfaceScalarField;
    location    "2.6";
    object      phi;
}
// * * * * * * * * * * * * * * * * * * * * * * * * * * * * * * * * * * * * * //

dimensions      [0 3 -1 0 0 0 0];

internalField   nonuniform List<scalar> 
760
(
1.25e-06
-1.84933e-15
1.25e-06
-1.27033e-15
1.25e-06
1.58563e-17
1.25e-06
-8.99367e-17
1.25e-06
5.99176e-17
1.25e-06
-5.06741e-17
1.25e-06
4.00729e-17
1.25e-06
-3.13565e-17
1.25e-06
2.35357e-17
1.25e-06
-1.65356e-17
1.25e-06
1.0131e-17
1.25e-06
-4.13787e-18
1.25e-06
-1.5683e-18
1.25e-06
7.11292e-18
1.25e-06
-1.28939e-17
1.25e-06
1.76285e-17
1.25e-06
-3.35704e-17
1.25e-06
4.73245e-17
1.25e-06
-7.61118e-16
-1.12181e-15
3.74999e-06
-5.58962e-15
3.74999e-06
-4.44502e-15
3.74999e-06
-9.21617e-17
3.74999e-06
-2.18865e-16
3.74999e-06
1.25591e-16
3.74999e-06
-1.09814e-16
3.74999e-06
8.60492e-17
3.74999e-06
-6.74142e-17
3.74999e-06
5.0513e-17
3.74999e-06
-3.54277e-17
3.74999e-06
2.16124e-17
3.74999e-06
-8.65007e-18
3.74999e-06
-3.67677e-18
3.74999e-06
1.56076e-17
3.74999e-06
-2.84368e-17
3.74999e-06
3.69334e-17
3.74999e-06
-8.8196e-17
3.74999e-06
1.24879e-16
3.74999e-06
-2.80325e-15
-3.62222e-15
6.24999e-06
-1.01126e-14
6.24999e-06
-8.76409e-15
6.24999e-06
-3.42189e-16
6.24999e-06
-3.35778e-16
6.24999e-06
1.61598e-16
6.24999e-06
-1.4768e-16
6.24999e-06
1.14358e-16
6.24999e-06
-8.97427e-17
6.24999e-06
6.70979e-17
6.24999e-06
-4.69548e-17
6.24999e-06
2.84896e-17
6.24999e-06
-1.11092e-17
6.24999e-06
-5.39826e-18
6.24999e-06
2.1296e-17
6.24999e-06
-3.90537e-17
6.24999e-06
4.75691e-17
6.24999e-06
-1.45473e-16
6.24999e-06
2.09441e-16
6.24999e-06
-5.75697e-15
-6.92565e-15
8.74999e-06
-1.47359e-14
8.74999e-06
-1.34821e-14
8.74999e-06
-6.87091e-16
8.74999e-06
-4.35748e-16
8.74999e-06
1.71637e-16
8.74999e-06
-1.66257e-16
8.74999e-06
1.26828e-16
8.74999e-06
-9.97537e-17
8.74999e-06
7.4379e-17
8.74999e-06
-5.19198e-17
8.74999e-06
3.13043e-17
8.74999e-06
-1.18169e-17
8.74999e-06
-6.65959e-18
8.74999e-06
2.43378e-17
8.74999e-06
-4.50211e-17
8.74999e-06
5.05878e-17
8.74999e-06
-2.01552e-16
8.74999e-06
2.95242e-16
8.74999e-06
-9.18646e-15
-1.05972e-14
1.125e-05
-1.88714e-14
1.125e-05
-1.79428e-14
1.125e-05
-1.07634e-15
1.125e-05
-5.13506e-16
1.125e-05
1.59782e-16
1.125e-05
-1.6774e-16
1.125e-05
1.25468e-16
1.125e-05
-9.89866e-17
1.125e-05
7.35531e-17
1.125e-05
-5.11904e-17
1.125e-05
3.06192e-17
1.125e-05
-1.10774e-17
1.125e-05
-7.40504e-18
1.125e-05
2.49481e-17
1.125e-05
-4.6693e-17
1.125e-05
4.71232e-17
1.125e-05
-2.52337e-16
1.125e-05
3.76759e-16
1.125e-05
-1.26733e-14
-1.42209e-14
1.375e-05
-2.20684e-14
1.375e-05
-2.1625e-14
1.375e-05
-1.46029e-15
1.375e-05
-5.64351e-16
1.375e-05
1.30376e-16
1.375e-05
-1.54515e-16
1.375e-05
1.12437e-16
1.375e-05
-8.91122e-17
1.375e-05
6.5902e-17
1.375e-05
-4.56914e-17
1.375e-05
2.70399e-17
1.375e-05
-9.19325e-18
1.375e-05
-7.62135e-18
1.375e-05
2.34011e-17
1.375e-05
-4.45195e-17
1.375e-05
3.83795e-17
1.375e-05
-2.93949e-16
1.375e-05
4.4823e-16
1.375e-05
-1.58394e-14
-1.74224e-14
1.625e-05
-2.40158e-14
1.625e-05
-2.41499e-14
1.625e-05
-1.79449e-15
1.625e-05
-5.84805e-16
1.625e-05
8.78892e-17
1.625e-05
-1.29178e-16
1.625e-05
9.00451e-17
1.625e-05
-7.19012e-17
1.625e-05
5.27731e-17
1.625e-05
-3.63724e-17
1.625e-05
2.11691e-17
1.625e-05
-6.46137e-18
1.625e-05
-7.31567e-18
1.625e-05
2.00195e-17
1.625e-05
-3.9038e-17
1.625e-05
2.5602e-17
1.625e-05
-3.23081e-16
1.625e-05
5.03766e-16
1.625e-05
-1.83732e-14
-1.98957e-14
1.875e-05
-2.45584e-14
1.875e-05
-2.53001e-14
1.875e-05
-2.04347e-15
1.875e-05
-5.7325e-16
1.875e-05
3.67886e-17
1.875e-05
-9.44802e-17
1.875e-05
6.06835e-17
1.875e-05
-4.92048e-17
1.875e-05
3.55748e-17
1.875e-05
-2.42414e-17
1.875e-05
1.36448e-17
1.875e-05
-3.16637e-18
1.875e-05
-6.54077e-18
1.875e-05
1.51787e-17
1.875e-05
-3.08627e-17
1.875e-05
1.00517e-17
1.875e-05
-3.37329e-16
1.875e-05
5.37834e-16
1.875e-05
-2.00464e-14
-2.14205e-14
2.125e-05
-2.36897e-14
2.125e-05
-2.50159e-14
2.125e-05
-2.18375e-15
2.125e-05
-5.30324e-16
2.125e-05
-1.85955e-17
2.125e-05
-5.33113e-17
2.125e-05
2.68027e-17
2.125e-05
-2.29174e-17
2.125e-05
1.57339e-17
2.125e-05
-1.02946e-17
2.125e-05
5.08539e-18
2.125e-05
4.22381e-19
2.125e-05
-5.36332e-18
2.125e-05
9.29205e-18
2.125e-05
-2.06921e-17
2.125e-05
-7.02476e-18
2.125e-05
-3.35406e-16
2.125e-05
5.46015e-16
2.125e-05
-2.07261e-14
-2.18745e-14
2.375e-05
-2.15442e-14
2.375e-05
-2.33895e-14
2.375e-05
-2.20556e-15
2.375e-05
-4.59174e-16
2.375e-05
-7.41489e-17
2.375e-05
-8.66647e-18
2.375e-05
-9.12668e-18
2.375e-05
5.05729e-18
2.375e-05
-5.28631e-18
2.375e-05
4.43e-18
2.375e-05
-3.89466e-18
2.375e-05
4.05492e-18
2.375e-05
-3.89415e-18
2.375e-05
2.80495e-18
2.375e-05
-9.28825e-18
2.375e-05
-2.43565e-17
2.375e-05
-3.17321e-16
2.375e-05
5.25873e-16
2.375e-05
-2.03785e-14
-2.12388e-14
2.625e-05
-1.83769e-14
2.625e-05
-2.06449e-14
2.625e-05
-2.11306e-15
2.625e-05
-3.65435e-16
2.625e-05
-1.26089e-16
2.625e-05
3.63938e-17
2.625e-05
-4.46235e-17
2.625e-05
3.27909e-17
2.625e-05
-2.60668e-17
2.625e-05
1.89541e-17
2.625e-05
-1.26978e-17
2.625e-05
7.49581e-18
2.625e-05
-2.23235e-18
2.625e-05
-3.82557e-18
2.625e-05
2.53812e-18
2.625e-05
-4.07523e-17
2.625e-05
-2.84446e-16
2.625e-05
4.77745e-16
2.625e-05
-1.9067e-14
-1.9596e-14
2.875e-05
-1.45348e-14
2.875e-05
-1.7109e-14
2.875e-05
-1.92292e-15
2.875e-05
-2.56993e-16
2.875e-05
-1.7099e-16
2.875e-05
7.87443e-17
2.875e-05
-7.72574e-17
2.875e-05
5.83993e-17
2.875e-05
-4.51924e-17
2.875e-05
3.22835e-17
2.875e-05
-2.0719e-17
2.875e-05
1.053e-17
2.875e-05
-5.32444e-19
2.875e-05
-1.01129e-17
2.875e-05
1.39363e-17
2.875e-05
-5.50333e-17
2.875e-05
-2.39481e-16
2.875e-05
4.0524e-16
2.875e-05
-1.69412e-14
-1.71194e-14
3.125e-05
-1.04246e-14
3.125e-05
-1.31768e-14
3.125e-05
-1.66137e-15
3.125e-05
-1.43488e-16
3.125e-05
-2.05772e-16
3.125e-05
1.15293e-16
3.125e-05
-1.04668e-16
3.125e-05
8.00287e-17
3.125e-05
-6.12677e-17
3.125e-05
4.3451e-17
3.125e-05
-2.74097e-17
3.125e-05
1.29638e-17
3.125e-05
1.06905e-18
3.125e-05
-1.55888e-17
3.125e-05
2.40504e-17
3.125e-05
-6.61125e-17
3.125e-05
-1.8631e-16
3.125e-05
3.15232e-16
3.125e-05
-1.42224e-14
-1.40584e-14
3.375e-05
-6.46697e-15
3.375e-05
-9.26289e-15
3.375e-05
-1.36011e-15
3.375e-05
-3.56469e-17
3.375e-05
-2.27671e-16
3.375e-05
1.42983e-16
3.375e-05
-1.24583e-16
3.375e-05
9.58632e-17
3.375e-05
-7.29654e-17
3.375e-05
5.15583e-17
3.375e-05
-3.2211e-17
3.375e-05
1.45929e-17
3.375e-05
2.42589e-18
3.375e-05
-1.97651e-17
3.375e-05
3.20243e-17
3.375e-05
-7.29789e-17
3.375e-05
-1.29713e-16
3.375e-05
2.17401e-16
3.375e-05
-1.11787e-14
-1.07122e-14
3.625e-05
-3.06116e-15
3.625e-05
-5.76139e-15
3.625e-05
-1.05092e-15
3.625e-05
5.55471e-17
3.625e-05
-2.34221e-16
3.625e-05
1.5884e-16
3.625e-05
-1.34828e-16
3.625e-05
1.04183e-16
3.625e-05
-7.8993e-17
3.625e-05
5.56933e-17
3.625e-05
-3.46082e-17
3.625e-05
1.525e-17
3.625e-05
3.39276e-18
3.625e-05
-2.21814e-17
3.625e-05
3.69985e-17
3.625e-05
-7.47566e-17
3.625e-05
-7.50934e-17
3.625e-05
1.23116e-16
3.625e-05
-8.10314e-15
-7.40655e-15
3.875e-05
-5.21842e-16
3.875e-05
-2.97949e-15
3.875e-05
-7.60934e-16
3.875e-05
1.19683e-16
3.875e-05
-2.23174e-16
3.875e-05
1.60034e-16
3.875e-05
-1.33371e-16
3.875e-05
1.03371e-16
3.875e-05
-7.81721e-17
3.875e-05
5.50605e-17
3.875e-05
-3.40749e-17
3.875e-05
1.47257e-17
3.875e-05
3.84802e-18
3.875e-05
-2.24362e-17
3.875e-05
3.8196e-17
3.875e-05
-7.07158e-17
3.875e-05
-2.80531e-17
3.875e-05
4.40108e-17
3.875e-05
-5.27434e-15
-4.45226e-15
4.125e-05
9.40762e-16
4.125e-05
-1.11288e-15
4.125e-05
-5.07164e-16
4.125e-05
1.47632e-16
4.125e-05
-1.92408e-16
4.125e-05
1.43925e-16
4.125e-05
-1.18312e-16
4.125e-05
9.1903e-17
4.125e-05
-6.93883e-17
4.125e-05
4.88506e-17
4.125e-05
-3.01573e-17
4.125e-05
1.2862e-17
4.125e-05
3.70668e-18
4.125e-05
-2.01741e-17
4.125e-05
3.48967e-17
4.125e-05
-6.03056e-17
4.125e-05
5.94379e-18
4.125e-05
-1.0095e-17
4.125e-05
-2.93951e-15
-2.12515e-15
4.375e-05
1.31031e-15
4.375e-05
-1.54992e-16
4.375e-05
-2.94362e-16
4.375e-05
1.32214e-16
4.375e-05
-1.39872e-16
4.375e-05
1.0806e-16
4.375e-05
-8.78912e-17
4.375e-05
6.84085e-17
4.375e-05
-5.15952e-17
4.375e-05
3.63157e-17
4.375e-05
-2.23836e-17
4.375e-05
9.47016e-18
4.375e-05
2.8785e-18
4.375e-05
-1.50926e-17
4.375e-05
2.64626e-17
4.375e-05
-4.31971e-17
4.375e-05
2.20628e-17
4.375e-05
-3.26926e-17
4.375e-05
-1.25495e-15
-6.04744e-16
4.625e-05
7.35973e-16
4.625e-05
7.69136e-17
4.625e-05
-1.12809e-16
4.625e-05
6.82223e-17
4.625e-05
-6.34961e-17
4.625e-05
5.02402e-17
4.625e-05
-4.0547e-17
4.625e-05
3.16044e-17
4.625e-05
-2.38127e-17
4.625e-05
1.67559e-17
4.625e-05
-1.0328e-17
4.625e-05
4.35838e-18
4.625e-05
1.35979e-18
4.625e-05
-6.98232e-18
4.625e-05
1.23732e-17
4.625e-05
-1.92765e-17
4.625e-05
1.61726e-17
4.625e-05
-2.28032e-17
4.625e-05
-2.93824e-16
2.06605e-17
4.875e-05
4.875e-05
4.875e-05
4.875e-05
4.875e-05
4.875e-05
4.875e-05
4.875e-05
4.875e-05
4.875e-05
4.875e-05
4.875e-05
4.875e-05
4.875e-05
4.875e-05
4.875e-05
4.875e-05
4.875e-05
4.875e-05
)
;

boundaryField
{
    top
    {
        type            calculated;
        value           uniform 0;
    }
    bottom
    {
        type            calculated;
        value           uniform 0;
    }
    inlet
    {
        type            calculated;
        value           nonuniform List<scalar> 
20
(
-1.25e-06
-3.74999e-06
-6.24999e-06
-8.74999e-06
-1.125e-05
-1.375e-05
-1.625e-05
-1.875e-05
-2.125e-05
-2.375e-05
-2.625e-05
-2.875e-05
-3.125e-05
-3.375e-05
-3.625e-05
-3.875e-05
-4.125e-05
-4.375e-05
-4.625e-05
-4.875e-05
)
;
    }
    outlet
    {
        type            calculated;
        value           nonuniform List<scalar> 
20
(
1.25e-06
3.74999e-06
6.24999e-06
8.74999e-06
1.125e-05
1.375e-05
1.625e-05
1.875e-05
2.125e-05
2.375e-05
2.625e-05
2.875e-05
3.125e-05
3.375e-05
3.625e-05
3.875e-05
4.125e-05
4.375e-05
4.625e-05
4.875e-05
)
;
    }
    frontAndBack
    {
        type            empty;
        value           nonuniform 0();
    }
}


// ************************************************************************* //
