/*--------------------------------*- C++ -*----------------------------------*\
| =========                 |                                                 |
| \\      /  F ield         | OpenFOAM: The Open Source CFD Toolbox           |
|  \\    /   O peration     | Version:  4.1                                   |
|   \\  /    A nd           | Web:      www.OpenFOAM.org                      |
|    \\/     M anipulation  |                                                 |
\*---------------------------------------------------------------------------*/
FoamFile
{
    version     2.0;
    format      ascii;
    class       volVectorField;
    location    "2.6";
    object      U;
}
// * * * * * * * * * * * * * * * * * * * * * * * * * * * * * * * * * * * * * //

dimensions      [0 1 -1 0 0 0 0];

internalField   nonuniform List<vector> 
400
(
(0.025 -8.2098e-13 0)
(0.025 -5.10498e-13 0)
(0.025 1.89362e-14 0)
(0.025 -4.4913e-14 0)
(0.025 3.15542e-14 0)
(0.025 -2.64078e-14 0)
(0.025 2.09507e-14 0)
(0.025 -1.63866e-14 0)
(0.025 1.2308e-14 0)
(0.025 -8.65332e-15 0)
(0.025 5.31111e-15 0)
(0.025 -2.18626e-15 0)
(0.025 -7.90163e-16 0)
(0.025 3.68663e-15 0)
(0.025 -6.67281e-15 0)
(0.025 9.2634e-15 0)
(0.025 -1.62374e-14 0)
(0.025 2.09638e-14 0)
(0.025 -2.8777e-13 0)
(0.025 -4.70011e-13 0)
(0.0749999 -3.46387e-12 0)
(0.0749999 -2.55446e-12 0)
(0.0749999 -6.725e-15 0)
(0.0749999 -1.52074e-13 0)
(0.0749999 9.60015e-14 0)
(0.0749999 -8.21297e-14 0)
(0.0749999 6.47344e-14 0)
(0.0749999 -5.06746e-14 0)
(0.0749999 3.80104e-14 0)
(0.0749999 -2.66871e-14 0)
(0.0749999 1.63228e-14 0)
(0.0749999 -6.61426e-15 0)
(0.0749999 -2.62484e-15 0)
(0.0749999 1.15885e-14 0)
(0.0749999 -2.10458e-14 0)
(0.0749999 2.82308e-14 0)
(0.0749999 -5.85364e-14 0)
(0.0749999 8.42536e-14 0)
(0.0749999 -1.55833e-12 0)
(0.0749999 -2.15347e-12 0)
(0.125 -7.69134e-12 0)
(0.125 -6.38398e-12 0)
(0.125 -1.89501e-13 0)
(0.125 -2.78194e-13 0)
(0.125 1.48399e-13 0)
(0.125 -1.32052e-13 0)
(0.125 1.02986e-13 0)
(0.125 -8.07358e-14 0)
(0.125 6.04418e-14 0)
(0.125 -4.23513e-14 0)
(0.125 2.57787e-14 0)
(0.125 -1.02093e-14 0)
(0.125 -4.59008e-15 0)
(0.125 1.88854e-14 0)
(0.125 -3.44968e-14 0)
(0.125 4.36411e-14 0)
(0.125 -1.15768e-13 0)
(0.125 1.6352e-13 0)
(0.125 -4.09367e-12 0)
(0.125 -5.10071e-12 0)
(0.175 -1.24502e-11 0)
(0.175 -1.10808e-11 0)
(0.175 -4.95236e-13 0)
(0.175 -3.90385e-13 0)
(0.175 1.72692e-13 0)
(0.175 -1.61542e-13 0)
(0.175 1.24332e-13 0)
(0.175 -9.76573e-14 0)
(0.175 7.29321e-14 0)
(0.175 -5.09825e-14 0)
(0.175 3.08516e-14 0)
(0.175 -1.18693e-14 0)
(0.175 -6.14757e-15 0)
(0.175 2.34518e-14 0)
(0.175 -4.31562e-14 0)
(0.175 5.08595e-14 0)
(0.175 -1.74181e-13 0)
(0.175 2.52101e-13 0)
(0.175 -7.39305e-12 0)
(0.175 -8.70866e-12 0)
(0.225 -1.69784e-11 0)
(0.225 -1.58351e-11 0)
(0.225 -8.76218e-13 0)
(0.225 -4.81005e-13 0)
(0.225 1.70899e-13 0)
(0.225 -1.71174e-13 0)
(0.225 1.29498e-13 0)
(0.225 -1.01982e-13 0)
(0.225 7.59279e-14 0)
(0.225 -5.29308e-14 0)
(0.225 3.18024e-14 0)
(0.225 -1.17885e-14 0)
(0.225 -7.16783e-15 0)
(0.225 2.52435e-14 0)
(0.225 -4.69242e-14 0)
(0.225 5.0392e-14 0)
(0.225 -2.28836e-13 0)
(0.225 3.37168e-13 0)
(0.225 -1.09604e-11 0)
(0.225 -1.24662e-11 0)
(0.275 -2.07398e-11 0)
(0.275 -2.00213e-11 0)
(0.275 -1.27533e-12 0)
(0.275 -5.4611e-13 0)
(0.275 1.48956e-13 0)
(0.275 -1.64513e-13 0)
(0.275 1.2161e-13 0)
(0.275 -9.61261e-14 0)
(0.275 7.12817e-14 0)
(0.275 -4.95257e-14 0)
(0.275 2.94842e-14 0)
(0.275 -1.03868e-14 0)
(0.275 -7.64576e-15 0)
(0.275 2.4679e-14 0)
(0.275 -4.65106e-14 0)
(0.275 4.39237e-14 0)
(0.275 -2.75852e-13 0)
(0.275 4.15121e-13 0)
(0.275 -1.43736e-11 0)
(0.275 -1.59635e-11 0)
(0.325 -2.33689e-11 0)
(0.325 -2.31989e-11 0)
(0.325 -1.64481e-12 0)
(0.325 -5.82339e-13 0)
(0.325 1.11827e-13 0)
(0.325 -1.44516e-13 0)
(0.325 1.03273e-13 0)
(0.325 -8.21007e-14 0)
(0.325 6.05238e-14 0)
(0.325 -4.18557e-14 0)
(0.325 2.4594e-14 0)
(0.325 -8.00169e-15 0)
(0.325 -7.59315e-15 0)
(0.325 2.2121e-14 0)
(0.325 -4.25264e-14 0)
(0.325 3.28349e-14 0)
(0.325 -3.11902e-13 0)
(0.325 4.80122e-13 0)
(0.325 -1.72898e-11 0)
(0.325 -1.88655e-11 0)
(0.374999 -2.46343e-11 0)
(0.374999 -2.50714e-11 0)
(0.374999 -1.94408e-12 0)
(0.374999 -5.86949e-13 0)
(0.374999 6.39358e-14 0)
(0.374999 -1.13801e-13 0)
(0.374999 7.67952e-14 0)
(0.374999 -6.1684e-14 0)
(0.374999 4.50086e-14 0)
(0.374999 -3.0882e-14 0)
(0.374999 1.77422e-14 0)
(0.374999 -4.91992e-15 0)
(0.374999 -7.03852e-15 0)
(0.374999 1.79132e-14 0)
(0.374999 -3.55348e-14 0)
(0.374999 1.83612e-14 0)
(0.374999 -3.34051e-13 0)
(0.374999 5.26351e-13 0)
(0.374999 -1.94379e-11 0)
(0.374999 -2.0907e-11 0)
(0.424999 -2.4456e-11 0)
(0.424999 -2.55013e-11 0)
(0.424999 -2.14313e-12 0)
(0.424999 -5.59282e-13 0)
(0.424999 9.63974e-15 0)
(0.424999 -7.51385e-14 0)
(0.424999 4.45618e-14 0)
(0.424999 -3.67194e-14 0)
(0.424999 2.61321e-14 0)
(0.424999 -1.75926e-14 0)
(0.424999 9.54631e-15 0)
(0.424999 -1.41329e-15 0)
(0.424999 -6.04047e-15 0)
(0.424999 1.2444e-14 0)
(0.424999 -2.61815e-14 0)
(0.424999 1.73941e-15 0)
(0.424999 -3.40379e-13 0)
(0.424999 5.48539e-13 0)
(0.424999 -2.0635e-11 0)
(0.424999 -2.19142e-11 0)
(0.474999 -2.2901e-11 0)
(0.474999 -2.45075e-11 0)
(0.474999 -2.22503e-12 0)
(0.474999 -5.0118e-13 0)
(0.474999 -4.68211e-14 0)
(0.474999 -3.14747e-14 0)
(0.474999 9.03817e-15 0)
(0.474999 -9.11002e-15 0)
(0.474999 5.34188e-15 0)
(0.474999 -3.00437e-15 0)
(0.474999 6.24099e-16 0)
(0.474999 2.25751e-15 0)
(0.474999 -4.68963e-15 0)
(0.474999 6.14262e-15 0)
(0.474999 -1.51968e-14 0)
(0.474999 -1.5769e-14 0)
(0.474999 -3.30209e-13 0)
(0.474999 5.43023e-13 0)
(0.474999 -2.07975e-11 0)
(0.474999 -2.18157e-11 0)
(0.524999 -2.01703e-11 0)
(0.524999 -2.22543e-11 0)
(0.524999 -2.1871e-12 0)
(0.524999 -4.17068e-13 0)
(0.524999 -1.01477e-13 0)
(0.524999 1.41506e-14 0)
(0.524999 -2.72883e-14 0)
(0.524999 1.92212e-14 0)
(0.524999 -1.59163e-14 0)
(0.524999 1.18689e-14 0)
(0.524999 -8.41625e-15 0)
(0.524999 5.85018e-15 0)
(0.524999 -3.09156e-15 0)
(0.524999 -5.34284e-16 0)
(0.524999 -3.37364e-15 0)
(0.524999 -3.29287e-14 0)
(0.524999 -3.0423e-13 0)
(0.524999 5.08572e-13 0)
(0.524999 -1.99416e-11 0)
(0.524999 -2.06449e-11 0)
(0.574999 -1.65724e-11 0)
(0.574999 -1.9025e-11 0)
(0.574999 -2.04028e-12 0)
(0.574999 -3.13801e-13 0)
(0.574999 -1.50714e-13 0)
(0.574999 5.86309e-14 0)
(0.574999 -6.19527e-14 0)
(0.574999 4.63607e-14 0)
(0.574999 -3.62185e-14 0)
(0.574999 2.60374e-14 0)
(0.574999 -1.69726e-14 0)
(0.574999 9.14022e-15 0)
(0.574999 -1.37544e-15 0)
(0.574999 -7.11466e-15 0)
(0.574999 8.45305e-15 0)
(0.574999 -4.85467e-14 0)
(0.574999 -2.64501e-13 0)
(0.574999 4.47076e-13 0)
(0.574999 -1.81771e-11 0)
(0.574999 -1.85329e-11 0)
(0.624999 -1.24942e-11 0)
(0.624999 -1.5191e-11 0)
(0.624999 -1.80693e-12 0)
(0.624999 -2.00293e-13 0)
(0.624999 -1.91274e-13 0)
(0.624999 9.88441e-14 0)
(0.624999 -9.25486e-14 0)
(0.624999 7.04324e-14 0)
(0.624999 -5.41556e-14 0)
(0.624999 3.85184e-14 0)
(0.624999 -2.44664e-14 0)
(0.624999 1.1922e-14 0)
(0.624999 3.11258e-16 0)
(0.624999 -1.31153e-14 0)
(0.624999 1.94244e-14 0)
(0.624999 -6.14867e-14 0)
(0.624999 -2.14365e-13 0)
(0.624999 3.63816e-13 0)
(0.624999 -1.56945e-11 0)
(0.624999 -1.56963e-11 0)
(0.675 -8.35916e-12 0)
(0.675 -1.1168e-11 0)
(0.675 -1.51722e-12 0)
(0.675 -8.69114e-14 0)
(0.675 -2.20255e-13 0)
(0.675 1.31708e-13 0)
(0.675 -1.16759e-13 0)
(0.675 8.95986e-14 0)
(0.675 -6.83638e-14 0)
(0.675 4.8377e-14 0)
(0.675 -3.03441e-14 0)
(0.675 1.39993e-14 0)
(0.675 1.82731e-15 0)
(0.675 -1.80563e-14 0)
(0.675 2.86787e-14 0)
(0.675 -7.06946e-14 0)
(0.675 -1.58224e-13 0)
(0.675 2.6726e-13 0)
(0.675 -1.27443e-11 0)
(0.675 -1.24155e-11 0)
(0.725 -4.58922e-12 0)
(0.725 -7.37401e-12 0)
(0.725 -1.20432e-12 0)
(0.725 1.53691e-14 0)
(0.725 -2.35124e-13 0)
(0.725 1.54252e-13 0)
(0.725 -1.32403e-13 0)
(0.725 1.02123e-13 0)
(0.725 -7.7556e-14 0)
(0.725 5.47277e-14 0)
(0.725 -3.40811e-14 0)
(0.725 1.51915e-14 0)
(0.725 3.02393e-15 0)
(0.725 -2.14691e-14 0)
(0.725 3.53692e-14 0)
(0.725 -7.52371e-14 0)
(0.725 -1.0123e-13 0)
(0.725 1.68233e-13 0)
(0.725 -9.61484e-12 0)
(0.725 -9.01116e-12 0)
(0.775 -1.55131e-12 0)
(0.775 -4.17166e-12 0)
(0.775 -8.9916e-13 0)
(0.775 9.57494e-14 0)
(0.775 -2.33615e-13 0)
(0.775 1.63627e-13 0)
(0.775 -1.37419e-13 0)
(0.775 1.0637e-13 0)
(0.775 -8.05266e-14 0)
(0.775 5.67353e-14 0)
(0.775 -3.51683e-14 0)
(0.775 1.53155e-14 0)
(0.775 3.76921e-15 0)
(0.775 -2.29245e-14 0)
(0.775 3.86864e-14 0)
(0.775 -7.43276e-14 0)
(0.775 -4.89373e-14 0)
(0.775 7.86401e-14 0)
(0.775 -6.59853e-12 0)
(0.775 -5.80809e-12 0)
(0.825 4.70102e-13 0)
(0.825 -1.82901e-12 0)
(0.825 -6.23722e-13 0)
(0.825 1.43743e-13 0)
(0.825 -2.12981e-13 0)
(0.825 1.56636e-13 0)
(0.825 -1.29473e-13 0)
(0.825 1.00481e-13 0)
(0.825 -7.59091e-14 0)
(0.825 5.34465e-14 0)
(0.825 -3.30215e-14 0)
(0.825 1.415e-14 0)
(0.825 3.94405e-15 0)
(0.825 -2.19798e-14 0)
(0.825 3.77637e-14 0)
(0.825 -6.71347e-14 0)
(0.825 -7.08496e-15 0)
(0.825 1.00437e-14 0)
(0.825 -3.96589e-12 0)
(0.825 -3.1108e-12 0)
(0.875 1.34901e-12 0)
(0.875 -4.37686e-13 0)
(0.875 -3.87741e-13 0)
(0.875 1.48762e-13 0)
(0.875 -1.69651e-13 0)
(0.875 1.29426e-13 0)
(0.875 -1.0571e-13 0)
(0.875 8.22091e-14 0)
(0.875 -6.20238e-14 0)
(0.875 4.36562e-14 0)
(0.875 -2.692e-14 0)
(0.875 1.1416e-14 0)
(0.875 3.42057e-15 0)
(0.875 -1.81261e-14 0)
(0.875 3.15962e-14 0)
(0.875 -5.27978e-14 0)
(0.875 1.8199e-14 0)
(0.875 -2.91957e-14 0)
(0.875 -1.92478e-12 0)
(0.875 -1.16124e-12 0)
(0.925 1.16781e-12 0)
(0.925 9.40007e-14 0)
(0.925 -1.90651e-13 0)
(0.925 1.07167e-13 0)
(0.925 -1.03396e-13 0)
(0.925 8.12167e-14 0)
(0.925 -6.57175e-14 0)
(0.925 5.11979e-14 0)
(0.925 -3.85901e-14 0)
(0.925 2.71574e-14 0)
(0.925 -1.67324e-14 0)
(0.925 7.05786e-15 0)
(0.925 2.19617e-15 0)
(0.925 -1.13195e-14 0)
(0.925 1.99725e-14 0)
(0.925 -3.16835e-14 0)
(0.925 2.29764e-14 0)
(0.925 -3.29408e-14 0)
(0.925 -6.20374e-13 0)
(0.925 -1.17701e-13 0)
(0.975 4.35838e-13 0)
(0.975 9.72024e-14 0)
(0.975 -5.25624e-14 0)
(0.975 3.70235e-14 0)
(0.975 -3.28792e-14 0)
(0.975 2.62434e-14 0)
(0.975 -2.11172e-14 0)
(0.975 1.64695e-14 0)
(0.975 -1.24047e-14 0)
(0.975 8.73106e-15 0)
(0.975 -5.37922e-15 0)
(0.975 2.26456e-15 0)
(0.975 7.14442e-16 0)
(0.975 -3.64196e-15 0)
(0.975 6.47874e-15 0)
(0.975 -9.95508e-15 0)
(0.975 9.57198e-15 0)
(0.975 -1.49665e-14 0)
(0.975 -8.09528e-14 0)
(0.975 8.74459e-14 0)
)
;

boundaryField
{
    top
    {
        type            fixedValue;
        value           uniform (1 0 0);
    }
    bottom
    {
        type            fixedValue;
        value           uniform (0 0 0);
    }
    inlet
    {
        type            zeroGradient;
    }
    outlet
    {
        type            zeroGradient;
    }
    frontAndBack
    {
        type            empty;
    }
}


// ************************************************************************* //
