/*--------------------------------*- C++ -*----------------------------------*\
| =========                 |                                                 |
| \\      /  F ield         | OpenFOAM: The Open Source CFD Toolbox           |
|  \\    /   O peration     | Version:  4.1                                   |
|   \\  /    A nd           | Web:      www.OpenFOAM.org                      |
|    \\/     M anipulation  |                                                 |
\*---------------------------------------------------------------------------*/
FoamFile
{
    version     2.0;
    format      ascii;
    class       volScalarField;
    location    "2.1";
    object      p;
}
// * * * * * * * * * * * * * * * * * * * * * * * * * * * * * * * * * * * * * //

dimensions      [0 2 -2 0 0 0 0];

internalField   nonuniform List<scalar> 
400
(
7.02513e-09
7.83439e-09
6.69074e-09
7.15045e-09
6.30893e-09
6.5491e-09
5.91213e-09
5.97758e-09
5.49349e-09
5.42391e-09
5.0609e-09
4.88078e-09
4.62083e-09
4.34237e-09
4.17863e-09
3.80385e-09
3.74085e-09
3.26982e-09
3.34027e-09
3.15484e-09
6.99963e-09
7.80822e-09
6.68878e-09
7.14993e-09
6.30896e-09
6.54902e-09
5.91219e-09
5.97754e-09
5.49352e-09
5.42389e-09
5.06091e-09
4.88078e-09
4.62082e-09
4.34239e-09
4.1786e-09
3.80386e-09
3.74056e-09
3.27002e-09
3.32282e-09
3.13639e-09
6.98523e-09
7.78971e-09
6.68639e-09
7.14988e-09
6.30865e-09
6.54922e-09
5.91201e-09
5.97767e-09
5.49342e-09
5.42396e-09
5.06086e-09
4.8808e-09
4.62082e-09
4.34236e-09
4.17865e-09
3.80376e-09
3.74044e-09
3.26983e-09
3.30914e-09
3.12375e-09
6.98071e-09
7.78106e-09
6.68411e-09
7.14995e-09
6.3083e-09
6.54946e-09
5.91182e-09
5.97783e-09
5.4933e-09
5.42404e-09
5.06081e-09
4.88083e-09
4.62083e-09
4.34233e-09
4.1787e-09
3.80366e-09
3.74039e-09
3.26936e-09
3.3013e-09
3.11729e-09
6.98214e-09
7.77926e-09
6.68198e-09
7.14999e-09
6.30801e-09
6.54965e-09
5.91166e-09
5.97795e-09
5.49321e-09
5.42411e-09
5.06077e-09
4.88084e-09
4.62083e-09
4.34231e-09
4.17875e-09
3.80358e-09
3.74035e-09
3.26875e-09
3.298e-09
3.11505e-09
6.98749e-09
7.78205e-09
6.67985e-09
7.15e-09
6.30778e-09
6.5498e-09
5.91153e-09
5.97805e-09
5.49314e-09
5.42416e-09
5.06074e-09
4.88086e-09
4.62083e-09
4.34229e-09
4.17878e-09
3.80352e-09
3.74034e-09
3.26807e-09
3.29835e-09
3.11611e-09
6.99559e-09
7.78805e-09
6.67767e-09
7.14999e-09
6.30759e-09
6.54992e-09
5.91143e-09
5.97812e-09
5.49308e-09
5.4242e-09
5.06071e-09
4.88087e-09
4.62084e-09
4.34227e-09
4.17882e-09
3.80347e-09
3.74035e-09
3.26738e-09
3.30175e-09
3.11989e-09
7.00514e-09
7.79586e-09
6.67543e-09
7.14994e-09
6.30743e-09
6.55001e-09
5.91136e-09
5.97818e-09
5.49304e-09
5.42423e-09
5.06069e-09
4.88088e-09
4.62084e-09
4.34226e-09
4.17884e-09
3.80344e-09
3.74037e-09
3.26672e-09
3.30747e-09
3.12567e-09
7.01478e-09
7.80409e-09
6.67311e-09
7.14984e-09
6.30731e-09
6.55007e-09
5.91131e-09
5.97822e-09
5.49301e-09
5.42425e-09
5.06068e-09
4.88088e-09
4.62084e-09
4.34225e-09
4.17886e-09
3.80342e-09
3.74039e-09
3.26615e-09
3.31464e-09
3.13252e-09
7.02329e-09
7.81143e-09
6.67074e-09
7.14968e-09
6.30722e-09
6.55009e-09
5.91128e-09
5.97824e-09
5.49299e-09
5.42426e-09
5.06068e-09
4.88088e-09
4.62085e-09
4.34224e-09
4.17887e-09
3.80341e-09
3.7404e-09
3.26571e-09
3.32231e-09
3.13954e-09
7.0296e-09
7.8168e-09
6.66834e-09
7.14945e-09
6.30717e-09
6.55009e-09
5.91129e-09
5.97823e-09
5.493e-09
5.42426e-09
5.06068e-09
4.88088e-09
4.62085e-09
4.34224e-09
4.17888e-09
3.80342e-09
3.74039e-09
3.26542e-09
3.32955e-09
3.14582e-09
7.03291e-09
7.81939e-09
6.66596e-09
7.14914e-09
6.30716e-09
6.55004e-09
5.91131e-09
5.97821e-09
5.49301e-09
5.42424e-09
5.06069e-09
4.88087e-09
4.62085e-09
4.34224e-09
4.17888e-09
3.80344e-09
3.74036e-09
3.26528e-09
3.33551e-09
3.15056e-09
7.03272e-09
7.81871e-09
6.66365e-09
7.14875e-09
6.30718e-09
6.54997e-09
5.91137e-09
5.97817e-09
5.49305e-09
5.42422e-09
5.0607e-09
4.88087e-09
4.62085e-09
4.34225e-09
4.17886e-09
3.80347e-09
3.74028e-09
3.26529e-09
3.33948e-09
3.15308e-09
7.02887e-09
7.81465e-09
6.66149e-09
7.14829e-09
6.30724e-09
6.54986e-09
5.91145e-09
5.9781e-09
5.4931e-09
5.42419e-09
5.06073e-09
4.88086e-09
4.62085e-09
4.34226e-09
4.17885e-09
3.80351e-09
3.74017e-09
3.26544e-09
3.34093e-09
3.15294e-09
7.02158e-09
7.80746e-09
6.65954e-09
7.14777e-09
6.30734e-09
6.54972e-09
5.91155e-09
5.97802e-09
5.49316e-09
5.42414e-09
5.06076e-09
4.88084e-09
4.62085e-09
4.34228e-09
4.17882e-09
3.80356e-09
3.74002e-09
3.26568e-09
3.33959e-09
3.14989e-09
7.01151e-09
7.79791e-09
6.65786e-09
7.1472e-09
6.30748e-09
6.54956e-09
5.91168e-09
5.97792e-09
5.49324e-09
5.42409e-09
5.06079e-09
4.88082e-09
4.62085e-09
4.34229e-09
4.17879e-09
3.80362e-09
3.73982e-09
3.26598e-09
3.33552e-09
3.14405e-09
6.99952e-09
7.78708e-09
6.65653e-09
7.14657e-09
6.30767e-09
6.54935e-09
5.91184e-09
5.97779e-09
5.49333e-09
5.42402e-09
5.06083e-09
4.8808e-09
4.62085e-09
4.34232e-09
4.17874e-09
3.80368e-09
3.73958e-09
3.26633e-09
3.32906e-09
3.1357e-09
6.98737e-09
7.77693e-09
6.6556e-09
7.1459e-09
6.30792e-09
6.54909e-09
5.91204e-09
5.97764e-09
5.49345e-09
5.42393e-09
5.06089e-09
4.88078e-09
4.62085e-09
4.34235e-09
4.17869e-09
3.80376e-09
3.7393e-09
3.26668e-09
3.32097e-09
3.12554e-09
6.97799e-09
7.76939e-09
6.65493e-09
7.14529e-09
6.30813e-09
6.54887e-09
5.9122e-09
5.9775e-09
5.49355e-09
5.42386e-09
5.06093e-09
4.88076e-09
4.62084e-09
4.34237e-09
4.17863e-09
3.80381e-09
3.739e-09
3.26699e-09
3.31178e-09
3.11458e-09
6.9763e-09
7.76606e-09
6.65404e-09
7.14516e-09
6.30799e-09
6.54893e-09
5.91214e-09
5.97755e-09
5.49351e-09
5.42389e-09
5.06092e-09
4.88076e-09
4.62085e-09
4.34236e-09
4.17865e-09
3.80376e-09
3.73883e-09
3.26711e-09
3.30312e-09
3.1061e-09
)
;

boundaryField
{
    top
    {
        type            zeroGradient;
    }
    bottom
    {
        type            zeroGradient;
    }
    inlet
    {
        type            fixedValue;
        value           uniform 0;
    }
    outlet
    {
        type            fixedValue;
        value           uniform 0;
    }
    frontAndBack
    {
        type            empty;
    }
}


// ************************************************************************* //
