/*--------------------------------*- C++ -*----------------------------------*\
| =========                 |                                                 |
| \\      /  F ield         | OpenFOAM: The Open Source CFD Toolbox           |
|  \\    /   O peration     | Version:  4.1                                   |
|   \\  /    A nd           | Web:      www.OpenFOAM.org                      |
|    \\/     M anipulation  |                                                 |
\*---------------------------------------------------------------------------*/
FoamFile
{
    version     2.0;
    format      ascii;
    class       surfaceScalarField;
    location    "2.1";
    object      phi;
}
// * * * * * * * * * * * * * * * * * * * * * * * * * * * * * * * * * * * * * //

dimensions      [0 3 -1 0 0 0 0];

internalField   nonuniform List<scalar> 
760
(
1.24999e-06
-1.0918e-14
1.24999e-06
-7.49191e-15
1.24999e-06
8.95085e-17
1.24999e-06
-5.271e-16
1.24999e-06
3.50461e-16
1.24999e-06
-2.9649e-16
1.24999e-06
2.34555e-16
1.24999e-06
-1.83809e-16
1.24999e-06
1.38349e-16
1.24999e-06
-9.76756e-17
1.24999e-06
6.0507e-17
1.24999e-06
-2.5813e-17
1.24999e-06
-7.31749e-18
1.24999e-06
3.96052e-17
1.24999e-06
-7.32461e-17
1.24999e-06
1.0087e-16
1.24999e-06
-1.94728e-16
1.24999e-06
2.75745e-16
1.24999e-06
-4.48781e-15
-6.62336e-15
3.74996e-06
-3.2996e-14
3.74996e-06
-2.62207e-14
3.74996e-06
-5.52786e-16
3.74996e-06
-1.28362e-15
3.74996e-06
7.34293e-16
3.74996e-06
-6.4243e-16
3.74996e-06
5.03562e-16
3.74996e-06
-3.95157e-16
3.74996e-06
2.96975e-16
3.74996e-06
-2.09291e-16
3.74996e-06
1.29103e-16
3.74996e-06
-5.41901e-17
3.74996e-06
-1.73815e-17
3.74996e-06
8.69173e-17
3.74996e-06
-1.61508e-16
3.74996e-06
2.10977e-16
3.74996e-06
-5.13025e-16
3.74996e-06
7.29149e-16
3.74996e-06
-1.65342e-14
-2.13824e-14
6.24994e-06
-5.96912e-14
6.24994e-06
-5.17045e-14
6.24994e-06
-2.03139e-15
6.24994e-06
-1.97075e-15
6.24994e-06
9.44342e-16
6.24994e-06
-8.63863e-16
6.24994e-06
6.69087e-16
6.24994e-06
-5.26022e-16
6.24994e-06
3.94559e-16
6.24994e-06
-2.77435e-16
6.24994e-06
1.7022e-16
6.24994e-06
-6.99525e-17
6.24994e-06
-2.58971e-17
6.24994e-06
1.18648e-16
6.24994e-06
-2.21781e-16
6.24994e-06
2.71144e-16
6.24994e-06
-8.48306e-16
6.24994e-06
1.22533e-15
6.24994e-06
-3.39615e-14
-4.08785e-14
8.74991e-06
-8.69767e-14
8.74991e-06
-7.95445e-14
8.74991e-06
-4.06826e-15
8.74991e-06
-2.55936e-15
8.74991e-06
1.00238e-15
8.74991e-06
-9.72457e-16
8.74991e-06
7.4188e-16
8.74991e-06
-5.84697e-16
8.74991e-06
4.37533e-16
8.74991e-06
-3.06831e-16
8.74991e-06
1.87045e-16
8.74991e-06
-7.48789e-17
8.74991e-06
-3.24181e-17
8.74991e-06
1.35709e-16
8.74991e-06
-2.55676e-16
8.74991e-06
2.87547e-16
8.74991e-06
-1.17781e-15
8.74991e-06
1.73021e-15
8.74991e-06
-5.41977e-14
-6.25457e-14
1.12499e-05
-1.11382e-13
1.12499e-05
-1.05867e-13
1.12499e-05
-6.3653e-15
1.12499e-05
-3.01822e-15
1.12499e-05
9.32352e-16
1.12499e-05
-9.81049e-16
1.12499e-05
7.33717e-16
1.12499e-05
-5.80238e-16
1.12499e-05
4.32885e-16
1.12499e-05
-3.02577e-16
1.12499e-05
1.82955e-16
1.12499e-05
-7.07764e-17
1.12499e-05
-3.66185e-17
1.12499e-05
1.39299e-16
1.12499e-05
-2.65242e-16
1.12499e-05
2.66836e-16
1.12499e-05
-1.47729e-15
1.12499e-05
2.21109e-15
1.12499e-05
-7.47737e-14
-8.3929e-14
1.37499e-05
-1.30247e-13
1.37499e-05
-1.27598e-13
1.37499e-05
-8.6298e-15
1.37499e-05
-3.31941e-15
1.37499e-05
7.59737e-16
1.37499e-05
-9.03688e-16
1.37499e-05
6.57306e-16
1.37499e-05
-5.22423e-16
1.37499e-05
3.88131e-16
1.37499e-05
-2.70106e-16
1.37499e-05
1.61506e-16
1.37499e-05
-5.94597e-17
1.37499e-05
-3.83248e-17
1.37499e-05
1.30919e-16
1.37499e-05
-2.53023e-16
1.37499e-05
2.15991e-16
1.37499e-05
-1.72375e-15
1.37499e-05
2.63385e-15
1.37499e-05
-9.34582e-14
-1.0282e-13
1.62499e-05
-1.41737e-13
1.62499e-05
-1.425e-13
1.62499e-05
-1.05996e-14
1.62499e-05
-3.44228e-15
1.62499e-05
5.10773e-16
1.62499e-05
-7.55534e-16
1.62499e-05
5.26139e-16
1.62499e-05
-4.21638e-16
1.62499e-05
3.11211e-16
1.62499e-05
-2.15107e-16
1.62499e-05
1.26369e-16
1.62499e-05
-4.27283e-17
1.62499e-05
-3.7527e-17
1.62499e-05
1.12362e-16
1.62499e-05
-2.22064e-16
1.62499e-05
1.42217e-16
1.62499e-05
-1.8975e-15
1.62499e-05
2.96354e-15
1.62499e-05
-1.08412e-13
-1.17413e-13
1.87498e-05
-1.44935e-13
1.87498e-05
-1.49291e-13
1.87498e-05
-1.20656e-14
1.87498e-05
-3.377e-15
1.87498e-05
2.11632e-16
1.87498e-05
-5.52688e-16
1.87498e-05
3.5424e-16
1.87498e-05
-2.88684e-16
1.87498e-05
2.10343e-16
1.87498e-05
-1.43443e-16
1.87498e-05
8.12657e-17
1.87498e-05
-2.23198e-17
1.87498e-05
-3.43808e-17
1.87498e-05
8.56772e-17
1.87498e-05
-1.75855e-16
1.87498e-05
5.27711e-17
1.87498e-05
-1.98414e-15
1.87498e-05
3.16727e-15
1.87498e-05
-1.18289e-13
-1.26408e-13
2.12498e-05
-1.39804e-13
2.12498e-05
-1.47618e-13
2.12498e-05
-1.28897e-14
2.12498e-05
-3.12709e-15
2.12498e-05
-1.12324e-16
2.12498e-05
-3.12026e-16
2.12498e-05
1.55955e-16
2.12498e-05
-1.34638e-16
2.12498e-05
9.39277e-17
2.12498e-05
-6.10813e-17
2.12498e-05
2.99465e-17
2.12498e-05
9.31155e-20
2.12498e-05
-2.91924e-17
2.12498e-05
5.31357e-17
2.12498e-05
-1.18326e-16
2.12498e-05
-4.51196e-17
2.12498e-05
-1.97585e-15
2.12498e-05
3.2187e-15
2.12498e-05
-1.22303e-13
-1.29084e-13
2.37498e-05
-1.27139e-13
2.37498e-05
-1.38025e-13
2.37498e-05
-1.30144e-14
2.37498e-05
-2.71083e-15
2.37498e-05
-4.37131e-16
2.37498e-05
-5.10423e-17
2.37498e-05
-5.4236e-17
2.37498e-05
2.92728e-17
2.37498e-05
-2.95424e-17
2.37498e-05
2.59945e-17
2.37498e-05
-2.39016e-17
2.37498e-05
2.29275e-17
2.37498e-05
-2.23857e-17
2.37498e-05
1.71852e-17
2.37498e-05
-5.37828e-17
2.37498e-05
-1.44327e-16
2.37498e-05
-1.87247e-15
2.37498e-05
3.10329e-15
2.37498e-05
-1.20255e-13
-1.2533e-13
2.62498e-05
-1.08443e-13
2.62498e-05
-1.21833e-13
2.62498e-05
-1.24645e-14
2.62498e-05
-2.16124e-15
2.62498e-05
-7.40654e-16
2.62498e-05
2.12336e-16
2.62498e-05
-2.61875e-16
2.62498e-05
1.91812e-16
2.62498e-05
-1.51641e-16
2.62498e-05
1.11849e-16
2.62498e-05
-7.66237e-17
2.62498e-05
4.46922e-17
2.62498e-05
-1.45423e-17
2.62498e-05
-1.95929e-17
2.62498e-05
1.32088e-17
2.62498e-05
-2.3794e-16
2.62498e-05
-1.68185e-15
2.62498e-05
2.82274e-15
2.62498e-05
-1.12519e-13
-1.15632e-13
2.87498e-05
-8.57659e-14
2.87498e-05
-1.00971e-13
2.87498e-05
-1.13389e-14
2.87498e-05
-1.52456e-15
2.87498e-05
-1.00284e-15
2.87498e-05
4.59973e-16
2.87498e-05
-4.5277e-16
2.87498e-05
3.41873e-16
2.87498e-05
-2.64029e-16
2.87498e-05
1.90662e-16
2.87498e-05
-1.24698e-16
2.87498e-05
6.39902e-17
2.87498e-05
-6.2993e-18
2.87498e-05
-5.45475e-17
2.87498e-05
7.78531e-17
2.87498e-05
-3.19343e-16
2.87498e-05
-1.41964e-15
2.87498e-05
2.39808e-15
2.87498e-05
-9.99781e-14
-1.01015e-13
3.12498e-05
-6.15066e-14
3.12498e-05
-7.77699e-14
3.12498e-05
-9.79252e-15
3.12498e-05
-8.57475e-16
3.12498e-05
-1.20572e-15
3.12498e-05
6.7372e-16
3.12498e-05
-6.13078e-16
3.12498e-05
4.6859e-16
3.12498e-05
-3.58602e-16
3.12498e-05
2.56749e-16
3.12498e-05
-1.64674e-16
3.12498e-05
7.95133e-17
3.12498e-05
1.61202e-18
3.12498e-05
-8.50009e-17
3.12498e-05
1.35251e-16
3.12498e-05
-3.82284e-16
3.12498e-05
-1.10842e-15
3.12498e-05
1.86955e-15
3.12498e-05
-8.39371e-14
-8.29489e-14
3.37499e-05
-3.81491e-14
3.37499e-05
-5.46757e-14
3.37499e-05
-8.01265e-15
3.37499e-05
-2.22935e-16
3.37499e-05
-1.33331e-15
3.37499e-05
8.35705e-16
3.37499e-05
-7.2952e-16
3.37499e-05
5.61413e-16
3.37499e-05
-4.27483e-16
3.37499e-05
3.04668e-16
3.37499e-05
-1.93302e-16
3.37499e-05
9.00159e-17
3.37499e-05
8.48152e-18
3.37499e-05
-1.08314e-16
3.37499e-05
1.8052e-16
3.37499e-05
-4.21064e-16
3.37499e-05
-7.76244e-16
3.37499e-05
1.29414e-15
3.37499e-05
-6.5978e-14
-6.32013e-14
3.62499e-05
-1.80492e-14
3.62499e-05
-3.40142e-14
3.62499e-05
-6.18711e-15
3.62499e-05
3.14396e-16
3.62499e-05
-1.37119e-15
3.62499e-05
9.28545e-16
3.62499e-05
-7.89389e-16
3.62499e-05
6.10287e-16
3.62499e-05
-4.63217e-16
3.62499e-05
3.29196e-16
3.62499e-05
-2.07449e-16
3.62499e-05
9.43385e-17
3.62499e-05
1.35997e-17
3.62499e-05
-1.22005e-16
3.62499e-05
2.08923e-16
3.62499e-05
-4.30645e-16
3.62499e-05
-4.54784e-16
3.62499e-05
7.38626e-16
3.62499e-05
-4.78296e-14
-4.36938e-14
3.87499e-05
-3.06416e-15
3.87499e-05
-1.75977e-14
3.87499e-05
-4.47618e-15
3.87499e-05
6.93243e-16
3.87499e-05
-1.3062e-15
3.87499e-05
9.35663e-16
3.87499e-05
-7.80766e-16
3.87499e-05
6.05665e-16
3.87499e-05
-4.58704e-16
3.87499e-05
3.25396e-16
3.87499e-05
-2.0413e-16
3.87499e-05
9.13256e-17
3.87499e-05
1.63453e-17
3.87499e-05
-1.23747e-16
3.87499e-05
2.15958e-16
3.87499e-05
-4.06868e-16
3.87499e-05
-1.76995e-16
3.87499e-05
2.71634e-16
3.87499e-05
-3.11364e-14
-2.62607e-14
4.12499e-05
5.5653e-15
4.12499e-05
-6.58078e-15
4.12499e-05
-2.98042e-15
4.12499e-05
8.59953e-16
4.12499e-05
-1.12596e-15
4.12499e-05
8.41542e-16
4.12499e-05
-6.92555e-16
4.12499e-05
5.38653e-16
4.12499e-05
-4.07326e-16
4.12499e-05
2.88621e-16
4.12499e-05
-1.80508e-16
4.12499e-05
7.98626e-17
4.12499e-05
1.62004e-17
4.12499e-05
-1.11512e-16
4.12499e-05
1.97511e-16
4.12499e-05
-3.46616e-16
4.12499e-05
2.51091e-17
4.12499e-05
-4.9138e-17
4.12499e-05
-1.7357e-14
-1.25299e-14
4.37499e-05
7.74254e-15
4.37499e-05
-9.2456e-16
4.37499e-05
-1.72799e-15
4.37499e-05
7.72055e-16
4.37499e-05
-8.18475e-16
4.37499e-05
6.31926e-16
4.37499e-05
-5.14555e-16
4.37499e-05
4.01051e-16
4.37499e-05
-3.02966e-16
4.37499e-05
2.1453e-16
4.37499e-05
-1.33908e-16
4.37499e-05
5.882e-17
4.37499e-05
1.28469e-17
4.37499e-05
-8.36082e-17
4.37499e-05
1.49959e-16
4.37499e-05
-2.4805e-16
4.37499e-05
1.22786e-16
4.37499e-05
-1.85269e-16
4.37499e-05
-7.41338e-15
-3.56078e-15
4.625e-05
4.34775e-15
4.625e-05
4.49337e-16
4.625e-05
-6.6158e-16
4.625e-05
3.98947e-16
4.625e-05
-3.71553e-16
4.625e-05
2.93844e-16
4.625e-05
-2.37391e-16
4.625e-05
1.85327e-16
4.625e-05
-1.39892e-16
4.625e-05
9.9015e-17
4.625e-05
-6.17421e-17
4.625e-05
2.70122e-17
4.625e-05
6.14756e-18
4.625e-05
-3.87567e-17
4.625e-05
7.02295e-17
4.625e-05
-1.10661e-16
4.625e-05
9.20909e-17
4.625e-05
-1.31097e-16
4.625e-05
-1.73746e-15
1.25521e-16
4.875e-05
4.875e-05
4.875e-05
4.875e-05
4.875e-05
4.875e-05
4.875e-05
4.875e-05
4.875e-05
4.875e-05
4.875e-05
4.875e-05
4.875e-05
4.875e-05
4.875e-05
4.875e-05
4.875e-05
4.875e-05
4.875e-05
)
;

boundaryField
{
    top
    {
        type            calculated;
        value           uniform 0;
    }
    bottom
    {
        type            calculated;
        value           uniform 0;
    }
    inlet
    {
        type            calculated;
        value           nonuniform List<scalar> 
20
(
-1.24999e-06
-3.74996e-06
-6.24994e-06
-8.74991e-06
-1.12499e-05
-1.37499e-05
-1.62499e-05
-1.87498e-05
-2.12498e-05
-2.37498e-05
-2.62498e-05
-2.87498e-05
-3.12498e-05
-3.37499e-05
-3.62499e-05
-3.87499e-05
-4.12499e-05
-4.37499e-05
-4.625e-05
-4.875e-05
)
;
    }
    outlet
    {
        type            calculated;
        value           nonuniform List<scalar> 
20
(
1.24999e-06
3.74996e-06
6.24994e-06
8.74991e-06
1.12499e-05
1.37499e-05
1.62499e-05
1.87498e-05
2.12498e-05
2.37498e-05
2.62498e-05
2.87498e-05
3.12498e-05
3.37499e-05
3.62499e-05
3.87499e-05
4.12499e-05
4.37499e-05
4.625e-05
4.875e-05
)
;
    }
    frontAndBack
    {
        type            empty;
        value           nonuniform 0();
    }
}


// ************************************************************************* //
