/*--------------------------------*- C++ -*----------------------------------*\
| =========                 |                                                 |
| \\      /  F ield         | OpenFOAM: The Open Source CFD Toolbox           |
|  \\    /   O peration     | Version:  4.1                                   |
|   \\  /    A nd           | Web:      www.OpenFOAM.org                      |
|    \\/     M anipulation  |                                                 |
\*---------------------------------------------------------------------------*/
FoamFile
{
    version     2.0;
    format      ascii;
    class       volVectorField;
    location    "2.1";
    object      U;
}
// * * * * * * * * * * * * * * * * * * * * * * * * * * * * * * * * * * * * * //

dimensions      [0 1 -1 0 0 0 0];

internalField   nonuniform List<vector> 
400
(
(0.0249997 -4.83976e-12 0)
(0.0249997 -2.99974e-12 0)
(0.0249997 1.09915e-13 0)
(0.0249997 -2.63014e-13 0)
(0.0249997 1.84552e-13 0)
(0.0249997 -1.54485e-13 0)
(0.0249997 1.22616e-13 0)
(0.0249997 -9.60451e-14 0)
(0.0249997 7.23368e-14 0)
(0.0249997 -5.11099e-14 0)
(0.0249997 3.17166e-14 0)
(0.0249997 -1.36189e-14 0)
(0.0249997 -3.66005e-15 0)
(0.0249997 2.05198e-14 0)
(0.0249997 -3.79033e-14 0)
(0.0249997 5.30248e-14 0)
(0.0249997 -9.40295e-14 0)
(0.0249997 1.21818e-13 0)
(0.0249997 -1.68828e-12 0)
(0.0249997 -2.76878e-12 0)
(0.0749992 -2.04399e-11 0)
(0.0749992 -1.50544e-11 0)
(0.0749992 -4.59151e-14 0)
(0.0749992 -8.9136e-13 0)
(0.0749992 5.61417e-13 0)
(0.0749992 -4.80487e-13 0)
(0.0749992 3.78861e-13 0)
(0.0749992 -2.97035e-13 0)
(0.0749992 2.23445e-13 0)
(0.0749992 -1.57644e-13 0)
(0.0749992 9.74955e-14 0)
(0.0749992 -4.13325e-14 0)
(0.0749992 -1.23112e-14 0)
(0.0749992 6.45265e-14 0)
(0.0749992 -1.1954e-13 0)
(0.0749992 1.61435e-13 0)
(0.0749992 -3.39884e-13 0)
(0.0749992 4.91356e-13 0)
(0.0749992 -9.18041e-12 0)
(0.0749992 -1.27055e-11 0)
(0.124999 -4.54001e-11 0)
(0.124999 -3.76594e-11 0)
(0.124999 -1.12895e-12 0)
(0.124999 -1.6321e-12 0)
(0.124999 8.6748e-13 0)
(0.124999 -7.72497e-13 0)
(0.124999 6.0263e-13 0)
(0.124999 -4.73237e-13 0)
(0.124999 3.55375e-13 0)
(0.124999 -2.50215e-13 0)
(0.124999 1.54009e-13 0)
(0.124999 -6.40922e-14 0)
(0.124999 -2.1833e-14 0)
(0.124999 1.05182e-13 0)
(0.124999 -1.95908e-13 0)
(0.124999 2.49069e-13 0)
(0.124999 -6.74154e-13 0)
(0.124999 9.55523e-13 0)
(0.124999 -2.41465e-11 0)
(0.124999 -3.01077e-11 0)
(0.174998 -7.34883e-11 0)
(0.174998 -6.53752e-11 0)
(0.174998 -2.93573e-12 0)
(0.174998 -2.292e-12 0)
(0.174998 1.00892e-12 0)
(0.174998 -9.44917e-13 0)
(0.174998 7.27375e-13 0)
(0.174998 -5.72408e-13 0)
(0.174998 4.28931e-13 0)
(0.174998 -3.01262e-13 0)
(0.174998 1.8434e-13 0)
(0.174998 -7.49352e-14 0)
(0.174998 -2.968e-14 0)
(0.174998 1.30699e-13 0)
(0.174998 -2.45072e-13 0)
(0.174998 2.89567e-13 0)
(0.174998 -1.01669e-12 0)
(0.174998 1.47602e-12 0)
(0.174998 -4.36159e-11 0)
(0.174998 -5.14017e-11 0)
(0.224998 -1.00211e-10 0)
(0.224998 -9.34294e-11 0)
(0.224998 -5.18473e-12 0)
(0.224998 -2.82611e-12 0)
(0.224998 9.97706e-13 0)
(0.224998 -1.00116e-12 0)
(0.224998 7.57394e-13 0)
(0.224998 -5.97765e-13 0)
(0.224998 4.46732e-13 0)
(0.224998 -3.12833e-13 0)
(0.224998 1.90031e-13 0)
(0.224998 -7.49673e-14 0)
(0.224998 -3.51417e-14 0)
(0.224998 1.40835e-13 0)
(0.224998 -2.66504e-13 0)
(0.224998 2.85976e-13 0)
(0.224998 -1.33841e-12 0)
(0.224998 1.97722e-12 0)
(0.224998 -6.46658e-11 0)
(0.224998 -7.35748e-11 0)
(0.274998 -1.22407e-10 0)
(0.274998 -1.18133e-10 0)
(0.274998 -7.53926e-12 0)
(0.274998 -3.21092e-12 0)
(0.274998 8.68689e-13 0)
(0.274998 -9.62157e-13 0)
(0.274998 7.1105e-13 0)
(0.274998 -5.63498e-13 0)
(0.274998 4.19637e-13 0)
(0.274998 -2.92751e-13 0)
(0.274998 1.76152e-13 0)
(0.274998 -6.6713e-14 0)
(0.274998 -3.81024e-14 0)
(0.274998 1.37907e-13 0)
(0.274998 -2.64253e-13 0)
(0.274998 2.48089e-13 0)
(0.274998 -1.61624e-12 0)
(0.274998 2.4377e-12 0)
(0.274998 -8.48075e-11 0)
(0.274998 -9.42119e-11 0)
(0.324997 -1.37921e-10 0)
(0.324997 -1.36886e-10 0)
(0.324997 -9.71775e-12 0)
(0.324997 -3.42643e-12 0)
(0.324997 6.50973e-13 0)
(0.324997 -8.45209e-13 0)
(0.324997 6.03595e-13 0)
(0.324997 -4.81372e-13 0)
(0.324997 3.56646e-13 0)
(0.324997 -2.47475e-13 0)
(0.324997 1.46874e-13 0)
(0.324997 -5.22194e-14 0)
(0.324997 -3.85351e-14 0)
(0.324997 1.23924e-13 0)
(0.324997 -2.41777e-13 0)
(0.324997 1.83886e-13 0)
(0.324997 -1.8304e-12 0)
(0.324997 2.82282e-12 0)
(0.324997 -1.02018e-10 0)
(0.324997 -1.11335e-10 0)
(0.374997 -1.45385e-10 0)
(0.374997 -1.47939e-10 0)
(0.374997 -1.14809e-11 0)
(0.374997 -3.45623e-12 0)
(0.374997 3.70493e-13 0)
(0.374997 -6.65631e-13 0)
(0.374997 4.48547e-13 0)
(0.374997 -3.61792e-13 0)
(0.374997 2.65692e-13 0)
(0.374997 -1.82678e-13 0)
(0.374997 1.05829e-13 0)
(0.374997 -3.32257e-14 0)
(0.374997 -3.65087e-14 0)
(0.374997 1.0077e-13 0)
(0.374997 -2.02274e-13 0)
(0.374997 1.00497e-13 0)
(0.374997 -1.96336e-12 0)
(0.374997 3.098e-12 0)
(0.374997 -1.14696e-10 0)
(0.374997 -1.2338e-10 0)
(0.424997 -1.44329e-10 0)
(0.424997 -1.5048e-10 0)
(0.424997 -1.26519e-11 0)
(0.424997 -3.29618e-12 0)
(0.424997 5.27788e-14 0)
(0.424997 -4.39621e-13 0)
(0.424997 2.59877e-13 0)
(0.424997 -2.15525e-13 0)
(0.424997 1.54957e-13 0)
(0.424997 -1.04184e-13 0)
(0.424997 5.66938e-14 0)
(0.424997 -1.14109e-14 0)
(0.424997 -3.22493e-14 0)
(0.424997 7.05727e-14 0)
(0.424997 -1.49385e-13 0)
(0.424997 5.06499e-15 0)
(0.424997 -2.00357e-12 0)
(0.424997 3.23192e-12 0)
(0.424997 -1.21764e-10 0)
(0.424997 -1.2932e-10 0)
(0.474997 -1.35148e-10 0)
(0.474997 -1.4462e-10 0)
(0.474997 -1.31313e-11 0)
(0.474997 -2.95689e-12 0)
(0.474997 -2.77401e-13 0)
(0.474997 -1.84376e-13 0)
(0.474997 5.20227e-14 0)
(0.474997 -5.37405e-14 0)
(0.474997 3.28991e-14 0)
(0.474997 -1.79758e-14 0)
(0.474997 3.19228e-15 0)
(0.474997 1.15962e-14 0)
(0.474997 -2.61256e-14 0)
(0.474997 3.56976e-14 0)
(0.474997 -8.72365e-14 0)
(0.474997 -9.52213e-14 0)
(0.474997 -1.94682e-12 0)
(0.474997 3.20274e-12 0)
(0.474997 -1.22726e-10 0)
(0.474997 -1.28736e-10 0)
(0.524997 -1.19029e-10 0)
(0.524997 -1.31328e-10 0)
(0.524997 -1.29034e-11 0)
(0.524997 -2.46419e-12 0)
(0.524997 -5.96875e-13 0)
(0.524997 8.2315e-14 0)
(0.524997 -1.60478e-13 0)
(0.524997 1.12281e-13 0)
(0.524997 -9.19846e-14 0)
(0.524997 6.99606e-14 0)
(0.524997 -5.09893e-14 0)
(0.524997 3.4255e-14 0)
(0.524997 -1.86468e-14 0)
(0.524997 -1.32338e-15 0)
(0.524997 -2.02924e-14 0)
(0.524997 -1.93313e-13 0)
(0.524997 -1.79694e-12 0)
(0.524997 3.00296e-12 0)
(0.524997 -1.17679e-10 0)
(0.524997 -1.21823e-10 0)
(0.574997 -9.77924e-11 0)
(0.574997 -1.12275e-10 0)
(0.574997 -1.20331e-11 0)
(0.574997 -1.85828e-12 0)
(0.574997 -8.84486e-13 0)
(0.574997 3.42351e-13 0)
(0.574997 -3.63248e-13 0)
(0.574997 2.71326e-13 0)
(0.574997 -2.1128e-13 0)
(0.574997 1.53728e-13 0)
(0.574997 -1.02255e-13 0)
(0.574997 5.51236e-14 0)
(0.574997 -1.04298e-14 0)
(0.574997 -3.78594e-14 0)
(0.574997 4.67392e-14 0)
(0.574997 -2.82419e-13 0)
(0.574997 -1.56582e-12 0)
(0.574997 2.64346e-12 0)
(0.574997 -1.0727e-10 0)
(0.574997 -1.09357e-10 0)
(0.624997 -7.37217e-11 0)
(0.624997 -8.96543e-11 0)
(0.624997 -1.06528e-11 0)
(0.624997 -1.19151e-12 0)
(0.624997 -1.12121e-12 0)
(0.624997 5.77503e-13 0)
(0.624997 -5.42206e-13 0)
(0.624997 4.12363e-13 0)
(0.624997 -3.16735e-13 0)
(0.624997 2.27553e-13 0)
(0.624997 -1.47106e-13 0)
(0.624997 7.28452e-14 0)
(0.624997 -2.17108e-15 0)
(0.624997 -7.12247e-14 0)
(0.624997 1.08977e-13 0)
(0.624997 -3.56066e-13 0)
(0.624997 -1.27286e-12 0)
(0.624997 2.1551e-12 0)
(0.624997 -9.26227e-11 0)
(0.624997 -9.26154e-11 0)
(0.674997 -4.93165e-11 0)
(0.674997 -6.59169e-11 0)
(0.674997 -8.9406e-12 0)
(0.674997 -5.24764e-13 0)
(0.674997 -1.29017e-12 0)
(0.674997 7.69725e-13 0)
(0.674997 -6.83789e-13 0)
(0.674997 5.24676e-13 0)
(0.674997 -4.00353e-13 0)
(0.674997 2.85871e-13 0)
(0.674997 -1.82197e-13 0)
(0.674997 8.61525e-14 0)
(0.674997 5.40098e-15 0)
(0.674997 -9.87472e-14 0)
(0.674997 1.61507e-13 0)
(0.674997 -4.08261e-13 0)
(0.674997 -9.43791e-13 0)
(0.674997 1.58762e-12 0)
(0.674997 -7.52154e-11 0)
(0.674997 -7.32534e-11 0)
(0.724998 -2.7067e-11 0)
(0.724998 -4.35302e-11 0)
(0.724998 -7.09255e-12 0)
(0.724998 7.74202e-14 0)
(0.724998 -1.37666e-12 0)
(0.724998 9.01657e-13 0)
(0.724998 -7.75239e-13 0)
(0.724998 5.98146e-13 0)
(0.724998 -4.5461e-13 0)
(0.724998 3.23455e-13 0)
(0.724998 -2.04401e-13 0)
(0.724998 9.38751e-14 0)
(0.724998 1.15719e-14 0)
(0.724998 -1.17894e-13 0)
(0.724998 1.9957e-13 0)
(0.724998 -4.33705e-13 0)
(0.724998 -6.08844e-13 0)
(0.724998 1.00469e-12 0)
(0.724998 -5.675e-11 0)
(0.724998 -5.31629e-11 0)
(0.774998 -9.13858e-12 0)
(0.774998 -2.46333e-11 0)
(0.774998 -5.29136e-12 0)
(0.774998 5.51493e-13 0)
(0.774998 -1.36744e-12 0)
(0.774998 9.56606e-13 0)
(0.774998 -8.04498e-13 0)
(0.774998 6.23168e-13 0)
(0.774998 -4.7238e-13 0)
(0.774998 3.35331e-13 0)
(0.774998 -2.10735e-13 0)
(0.774998 9.48925e-14 0)
(0.774998 1.56727e-14 0)
(0.774998 -1.26285e-13 0)
(0.774998 2.18603e-13 0)
(0.774998 -4.27864e-13 0)
(0.774998 -3.00635e-13 0)
(0.774998 4.76386e-13 0)
(0.774998 -3.89511e-11 0)
(0.774998 -3.42613e-11 0)
(0.824998 2.78982e-12 0)
(0.824998 -1.08079e-11 0)
(0.824998 -3.66701e-12 0)
(0.824998 8.35787e-13 0)
(0.824998 -1.24642e-12 0)
(0.824998 9.15847e-13 0)
(0.824998 -7.57913e-13 0)
(0.824998 5.88842e-13 0)
(0.824998 -4.45539e-13 0)
(0.824998 3.15819e-13 0)
(0.824998 -1.97732e-13 0)
(0.824998 8.78326e-14 0)
(0.824998 1.70689e-14 0)
(0.824998 -1.2138e-13 0)
(0.824998 2.13642e-13 0)
(0.824998 -3.86028e-13 0)
(0.824998 -5.28256e-14 0)
(0.824998 7.07695e-14 0)
(0.824998 -2.3415e-11 0)
(0.824998 -1.83455e-11 0)
(0.874999 7.97362e-12 0)
(0.874999 -2.59439e-12 0)
(0.874999 -2.27711e-12 0)
(0.874999 8.67974e-13 0)
(0.874999 -9.92753e-13 0)
(0.874999 7.56839e-13 0)
(0.874999 -6.18828e-13 0)
(0.874999 4.81912e-13 0)
(0.874999 -3.64171e-13 0)
(0.874999 2.57913e-13 0)
(0.874999 -1.61079e-13 0)
(0.874999 7.09066e-14 0)
(0.874999 1.51601e-14 0)
(0.874999 -1.00316e-13 0)
(0.874999 1.7895e-13 0)
(0.874999 -3.03308e-13 0)
(0.874999 9.84997e-14 0)
(0.874999 -1.63026e-13 0)
(0.874999 -1.13674e-11 0)
(0.874999 -6.84207e-12 0)
(0.924999 6.8978e-12 0)
(0.924999 5.46986e-13 0)
(0.924999 -1.11821e-12 0)
(0.924999 6.26406e-13 0)
(0.924999 -6.04986e-13 0)
(0.924999 4.7497e-13 0)
(0.924999 -3.84732e-13 0)
(0.924999 3.00183e-13 0)
(0.924999 -2.26648e-13 0)
(0.924999 1.60437e-13 0)
(0.924999 -1.00061e-13 0)
(0.924999 4.38113e-14 0)
(0.924999 9.8837e-15 0)
(0.924999 -6.27787e-14 0)
(0.924999 1.13269e-13 0)
(0.924999 -1.81873e-13 0)
(0.924999 1.30105e-13 0)
(0.924999 -1.88725e-13 0)
(0.924999 -3.66338e-12 0)
(0.924999 -6.84187e-13 0)
(0.975 2.573e-12 0)
(0.975 5.70609e-13 0)
(0.975 -3.07912e-13 0)
(0.975 2.16563e-13 0)
(0.975 -1.92343e-13 0)
(0.975 1.53471e-13 0)
(0.975 -1.23619e-13 0)
(0.975 9.65758e-14 0)
(0.975 -7.288e-14 0)
(0.975 5.158e-14 0)
(0.975 -3.21474e-14 0)
(0.975 1.40384e-14 0)
(0.975 3.2488e-15 0)
(0.975 -2.02279e-14 0)
(0.975 3.67771e-14 0)
(0.975 -5.71277e-14 0)
(0.975 5.47455e-14 0)
(0.975 -8.65209e-14 0)
(0.975 -4.76823e-13 0)
(0.975 5.21299e-13 0)
)
;

boundaryField
{
    top
    {
        type            fixedValue;
        value           uniform (1 0 0);
    }
    bottom
    {
        type            fixedValue;
        value           uniform (0 0 0);
    }
    inlet
    {
        type            zeroGradient;
    }
    outlet
    {
        type            zeroGradient;
    }
    frontAndBack
    {
        type            empty;
    }
}


// ************************************************************************* //
