/*--------------------------------*- C++ -*----------------------------------*\
| =========                 |                                                 |
| \\      /  F ield         | OpenFOAM: The Open Source CFD Toolbox           |
|  \\    /   O peration     | Version:  4.1                                   |
|   \\  /    A nd           | Web:      www.OpenFOAM.org                      |
|    \\/     M anipulation  |                                                 |
\*---------------------------------------------------------------------------*/
FoamFile
{
    version     2.0;
    format      ascii;
    class       volScalarField;
    location    "3.3";
    object      p;
}
// * * * * * * * * * * * * * * * * * * * * * * * * * * * * * * * * * * * * * //

dimensions      [0 2 -2 0 0 0 0];

internalField   nonuniform List<scalar> 
400
(
9.9115e-11
1.1066e-10
9.44068e-11
1.00995e-10
8.90269e-11
9.24965e-11
8.34447e-11
8.44148e-11
7.75588e-11
7.65821e-11
7.14659e-11
6.88972e-11
6.52742e-11
6.12913e-11
5.90465e-11
5.36725e-11
5.28666e-11
4.61277e-11
4.72127e-11
4.44974e-11
9.87573e-11
1.10293e-10
9.43792e-11
1.00988e-10
8.90274e-11
9.24953e-11
8.34455e-11
8.44141e-11
7.75592e-11
7.65818e-11
7.14661e-11
6.88972e-11
6.52741e-11
6.12915e-11
5.90461e-11
5.36726e-11
5.28626e-11
4.61304e-11
4.69681e-11
4.42386e-11
9.85533e-11
1.10031e-10
9.43453e-11
1.00987e-10
8.90229e-11
9.24982e-11
8.3443e-11
8.44161e-11
7.75578e-11
7.65828e-11
7.14655e-11
6.88975e-11
6.52741e-11
6.12911e-11
5.90467e-11
5.36713e-11
5.28609e-11
4.61277e-11
4.67745e-11
4.40595e-11
9.84891e-11
1.09909e-10
9.43132e-11
1.00988e-10
8.90179e-11
9.25016e-11
8.34402e-11
8.44183e-11
7.75561e-11
7.65839e-11
7.14648e-11
6.88978e-11
6.52742e-11
6.12906e-11
5.90476e-11
5.36698e-11
5.28602e-11
4.6121e-11
4.66635e-11
4.3968e-11
9.85092e-11
1.09883e-10
9.4283e-11
1.00989e-10
8.90139e-11
9.25043e-11
8.3438e-11
8.44201e-11
7.75548e-11
7.65848e-11
7.14643e-11
6.8898e-11
6.52743e-11
6.12903e-11
5.90482e-11
5.36686e-11
5.28598e-11
4.61124e-11
4.66171e-11
4.39364e-11
9.85847e-11
1.09923e-10
9.42528e-11
1.00989e-10
8.90106e-11
9.25064e-11
8.34362e-11
8.44215e-11
7.75538e-11
7.65855e-11
7.14639e-11
6.88981e-11
6.52744e-11
6.129e-11
5.90488e-11
5.36677e-11
5.28596e-11
4.61028e-11
4.66221e-11
4.39512e-11
9.86992e-11
1.10008e-10
9.42221e-11
1.00989e-10
8.90078e-11
9.25081e-11
8.34347e-11
8.44226e-11
7.7553e-11
7.65861e-11
7.14635e-11
6.88982e-11
6.52744e-11
6.12898e-11
5.90493e-11
5.36669e-11
5.28597e-11
4.6093e-11
4.66701e-11
4.40047e-11
9.88339e-11
1.10118e-10
9.41904e-11
1.00988e-10
8.90055e-11
9.25094e-11
8.34336e-11
8.44235e-11
7.75525e-11
7.65865e-11
7.14633e-11
6.88983e-11
6.52745e-11
6.12896e-11
5.90497e-11
5.36663e-11
5.286e-11
4.60837e-11
4.6751e-11
4.40861e-11
9.897e-11
1.10234e-10
9.41577e-11
1.00986e-10
8.90038e-11
9.25103e-11
8.34329e-11
8.4424e-11
7.75521e-11
7.65867e-11
7.14632e-11
6.88983e-11
6.52745e-11
6.12896e-11
5.905e-11
5.36659e-11
5.28603e-11
4.60757e-11
4.68523e-11
4.41829e-11
9.909e-11
1.10338e-10
9.41242e-11
1.00984e-10
8.90026e-11
9.25106e-11
8.34325e-11
8.44244e-11
7.75519e-11
7.65868e-11
7.14632e-11
6.88983e-11
6.52745e-11
6.12896e-11
5.90502e-11
5.36658e-11
5.28605e-11
4.60695e-11
4.69607e-11
4.42819e-11
9.91791e-11
1.10414e-10
9.40903e-11
1.00981e-10
8.90019e-11
9.25105e-11
8.34325e-11
8.44244e-11
7.7552e-11
7.65867e-11
7.14633e-11
6.88982e-11
6.52745e-11
6.12896e-11
5.90503e-11
5.36658e-11
5.28603e-11
4.60653e-11
4.70631e-11
4.43706e-11
9.92259e-11
1.1045e-10
9.40567e-11
1.00976e-10
8.90018e-11
9.25099e-11
8.3433e-11
8.44241e-11
7.75523e-11
7.65864e-11
7.14635e-11
6.88981e-11
6.52746e-11
6.12897e-11
5.90503e-11
5.36661e-11
5.28598e-11
4.60634e-11
4.71473e-11
4.44374e-11
9.92232e-11
1.10441e-10
9.40241e-11
1.00971e-10
8.90021e-11
9.25088e-11
8.34337e-11
8.44236e-11
7.75528e-11
7.6586e-11
7.14638e-11
6.88979e-11
6.52746e-11
6.12899e-11
5.90501e-11
5.36665e-11
5.28587e-11
4.60636e-11
4.72034e-11
4.4473e-11
9.91689e-11
1.10383e-10
9.39936e-11
1.00964e-10
8.9003e-11
9.25073e-11
8.34349e-11
8.44227e-11
7.75536e-11
7.65855e-11
7.14641e-11
6.88977e-11
6.52747e-11
6.12901e-11
5.90499e-11
5.3667e-11
5.28571e-11
4.60656e-11
4.7224e-11
4.4471e-11
9.90659e-11
1.10282e-10
9.39661e-11
1.00957e-10
8.90044e-11
9.25052e-11
8.34363e-11
8.44216e-11
7.75545e-11
7.65848e-11
7.14646e-11
6.88975e-11
6.52748e-11
6.12903e-11
5.90496e-11
5.36677e-11
5.28549e-11
4.60691e-11
4.7205e-11
4.4428e-11
9.89237e-11
1.10147e-10
9.39424e-11
1.00949e-10
8.90063e-11
9.25028e-11
8.34381e-11
8.44202e-11
7.75557e-11
7.65841e-11
7.14651e-11
6.88972e-11
6.52748e-11
6.12906e-11
5.90491e-11
5.36684e-11
5.28521e-11
4.60734e-11
4.71476e-11
4.43455e-11
9.87544e-11
1.09994e-10
9.39237e-11
1.0094e-10
8.9009e-11
9.24998e-11
8.34404e-11
8.44185e-11
7.7557e-11
7.65831e-11
7.14657e-11
6.88969e-11
6.52749e-11
6.12909e-11
5.90484e-11
5.36693e-11
5.28487e-11
4.60783e-11
4.70564e-11
4.42277e-11
9.8583e-11
1.0985e-10
9.39106e-11
1.0093e-10
8.90126e-11
9.24961e-11
8.34433e-11
8.44163e-11
7.75587e-11
7.65819e-11
7.14664e-11
6.88966e-11
6.52749e-11
6.12913e-11
5.90475e-11
5.36704e-11
5.28446e-11
4.60833e-11
4.6942e-11
4.40841e-11
9.84508e-11
1.09744e-10
9.39012e-11
1.00922e-10
8.90156e-11
9.24928e-11
8.34456e-11
8.44144e-11
7.75602e-11
7.65809e-11
7.14671e-11
6.88963e-11
6.52749e-11
6.12916e-11
5.90468e-11
5.36712e-11
5.28404e-11
4.60877e-11
4.68121e-11
4.39294e-11
9.84265e-11
1.09697e-10
9.38886e-11
1.0092e-10
8.90136e-11
9.24938e-11
8.34447e-11
8.44151e-11
7.75597e-11
7.65812e-11
7.14669e-11
6.88964e-11
6.5275e-11
6.12913e-11
5.90471e-11
5.36704e-11
5.2838e-11
4.60894e-11
4.66903e-11
4.38101e-11
)
;

boundaryField
{
    top
    {
        type            zeroGradient;
    }
    bottom
    {
        type            zeroGradient;
    }
    inlet
    {
        type            fixedValue;
        value           uniform 0;
    }
    outlet
    {
        type            fixedValue;
        value           uniform 0;
    }
    frontAndBack
    {
        type            empty;
    }
}


// ************************************************************************* //
