/*--------------------------------*- C++ -*----------------------------------*\
| =========                 |                                                 |
| \\      /  F ield         | OpenFOAM: The Open Source CFD Toolbox           |
|  \\    /   O peration     | Version:  4.1                                   |
|   \\  /    A nd           | Web:      www.OpenFOAM.org                      |
|    \\/     M anipulation  |                                                 |
\*---------------------------------------------------------------------------*/
FoamFile
{
    version     2.0;
    format      ascii;
    class       surfaceScalarField;
    location    "3.3";
    object      phi;
}
// * * * * * * * * * * * * * * * * * * * * * * * * * * * * * * * * * * * * * //

dimensions      [0 3 -1 0 0 0 0];

internalField   nonuniform List<scalar> 
760
(
1.25e-06
-1.54046e-16
1.25e-06
-1.05847e-16
1.25e-06
1.33293e-18
1.25e-06
-7.50246e-18
1.25e-06
5.00603e-18
1.25e-06
-4.23685e-18
1.25e-06
3.35006e-18
1.25e-06
-2.61652e-18
1.25e-06
1.9587e-18
1.25e-06
-1.37908e-18
1.25e-06
8.47923e-19
1.25e-06
-3.34685e-19
1.25e-06
-1.39787e-19
1.25e-06
5.94886e-19
1.25e-06
-1.09101e-18
1.25e-06
1.48454e-18
1.25e-06
-2.81009e-18
1.25e-06
3.95456e-18
1.25e-06
-6.34235e-17
-9.3447e-17
3.75e-06
-4.65621e-16
3.75e-06
-3.7035e-16
3.75e-06
-7.65462e-18
3.75e-06
-1.82515e-17
3.75e-06
1.04968e-17
3.75e-06
-9.18897e-18
3.75e-06
7.19868e-18
3.75e-06
-5.62257e-18
3.75e-06
4.19688e-18
3.75e-06
-2.95776e-18
3.75e-06
1.81975e-18
3.75e-06
-6.92046e-19
3.75e-06
-3.28766e-19
3.75e-06
1.29718e-18
3.75e-06
-2.41237e-18
3.75e-06
3.11488e-18
3.75e-06
-7.37775e-18
3.75e-06
1.04279e-17
3.75e-06
-2.33571e-16
-3.01744e-16
6.25e-06
-8.42407e-16
6.25e-06
-7.30183e-16
6.25e-06
-2.84829e-17
6.25e-06
-2.79872e-17
6.25e-06
1.35111e-17
6.25e-06
-1.23683e-17
6.25e-06
9.57326e-18
6.25e-06
-7.48149e-18
6.25e-06
5.56459e-18
6.25e-06
-3.92361e-18
6.25e-06
2.41378e-18
6.25e-06
-8.78102e-19
6.25e-06
-4.8388e-19
6.25e-06
1.75391e-18
6.25e-06
-3.32466e-18
6.25e-06
4.0231e-18
6.25e-06
-1.21626e-17
6.25e-06
1.74777e-17
6.25e-06
-4.79655e-16
-5.76944e-16
8.75e-06
-1.22756e-15
8.75e-06
-1.12325e-15
8.75e-06
-5.7224e-17
8.75e-06
-3.63004e-17
8.75e-06
1.43568e-17
8.75e-06
-1.39404e-17
8.75e-06
1.06266e-17
8.75e-06
-8.31249e-18
8.75e-06
6.15079e-18
8.75e-06
-4.34522e-18
8.75e-06
2.68079e-18
8.75e-06
-9.21313e-19
8.75e-06
-5.95654e-19
8.75e-06
1.98309e-18
8.75e-06
-3.84803e-18
8.75e-06
4.2966e-18
8.75e-06
-1.68453e-17
8.75e-06
2.46251e-17
8.75e-06
-7.65374e-16
-8.8282e-16
1.125e-05
-1.57207e-15
1.125e-05
-1.49487e-15
1.125e-05
-8.96665e-17
1.125e-05
-4.27569e-17
1.125e-05
1.33752e-17
1.125e-05
-1.40886e-17
1.125e-05
1.05307e-17
1.125e-05
-8.23735e-18
1.125e-05
6.0557e-18
1.125e-05
-4.29564e-18
1.125e-05
2.65564e-18
1.125e-05
-8.46065e-19
1.125e-05
-6.60535e-19
1.125e-05
2.00643e-18
1.125e-05
-4.00735e-18
1.125e-05
4.02857e-18
1.125e-05
-2.10861e-17
1.125e-05
3.14048e-17
1.125e-05
-1.05586e-15
-1.18471e-15
1.375e-05
-1.83842e-15
1.375e-05
-1.80164e-15
1.375e-05
-1.2167e-16
1.375e-05
-4.69648e-17
1.375e-05
1.09262e-17
1.375e-05
-1.3003e-17
1.375e-05
9.45976e-18
1.375e-05
-7.4035e-18
1.375e-05
5.38778e-18
1.375e-05
-3.85119e-18
1.375e-05
2.39127e-18
1.375e-05
-6.78346e-19
1.375e-05
-6.70099e-19
1.375e-05
1.84859e-18
1.375e-05
-3.85262e-18
1.375e-05
3.31982e-18
1.375e-05
-2.45565e-17
1.375e-05
3.73436e-17
1.375e-05
-1.31964e-15
-1.45143e-15
1.625e-05
-2.00065e-15
1.625e-05
-2.01199e-15
1.625e-05
-1.49528e-16
1.625e-05
-4.86428e-17
1.625e-05
7.38114e-18
1.625e-05
-1.09041e-17
1.625e-05
7.60922e-18
1.625e-05
-5.95907e-18
1.625e-05
4.26477e-18
1.625e-05
-3.08245e-18
1.625e-05
1.9277e-18
1.625e-05
-4.50133e-19
1.625e-05
-6.26583e-19
1.625e-05
1.5449e-18
1.625e-05
-3.41538e-18
1.625e-05
2.26991e-18
1.625e-05
-2.69847e-17
1.625e-05
4.19502e-17
1.625e-05
-1.53073e-15
-1.6575e-15
1.875e-05
-2.04587e-15
1.875e-05
-2.10781e-15
1.875e-05
-1.70299e-16
1.875e-05
-4.76507e-17
1.875e-05
3.11591e-18
1.875e-05
-8.01818e-18
1.875e-05
5.1696e-18
1.875e-05
-4.05835e-18
1.875e-05
2.80428e-18
1.875e-05
-2.07359e-18
1.875e-05
1.33017e-18
1.875e-05
-1.81015e-19
1.875e-05
-5.45395e-19
1.875e-05
1.12334e-18
1.875e-05
-2.74425e-18
1.875e-05
9.72373e-19
1.875e-05
-2.81599e-17
1.875e-05
4.47741e-17
1.875e-05
-1.67015e-15
-1.78454e-15
2.125e-05
-1.97351e-15
2.125e-05
-2.08414e-15
2.125e-05
-1.82003e-16
2.125e-05
-4.40509e-17
2.125e-05
-1.51462e-18
2.125e-05
-4.57592e-18
2.125e-05
2.35203e-18
2.125e-05
-1.86779e-18
2.125e-05
1.11544e-18
2.125e-05
-9.08534e-19
2.125e-05
6.44887e-19
2.125e-05
1.03745e-19
2.125e-05
-4.28947e-19
2.125e-05
6.2416e-19
2.125e-05
-1.89707e-18
2.125e-05
-4.66117e-19
2.125e-05
-2.79917e-17
2.125e-05
4.5443e-17
2.125e-05
-1.72677e-15
-1.82238e-15
2.375e-05
-1.79479e-15
2.375e-05
-1.94865e-15
2.375e-05
-1.83825e-16
2.375e-05
-3.81012e-17
2.375e-05
-6.16982e-18
2.375e-05
-8.38166e-19
2.375e-05
-6.41958e-19
2.375e-05
4.63763e-19
2.375e-05
-6.50264e-19
2.375e-05
3.08597e-19
2.375e-05
-8.47003e-20
2.375e-05
3.85584e-19
2.375e-05
-2.87886e-19
2.375e-05
7.45131e-20
2.375e-05
-9.42085e-19
2.375e-05
-1.91727e-18
2.375e-05
-2.64728e-17
2.375e-05
4.37623e-17
2.375e-05
-1.69782e-15
-1.76944e-15
2.625e-05
-1.53095e-15
2.625e-05
-1.71999e-15
2.625e-05
-1.7612e-16
2.625e-05
-3.02755e-17
2.625e-05
-1.05156e-17
2.625e-05
2.94143e-18
2.625e-05
-3.60319e-18
2.625e-05
2.77738e-18
2.625e-05
-2.39735e-18
2.625e-05
1.50987e-18
2.625e-05
-8.10903e-19
2.625e-05
6.67548e-19
2.625e-05
-1.47686e-19
2.625e-05
-4.84717e-19
2.625e-05
6.26739e-20
2.625e-05
-3.2994e-18
2.625e-05
-2.3724e-17
2.625e-05
3.97474e-17
2.625e-05
-1.58854e-15
-1.63257e-15
2.875e-05
-1.21089e-15
2.875e-05
-1.4254e-15
2.875e-05
-1.60281e-16
2.875e-05
-2.1243e-17
2.875e-05
-1.42838e-17
2.875e-05
6.50155e-18
2.875e-05
-6.32413e-18
2.875e-05
4.90441e-18
2.875e-05
-3.9959e-18
2.875e-05
2.62092e-18
2.875e-05
-1.47859e-18
2.875e-05
9.08298e-19
2.875e-05
-3.23631e-21
2.875e-05
-1.0124e-18
2.875e-05
1.03379e-18
2.875e-05
-4.50956e-18
2.875e-05
-1.99605e-17
2.875e-05
3.37163e-17
2.875e-05
-1.41143e-15
-1.42625e-15
3.125e-05
-8.68482e-16
3.125e-05
-1.0978e-15
3.125e-05
-1.38499e-16
3.125e-05
-1.17852e-17
3.125e-05
-1.72016e-17
3.125e-05
9.5792e-18
3.125e-05
-8.61672e-18
3.125e-05
6.69904e-18
3.125e-05
-5.32158e-18
3.125e-05
3.52775e-18
3.125e-05
-2.04371e-18
3.125e-05
1.10544e-18
3.125e-05
1.20854e-19
3.125e-05
-1.46183e-18
3.125e-05
1.90177e-18
3.125e-05
-5.43655e-18
3.125e-05
-1.55265e-17
3.125e-05
2.62188e-17
3.125e-05
-1.18492e-15
-1.17125e-15
3.375e-05
-5.38798e-16
3.375e-05
-7.71715e-16
3.375e-05
-1.13406e-16
3.375e-05
-2.81349e-18
3.375e-05
-1.90336e-17
3.375e-05
1.191e-17
3.375e-05
-1.02959e-17
3.375e-05
8.00875e-18
3.375e-05
-6.26024e-18
3.375e-05
4.2033e-18
3.375e-05
-2.48347e-18
3.375e-05
1.23044e-18
3.375e-05
2.29602e-19
3.375e-05
-1.79835e-18
3.375e-05
2.60785e-18
3.375e-05
-6.0319e-18
3.375e-05
-1.08093e-17
3.375e-05
1.80804e-17
3.375e-05
-9.31334e-16
-8.92496e-16
3.625e-05
-2.55078e-16
3.625e-05
-4.80006e-16
3.625e-05
-8.7631e-17
3.625e-05
4.77923e-18
3.625e-05
-1.95767e-17
3.625e-05
1.32414e-17
3.625e-05
-1.11733e-17
3.625e-05
8.70144e-18
3.625e-05
-6.73893e-18
3.625e-05
4.54591e-18
3.625e-05
-2.70397e-18
3.625e-05
1.27941e-18
3.625e-05
3.00786e-19
3.625e-05
-1.97628e-18
3.625e-05
3.06556e-18
3.625e-05
-6.20592e-18
3.625e-05
-6.25623e-18
3.625e-05
1.02364e-17
3.625e-05
-6.75095e-16
-6.17102e-16
3.875e-05
-4.3519e-17
3.875e-05
-2.48228e-16
3.875e-05
-6.34652e-17
3.875e-05
1.01039e-17
3.875e-05
-1.86545e-17
3.875e-05
1.33579e-17
3.875e-05
-1.10893e-17
3.875e-05
8.618e-18
3.875e-05
-6.62698e-18
3.875e-05
4.51729e-18
3.875e-05
-2.69562e-18
3.875e-05
1.22657e-18
3.875e-05
3.3528e-19
3.875e-05
-1.9786e-18
3.875e-05
3.19095e-18
3.875e-05
-5.87674e-18
3.875e-05
-2.34194e-18
3.875e-05
3.6472e-18
3.875e-05
-4.3941e-16
-3.70987e-16
4.125e-05
7.83288e-17
4.125e-05
-9.27115e-17
4.125e-05
-4.23086e-17
4.125e-05
1.23824e-17
4.125e-05
-1.60833e-17
4.125e-05
1.20294e-17
4.125e-05
-9.84597e-18
4.125e-05
7.65307e-18
4.125e-05
-5.8622e-18
4.125e-05
4.03098e-18
4.125e-05
-2.42202e-18
4.125e-05
1.0744e-18
4.125e-05
3.13921e-19
4.125e-05
-1.75098e-18
4.125e-05
2.94061e-18
4.125e-05
-5.03043e-18
4.125e-05
4.98163e-19
4.125e-05
-8.60167e-19
4.125e-05
-2.44887e-16
-1.77107e-16
4.375e-05
1.09126e-16
4.375e-05
-1.29013e-17
4.375e-05
-2.45675e-17
4.375e-05
1.1055e-17
4.375e-05
-1.16909e-17
4.375e-05
9.04416e-18
4.375e-05
-7.3158e-18
4.375e-05
5.68364e-18
4.375e-05
-4.35185e-18
4.375e-05
3.01402e-18
4.375e-05
-1.81008e-18
4.375e-05
7.8308e-19
4.375e-05
2.37492e-19
4.375e-05
-1.287e-18
4.375e-05
2.22903e-18
4.375e-05
-3.6158e-18
4.375e-05
1.83709e-18
4.375e-05
-2.72977e-18
4.375e-05
-1.04536e-16
-5.04287e-17
4.625e-05
6.12927e-17
4.625e-05
6.42294e-18
4.625e-05
-9.42266e-18
4.625e-05
5.6964e-18
4.625e-05
-5.30962e-18
4.625e-05
4.20393e-18
4.625e-05
-3.38364e-18
4.625e-05
2.63034e-18
4.625e-05
-2.00213e-18
4.625e-05
1.3946e-18
4.625e-05
-8.38285e-19
4.625e-05
3.66805e-19
4.625e-05
1.07343e-19
4.625e-05
-5.90525e-19
4.625e-05
1.04217e-18
4.625e-05
-1.61065e-18
4.625e-05
1.35165e-18
4.625e-05
-1.90431e-18
4.625e-05
-2.44696e-17
1.69808e-18
4.875e-05
4.875e-05
4.875e-05
4.875e-05
4.875e-05
4.875e-05
4.875e-05
4.875e-05
4.875e-05
4.875e-05
4.875e-05
4.875e-05
4.875e-05
4.875e-05
4.875e-05
4.875e-05
4.875e-05
4.875e-05
4.875e-05
)
;

boundaryField
{
    top
    {
        type            calculated;
        value           uniform 0;
    }
    bottom
    {
        type            calculated;
        value           uniform 0;
    }
    inlet
    {
        type            calculated;
        value           nonuniform List<scalar> 
20
(
-1.25e-06
-3.75e-06
-6.25e-06
-8.75e-06
-1.125e-05
-1.375e-05
-1.625e-05
-1.875e-05
-2.125e-05
-2.375e-05
-2.625e-05
-2.875e-05
-3.125e-05
-3.375e-05
-3.625e-05
-3.875e-05
-4.125e-05
-4.375e-05
-4.625e-05
-4.875e-05
)
;
    }
    outlet
    {
        type            calculated;
        value           nonuniform List<scalar> 
20
(
1.25e-06
3.75e-06
6.25e-06
8.75e-06
1.125e-05
1.375e-05
1.625e-05
1.875e-05
2.125e-05
2.375e-05
2.625e-05
2.875e-05
3.125e-05
3.375e-05
3.625e-05
3.875e-05
4.125e-05
4.375e-05
4.625e-05
4.875e-05
)
;
    }
    frontAndBack
    {
        type            empty;
        value           nonuniform 0();
    }
}


// ************************************************************************* //
