/*--------------------------------*- C++ -*----------------------------------*\
| =========                 |                                                 |
| \\      /  F ield         | OpenFOAM: The Open Source CFD Toolbox           |
|  \\    /   O peration     | Version:  4.1                                   |
|   \\  /    A nd           | Web:      www.OpenFOAM.org                      |
|    \\/     M anipulation  |                                                 |
\*---------------------------------------------------------------------------*/
FoamFile
{
    version     2.0;
    format      ascii;
    class       volVectorField;
    location    "3.3";
    object      U;
}
// * * * * * * * * * * * * * * * * * * * * * * * * * * * * * * * * * * * * * //

dimensions      [0 1 -1 0 0 0 0];

internalField   nonuniform List<vector> 
400
(
(0.025 -6.85982e-14 0)
(0.025 -4.27617e-14 0)
(0.025 1.58307e-15 0)
(0.025 -3.74771e-15 0)
(0.025 2.63633e-15 0)
(0.025 -2.20744e-15 0)
(0.025 1.75111e-15 0)
(0.025 -1.36764e-15 0)
(0.025 1.02491e-15 0)
(0.025 -7.21463e-16 0)
(0.025 4.43519e-16 0)
(0.025 -1.77345e-16 0)
(0.025 -7.0313e-17 0)
(0.025 3.09234e-16 0)
(0.025 -5.64015e-16 0)
(0.025 7.79582e-16 0)
(0.025 -1.35962e-15 0)
(0.025 1.75328e-15 0)
(0.025 -2.40969e-14 0)
(0.025 -3.92783e-14 0)
(0.075 -2.88793e-13 0)
(0.075 -2.13106e-13 0)
(0.075 -5.42705e-16 0)
(0.075 -1.26854e-14 0)
(0.075 8.02202e-15 0)
(0.075 -6.86929e-15 0)
(0.075 5.41352e-15 0)
(0.075 -4.22762e-15 0)
(0.075 3.16141e-15 0)
(0.075 -2.22682e-15 0)
(0.075 1.36959e-15 0)
(0.075 -5.32608e-16 0)
(0.075 -2.34317e-16 0)
(0.075 9.66953e-16 0)
(0.075 -1.78256e-15 0)
(0.075 2.37828e-15 0)
(0.075 -4.89867e-15 0)
(0.075 7.03804e-15 0)
(0.075 -1.29987e-13 0)
(0.075 -1.7954e-13 0)
(0.125 -6.40727e-13 0)
(0.125 -5.31919e-13 0)
(0.125 -1.57619e-14 0)
(0.125 -2.31942e-14 0)
(0.125 1.24048e-14 0)
(0.125 -1.10532e-14 0)
(0.125 8.61728e-15 0)
(0.125 -6.73275e-15 0)
(0.125 5.01858e-15 0)
(0.125 -3.53653e-15 0)
(0.125 2.17526e-15 0)
(0.125 -8.12714e-16 0)
(0.125 -4.11169e-16 0)
(0.125 1.56386e-15 0)
(0.125 -2.9308e-15 0)
(0.125 3.68456e-15 0)
(0.125 -9.68156e-15 0)
(0.125 1.3651e-14 0)
(0.125 -3.41097e-13 0)
(0.125 -4.24926e-13 0)
(0.175 -1.03712e-12 0)
(0.175 -9.23166e-13 0)
(0.175 -4.1235e-14 0)
(0.175 -3.25308e-14 0)
(0.175 1.44409e-14 0)
(0.175 -1.35355e-14 0)
(0.175 1.04116e-14 0)
(0.175 -8.14029e-15 0)
(0.175 6.04183e-15 0)
(0.175 -4.26264e-15 0)
(0.175 2.62594e-15 0)
(0.175 -9.3333e-16 0)
(0.175 -5.50858e-16 0)
(0.175 1.92285e-15 0)
(0.175 -3.67988e-15 0)
(0.175 4.30834e-15 0)
(0.175 -1.45603e-14 0)
(0.175 2.10333e-14 0)
(0.175 -6.1595e-13 0)
(0.175 -7.25472e-13 0)
(0.225 -1.41436e-12 0)
(0.225 -1.31927e-12 0)
(0.225 -7.29856e-14 0)
(0.225 -4.0062e-14 0)
(0.225 1.42996e-14 0)
(0.225 -1.43631e-14 0)
(0.225 1.08578e-14 0)
(0.225 -8.49315e-15 0)
(0.225 6.26807e-15 0)
(0.225 -4.4349e-15 0)
(0.225 2.73775e-15 0)
(0.225 -9.10918e-16 0)
(0.225 -6.41315e-16 0)
(0.225 2.04528e-15 0)
(0.225 -4.01696e-15 0)
(0.225 4.29108e-15 0)
(0.225 -1.91243e-14 0)
(0.225 2.81137e-14 0)
(0.225 -9.13159e-13 0)
(0.225 -1.03852e-12 0)
(0.275 -1.72773e-12 0)
(0.275 -1.66803e-12 0)
(0.275 -1.06252e-13 0)
(0.275 -4.54601e-14 0)
(0.275 1.24748e-14 0)
(0.275 -1.38296e-14 0)
(0.275 1.02172e-14 0)
(0.275 -7.99379e-15 0)
(0.275 5.85199e-15 0)
(0.275 -4.16406e-15 0)
(0.275 2.57782e-15 0)
(0.275 -7.81727e-16 0)
(0.275 -6.77774e-16 0)
(0.275 1.96891e-15 0)
(0.275 -4.00631e-15 0)
(0.275 3.77332e-15 0)
(0.275 -2.30481e-14 0)
(0.275 3.45943e-14 0)
(0.275 -1.19752e-12 0)
(0.275 -1.32989e-12 0)
(0.325 -1.94676e-12 0)
(0.325 -1.93276e-12 0)
(0.325 -1.3705e-13 0)
(0.325 -4.84503e-14 0)
(0.325 9.37954e-15 0)
(0.325 -1.21777e-14 0)
(0.325 8.70424e-15 0)
(0.325 -6.81379e-15 0)
(0.325 4.92559e-15 0)
(0.325 -3.53636e-15 0)
(0.325 2.20052e-15 0)
(0.325 -5.76671e-16 0)
(0.325 -6.60216e-16 0)
(0.325 1.72949e-15 0)
(0.325 -3.69717e-15 0)
(0.325 2.86729e-15 0)
(0.325 -2.6054e-14 0)
(0.325 3.99903e-14 0)
(0.325 -1.44048e-12 0)
(0.325 -1.57166e-12 0)
(0.375 -2.05218e-12 0)
(0.375 -2.08876e-12 0)
(0.375 -1.62004e-13 0)
(0.375 -4.88065e-14 0)
(0.375 5.38315e-15 0)
(0.375 -9.62805e-15 0)
(0.375 6.50961e-15 0)
(0.375 -5.10227e-15 0)
(0.375 3.60336e-15 0)
(0.375 -2.62627e-15 0)
(0.375 1.65766e-15 0)
(0.375 -3.22622e-16 0)
(0.375 -5.95996e-16 0)
(0.375 1.3589e-15 0)
(0.375 -3.13018e-15 0)
(0.375 1.66773e-15 0)
(0.375 -2.78937e-14 0)
(0.375 4.38238e-14 0)
(0.375 -1.61944e-12 0)
(0.375 -1.74176e-12 0)
(0.425 -2.03734e-12 0)
(0.425 -2.12458e-12 0)
(0.425 -1.78611e-13 0)
(0.425 -4.64739e-14 0)
(0.425 8.47179e-16 0)
(0.425 -6.40305e-15 0)
(0.425 3.82979e-15 0)
(0.425 -3.01686e-15 0)
(0.425 1.99813e-15 0)
(0.425 -1.5186e-15 0)
(0.425 1.00438e-15 0)
(0.425 -4.09634e-17 0)
(0.425 -4.94333e-16 0)
(0.425 8.90231e-16 0)
(0.425 -2.35676e-15 0)
(0.425 2.73542e-16 0)
(0.425 -2.84105e-14 0)
(0.425 4.56584e-14 0)
(0.425 -1.71918e-12 0)
(0.425 -1.82568e-12 0)
(0.475 -1.90781e-12 0)
(0.475 -2.04179e-12 0)
(0.475 -1.85446e-13 0)
(0.475 -4.16103e-14 0)
(0.475 -3.87892e-15 0)
(0.475 -2.7492e-15 0)
(0.475 8.72002e-16 0)
(0.475 -7.15982e-16 0)
(0.475 2.40613e-16 0)
(0.475 -3.05621e-16 0)
(0.475 2.84785e-16 0)
(0.475 2.46499e-16 0)
(0.475 -3.63017e-16 0)
(0.475 3.56497e-16 0)
(0.475 -1.43889e-15 0)
(0.475 -1.19717e-15 0)
(0.475 -2.75528e-14 0)
(0.475 4.51909e-14 0)
(0.475 -1.73272e-12 0)
(0.475 -1.8175e-12 0)
(0.525 -1.68034e-12 0)
(0.525 -1.85407e-12 0)
(0.525 -1.82289e-13 0)
(0.525 -3.45837e-14 0)
(0.525 -8.45529e-15 0)
(0.525 1.07359e-15 0)
(0.525 -2.15564e-15 0)
(0.525 1.64605e-15 0)
(0.525 -1.54627e-15 0)
(0.525 9.25034e-16 0)
(0.525 -4.55278e-16 0)
(0.525 5.31781e-16 0)
(0.525 -2.18645e-16 0)
(0.525 -2.07395e-16 0)
(0.525 -4.42195e-16 0)
(0.525 -2.63952e-15 0)
(0.525 -2.5377e-14 0)
(0.525 4.23175e-14 0)
(0.525 -1.66141e-12 0)
(0.525 -1.71996e-12 0)
(0.575 -1.38063e-12 0)
(0.575 -1.58502e-12 0)
(0.575 -1.70059e-13 0)
(0.575 -2.59731e-14 0)
(0.575 -1.25813e-14 0)
(0.575 4.81005e-15 0)
(0.575 -5.04698e-15 0)
(0.575 3.90477e-15 0)
(0.575 -3.2489e-15 0)
(0.575 2.1003e-15 0)
(0.575 -1.16391e-15 0)
(0.575 7.98137e-16 0)
(0.575 -7.33085e-17 0)
(0.575 -7.61278e-16 0)
(0.575 5.63887e-16 0)
(0.575 -3.95849e-15 0)
(0.575 -2.20538e-14 0)
(0.575 3.71964e-14 0)
(0.575 -1.5144e-12 0)
(0.575 -1.54401e-12 0)
(0.625 -1.0409e-12 0)
(0.625 -1.2656e-12 0)
(0.625 -1.50622e-13 0)
(0.625 -1.65176e-14 0)
(0.625 -1.59851e-14 0)
(0.625 8.19309e-15 0)
(0.625 -7.6009e-15 0)
(0.625 5.90389e-15 0)
(0.625 -4.73884e-15 0)
(0.625 3.12807e-15 0)
(0.625 -1.79177e-15 0)
(0.625 1.02017e-15 0)
(0.625 6.38198e-17 0)
(0.625 -1.26042e-15 0)
(0.625 1.50233e-15 0)
(0.625 -5.04957e-15 0)
(0.625 -1.78648e-14 0)
(0.625 3.02651e-14 0)
(0.625 -1.30756e-12 0)
(0.625 -1.3077e-12 0)
(0.675 -6.96426e-13 0)
(0.675 -9.30434e-13 0)
(0.675 -1.26494e-13 0)
(0.675 -7.07606e-15 0)
(0.675 -1.84134e-14 0)
(0.675 1.09593e-14 0)
(0.675 -9.63187e-15 0)
(0.675 7.49224e-15 0)
(0.675 -5.89769e-15 0)
(0.675 3.93603e-15 0)
(0.675 -2.30568e-15 0)
(0.675 1.18622e-15 0)
(0.675 1.82957e-16 0)
(0.675 -1.66344e-15 0)
(0.675 2.30748e-15 0)
(0.675 -5.82966e-15 0)
(0.675 -1.31847e-14 0)
(0.675 2.22279e-14 0)
(0.675 -1.06176e-12 0)
(0.675 -1.0344e-12 0)
(0.725 -3.82373e-13 0)
(0.725 -6.14354e-13 0)
(0.725 -1.0042e-13 0)
(0.725 1.43696e-15 0)
(0.725 -1.96558e-14 0)
(0.725 1.28552e-14 0)
(0.725 -1.09586e-14 0)
(0.725 8.53093e-15 0)
(0.725 -6.63253e-15 0)
(0.725 4.4632e-15 0)
(0.725 -2.6471e-15 0)
(0.725 1.27701e-15 0)
(0.725 2.74972e-16 0)
(0.725 -1.9304e-15 0)
(0.725 2.90882e-15 0)
(0.725 -6.23281e-15 0)
(0.725 -8.43426e-15 0)
(0.725 1.39899e-14 0)
(0.725 -8.0104e-13 0)
(0.725 -7.50783e-13 0)
(0.775 -1.29292e-13 0)
(0.775 -3.47558e-13 0)
(0.775 -7.49855e-14 0)
(0.775 8.12168e-15 0)
(0.775 -1.95276e-14 0)
(0.775 1.36501e-14 0)
(0.775 -1.14086e-14 0)
(0.775 8.87621e-15 0)
(0.775 -6.84423e-15 0)
(0.775 4.64279e-15 0)
(0.775 -2.76821e-15 0)
(0.775 1.27997e-15 0)
(0.775 3.30476e-16 0)
(0.775 -2.03162e-15 0)
(0.775 3.22209e-15 0)
(0.775 -6.17453e-15 0)
(0.775 -4.07875e-15 0)
(0.775 6.53123e-15 0)
(0.775 -5.49736e-13 0)
(0.775 -4.83939e-13 0)
(0.825 3.91064e-14 0)
(0.825 -1.52379e-13 0)
(0.825 -5.2028e-14 0)
(0.825 1.20852e-14 0)
(0.825 -1.78034e-14 0)
(0.825 1.30841e-14 0)
(0.825 -1.07715e-14 0)
(0.825 8.37106e-15 0)
(0.825 -6.4218e-15 0)
(0.825 4.3982e-15 0)
(0.825 -2.63435e-15 0)
(0.825 1.17988e-15 0)
(0.825 3.38537e-16 0)
(0.825 -1.92199e-15 0)
(0.825 3.17065e-15 0)
(0.825 -5.59032e-15 0)
(0.825 -5.91882e-16 0)
(0.825 8.17865e-16 0)
(0.825 -3.30396e-13 0)
(0.825 -2.59228e-13 0)
(0.875 1.12331e-13 0)
(0.875 -3.64594e-14 0)
(0.875 -3.23531e-14 0)
(0.875 1.24537e-14 0)
(0.875 -1.41798e-14 0)
(0.875 1.08249e-14 0)
(0.875 -8.80082e-15 0)
(0.875 6.83861e-15 0)
(0.875 -5.23268e-15 0)
(0.875 3.61293e-15 0)
(0.875 -2.17203e-15 0)
(0.875 9.49605e-16 0)
(0.875 2.85756e-16 0)
(0.875 -1.55965e-15 0)
(0.875 2.66475e-15 0)
(0.875 -4.41208e-15 0)
(0.875 1.51718e-15 0)
(0.875 -2.44474e-15 0)
(0.875 -1.60347e-13 0)
(0.875 -9.68065e-14 0)
(0.925 9.72729e-14 0)
(0.925 7.84875e-15 0)
(0.925 -1.59193e-14 0)
(0.925 8.95211e-15 0)
(0.925 -8.64363e-15 0)
(0.925 6.7986e-15 0)
(0.925 -5.47661e-15 0)
(0.925 4.25446e-15 0)
(0.925 -3.25016e-15 0)
(0.925 2.25897e-15 0)
(0.925 -1.35735e-15 0)
(0.925 5.87127e-16 0)
(0.925 1.78047e-16 0)
(0.925 -9.60086e-16 0)
(0.925 1.68374e-15 0)
(0.925 -2.65251e-15 0)
(0.925 1.91586e-15 0)
(0.925 -2.74958e-15 0)
(0.925 -5.16962e-14 0)
(0.925 -9.86197e-15 0)
(0.975 3.63168e-14 0)
(0.975 8.10857e-15 0)
(0.975 -4.39133e-15 0)
(0.975 3.08937e-15 0)
(0.975 -2.74816e-15 0)
(0.975 2.19588e-15 0)
(0.975 -1.76287e-15 0)
(0.975 1.37068e-15 0)
(0.975 -1.04217e-15 0)
(0.975 7.2696e-16 0)
(0.975 -4.38211e-16 0)
(0.975 1.90507e-16 0)
(0.975 5.71765e-17 0)
(0.975 -3.07239e-16 0)
(0.975 5.4685e-16 0)
(0.975 -8.3325e-16 0)
(0.975 7.993e-16 0)
(0.975 -1.24853e-15 0)
(0.975 -6.75925e-15 0)
(0.975 7.26213e-15 0)
)
;

boundaryField
{
    top
    {
        type            fixedValue;
        value           uniform (1 0 0);
    }
    bottom
    {
        type            fixedValue;
        value           uniform (0 0 0);
    }
    inlet
    {
        type            zeroGradient;
    }
    outlet
    {
        type            zeroGradient;
    }
    frontAndBack
    {
        type            empty;
    }
}


// ************************************************************************* //
