/*--------------------------------*- C++ -*----------------------------------*\
| =========                 |                                                 |
| \\      /  F ield         | OpenFOAM: The Open Source CFD Toolbox           |
|  \\    /   O peration     | Version:  4.1                                   |
|   \\  /    A nd           | Web:      www.OpenFOAM.org                      |
|    \\/     M anipulation  |                                                 |
\*---------------------------------------------------------------------------*/
FoamFile
{
    version     2.0;
    format      ascii;
    class       volScalarField;
    location    "1";
    object      p;
}
// * * * * * * * * * * * * * * * * * * * * * * * * * * * * * * * * * * * * * //

dimensions      [0 2 -2 0 0 0 0];

internalField   nonuniform List<scalar> 
400
(
3.58068e-07
3.82089e-07
3.38401e-07
3.51281e-07
3.15809e-07
3.24283e-07
2.93409e-07
2.97425e-07
2.713e-07
2.70249e-07
2.49379e-07
2.43099e-07
2.27205e-07
2.16386e-07
2.04498e-07
1.90207e-07
1.81541e-07
1.64688e-07
1.60673e-07
1.61417e-07
3.56798e-07
3.80806e-07
3.38307e-07
3.51259e-07
3.15812e-07
3.24278e-07
2.93413e-07
2.97421e-07
2.71303e-07
2.70247e-07
2.4938e-07
2.43099e-07
2.27205e-07
2.16386e-07
2.04497e-07
1.90206e-07
1.81523e-07
1.64703e-07
1.5974e-07
1.60416e-07
3.56094e-07
3.79897e-07
3.38203e-07
3.51256e-07
3.15801e-07
3.24286e-07
2.93406e-07
2.97428e-07
2.71297e-07
2.70251e-07
2.49377e-07
2.43102e-07
2.27203e-07
2.16387e-07
2.04497e-07
1.90204e-07
1.8151e-07
1.64701e-07
1.5899e-07
1.59714e-07
3.55883e-07
3.79474e-07
3.38104e-07
3.51257e-07
3.15788e-07
3.24296e-07
2.93397e-07
2.97435e-07
2.71291e-07
2.70257e-07
2.49372e-07
2.43104e-07
2.27201e-07
2.16388e-07
2.04497e-07
1.90201e-07
1.81501e-07
1.64682e-07
1.58535e-07
1.59331e-07
3.55966e-07
3.79393e-07
3.38011e-07
3.51258e-07
3.15777e-07
3.24304e-07
2.9339e-07
2.97442e-07
2.71286e-07
2.70261e-07
2.49369e-07
2.43107e-07
2.272e-07
2.16388e-07
2.04497e-07
1.90199e-07
1.81494e-07
1.64653e-07
1.58309e-07
1.59161e-07
3.56244e-07
3.79541e-07
3.37918e-07
3.51259e-07
3.15769e-07
3.2431e-07
2.93384e-07
2.97447e-07
2.71282e-07
2.70264e-07
2.49367e-07
2.43108e-07
2.27199e-07
2.16388e-07
2.04497e-07
1.90197e-07
1.81488e-07
1.64616e-07
1.58266e-07
1.59158e-07
3.56659e-07
3.79851e-07
3.37821e-07
3.51259e-07
3.15762e-07
3.24316e-07
2.9338e-07
2.97451e-07
2.71278e-07
2.70267e-07
2.49365e-07
2.4311e-07
2.27198e-07
2.16389e-07
2.04497e-07
1.90195e-07
1.81485e-07
1.64577e-07
1.58377e-07
1.59293e-07
3.57145e-07
3.8025e-07
3.37722e-07
3.51259e-07
3.15756e-07
3.2432e-07
2.93376e-07
2.97454e-07
2.71276e-07
2.70269e-07
2.49363e-07
2.43111e-07
2.27198e-07
2.16389e-07
2.04497e-07
1.90194e-07
1.81483e-07
1.64537e-07
1.58607e-07
1.5953e-07
3.57635e-07
3.80672e-07
3.37618e-07
3.51256e-07
3.15752e-07
3.24322e-07
2.93374e-07
2.97456e-07
2.71274e-07
2.7027e-07
2.49362e-07
2.43112e-07
2.27197e-07
2.16389e-07
2.04498e-07
1.90194e-07
1.81481e-07
1.64501e-07
1.58911e-07
1.59822e-07
3.58068e-07
3.8105e-07
3.3751e-07
3.51251e-07
3.15749e-07
3.24324e-07
2.93373e-07
2.97457e-07
2.71273e-07
2.70271e-07
2.49362e-07
2.43112e-07
2.27197e-07
2.16389e-07
2.04498e-07
1.90193e-07
1.8148e-07
1.6447e-07
1.59242e-07
1.60123e-07
3.58392e-07
3.81333e-07
3.37401e-07
3.51244e-07
3.15747e-07
3.24324e-07
2.93373e-07
2.97457e-07
2.71273e-07
2.70271e-07
2.49362e-07
2.43112e-07
2.27197e-07
2.16389e-07
2.04498e-07
1.90193e-07
1.81478e-07
1.64447e-07
1.59554e-07
1.60388e-07
3.58566e-07
3.81479e-07
3.37293e-07
3.51233e-07
3.15748e-07
3.24322e-07
2.93374e-07
2.97456e-07
2.71274e-07
2.7027e-07
2.49362e-07
2.43111e-07
2.27198e-07
2.16389e-07
2.04498e-07
1.90194e-07
1.81475e-07
1.64431e-07
1.59804e-07
1.60575e-07
3.58566e-07
3.81464e-07
3.37188e-07
3.51219e-07
3.15749e-07
3.2432e-07
2.93377e-07
2.97453e-07
2.71276e-07
2.70269e-07
2.49364e-07
2.43111e-07
2.27198e-07
2.16389e-07
2.04498e-07
1.90194e-07
1.81471e-07
1.64424e-07
1.59955e-07
1.6065e-07
3.58385e-07
3.81284e-07
3.3709e-07
3.51202e-07
3.15752e-07
3.24315e-07
2.9338e-07
2.9745e-07
2.71279e-07
2.70266e-07
2.49365e-07
2.43109e-07
2.27199e-07
2.16389e-07
2.04498e-07
1.90195e-07
1.81464e-07
1.64425e-07
1.59981e-07
1.60591e-07
3.58033e-07
3.80951e-07
3.37001e-07
3.51183e-07
3.15756e-07
3.2431e-07
2.93385e-07
2.97446e-07
2.71282e-07
2.70264e-07
2.49367e-07
2.43108e-07
2.272e-07
2.16388e-07
2.04498e-07
1.90196e-07
1.81456e-07
1.64432e-07
1.59867e-07
1.60383e-07
3.57544e-07
3.80504e-07
3.36926e-07
3.51162e-07
3.15762e-07
3.24303e-07
2.93391e-07
2.97441e-07
2.71287e-07
2.7026e-07
2.4937e-07
2.43106e-07
2.27201e-07
2.16388e-07
2.04498e-07
1.90196e-07
1.81445e-07
1.64444e-07
1.59616e-07
1.60033e-07
3.5696e-07
3.79995e-07
3.36868e-07
3.5114e-07
3.1577e-07
3.24295e-07
2.93398e-07
2.97435e-07
2.71292e-07
2.70256e-07
2.49373e-07
2.43104e-07
2.27202e-07
2.16387e-07
2.04498e-07
1.90197e-07
1.81433e-07
1.64459e-07
1.59245e-07
1.59555e-07
3.5637e-07
3.79524e-07
3.36828e-07
3.51116e-07
3.1578e-07
3.24285e-07
2.93407e-07
2.97427e-07
2.71298e-07
2.7025e-07
2.49377e-07
2.43101e-07
2.27204e-07
2.16387e-07
2.04497e-07
1.90197e-07
1.81418e-07
1.64476e-07
1.58789e-07
1.58981e-07
3.55923e-07
3.79185e-07
3.36803e-07
3.51095e-07
3.15789e-07
3.24276e-07
2.93414e-07
2.97421e-07
2.71304e-07
2.70246e-07
2.49381e-07
2.43098e-07
2.27206e-07
2.16386e-07
2.04497e-07
1.90197e-07
1.81402e-07
1.64495e-07
1.5827e-07
1.5836e-07
3.55871e-07
3.79047e-07
3.36776e-07
3.51092e-07
3.15783e-07
3.24281e-07
2.9341e-07
2.97425e-07
2.71301e-07
2.70248e-07
2.49379e-07
2.43099e-07
2.27206e-07
2.16385e-07
2.04498e-07
1.90194e-07
1.81388e-07
1.64511e-07
1.57768e-07
1.57855e-07
)
;

boundaryField
{
    top
    {
        type            zeroGradient;
    }
    bottom
    {
        type            zeroGradient;
    }
    inlet
    {
        type            fixedValue;
        value           uniform 0;
    }
    outlet
    {
        type            fixedValue;
        value           uniform 0;
    }
    frontAndBack
    {
        type            empty;
    }
}


// ************************************************************************* //
