/*--------------------------------*- C++ -*----------------------------------*\
| =========                 |                                                 |
| \\      /  F ield         | OpenFOAM: The Open Source CFD Toolbox           |
|  \\    /   O peration     | Version:  4.1                                   |
|   \\  /    A nd           | Web:      www.OpenFOAM.org                      |
|    \\/     M anipulation  |                                                 |
\*---------------------------------------------------------------------------*/
FoamFile
{
    version     2.0;
    format      ascii;
    class       surfaceScalarField;
    location    "1";
    object      phi;
}
// * * * * * * * * * * * * * * * * * * * * * * * * * * * * * * * * * * * * * //

dimensions      [0 3 -1 0 0 0 0];

internalField   nonuniform List<scalar> 
760
(
1.24936e-06
-5.53805e-13
1.24936e-06
-3.58515e-13
1.24936e-06
-1.61636e-15
1.24936e-06
-2.0223e-14
1.24936e-06
1.46728e-14
1.24936e-06
-1.36453e-14
1.24936e-06
1.20466e-14
1.24936e-06
-1.03941e-14
1.24936e-06
8.59954e-15
1.24936e-06
-6.73704e-15
1.24936e-06
4.89016e-15
1.24936e-06
-3.14211e-15
1.24936e-06
1.55982e-15
1.24936e-06
-1.93071e-16
1.24936e-06
-1.0443e-15
1.24936e-06
1.6228e-15
1.24936e-06
-6.66581e-15
1.24936e-06
1.11866e-14
1.24936e-06
-2.32115e-13
-3.54675e-13
3.7481e-06
-1.66252e-12
3.7481e-06
-1.26642e-12
3.7481e-06
-3.73996e-14
3.7481e-06
-5.00305e-14
3.7481e-06
3.14052e-14
3.7481e-06
-2.99863e-14
3.7481e-06
2.6368e-14
3.7481e-06
-2.27267e-14
3.7481e-06
1.87386e-14
3.7481e-06
-1.46025e-14
3.7481e-06
1.05109e-14
3.7481e-06
-6.64979e-15
3.7481e-06
3.16875e-15
3.7481e-06
-1.99382e-16
3.7481e-06
-2.58747e-15
3.7481e-06
3.02944e-15
3.7481e-06
-2.07617e-14
3.7481e-06
3.45287e-14
3.74811e-06
-8.67356e-13
-1.15017e-12
6.24689e-06
-2.99271e-12
6.24689e-06
-2.50747e-12
6.2469e-06
-1.08113e-13
6.2469e-06
-7.78455e-14
6.2469e-06
4.15151e-14
6.2469e-06
-4.08963e-14
6.2469e-06
3.5768e-14
6.2469e-06
-3.07834e-14
6.2469e-06
2.52825e-14
6.2469e-06
-1.95871e-14
6.2469e-06
1.39693e-14
6.2469e-06
-8.68423e-15
6.2469e-06
3.93804e-15
6.2469e-06
5.66934e-17
6.2469e-06
-3.98265e-15
6.2469e-06
3.2317e-15
6.2469e-06
-3.89935e-14
6.2469e-06
6.55248e-14
6.2469e-06
-1.79735e-12
-2.20839e-12
8.74576e-06
-4.3434e-12
8.74576e-06
-3.86365e-12
8.74576e-06
-2.00711e-13
8.74576e-06
-1.02062e-13
8.74576e-06
4.55852e-14
8.74576e-06
-4.65893e-14
8.74576e-06
4.04632e-14
8.74576e-06
-3.47642e-14
8.74576e-06
2.84362e-14
8.74576e-06
-2.19006e-14
8.74576e-06
1.54746e-14
8.74576e-06
-9.44664e-15
8.74576e-06
4.05216e-15
8.74576e-06
4.25561e-16
8.74576e-06
-5.09113e-15
8.74576e-06
2.40233e-15
8.74576e-06
-5.95776e-14
8.74576e-06
1.01378e-13
8.74576e-06
-2.8878e-12
-3.39376e-12
1.12447e-05
-5.54201e-12
1.12447e-05
-5.14336e-12
1.12447e-05
-3.01512e-13
1.12447e-05
-1.21003e-13
1.12447e-05
4.43133e-14
1.12447e-05
-4.74101e-14
1.12447e-05
4.08051e-14
1.12447e-05
-3.49907e-14
1.12447e-05
2.85007e-14
1.12447e-05
-2.18177e-14
1.12447e-05
1.52697e-14
1.12447e-05
-9.14432e-15
1.12447e-05
3.68045e-15
1.12447e-05
7.84897e-16
1.12447e-05
-5.80209e-15
1.12447e-05
7.36959e-16
1.12447e-05
-8.05486e-14
1.12447e-05
1.39119e-13
1.12447e-05
-4.00735e-12
-4.57402e-12
1.37438e-05
-6.45717e-12
1.37438e-05
-6.19523e-12
1.37438e-05
-3.97403e-13
1.37438e-05
-1.33217e-13
1.37438e-05
3.85153e-14
1.37438e-05
-4.38542e-14
1.37438e-05
3.72848e-14
1.37438e-05
-3.19032e-14
1.37438e-05
2.58667e-14
1.37438e-05
-1.96711e-14
1.37438e-05
1.36247e-14
1.37438e-05
-7.98446e-15
1.37438e-05
2.97056e-15
1.37438e-05
1.04745e-15
1.37438e-05
-6.04735e-15
1.37438e-05
-1.5507e-15
1.37438e-05
-9.99617e-14
1.37438e-05
1.75555e-13
1.37438e-05
-5.0353e-12
-5.62814e-12
1.62431e-05
-6.99945e-12
1.62431e-05
-6.90994e-12
1.62431e-05
-4.77012e-13
1.62431e-05
-1.37692e-13
1.62431e-05
2.91123e-14
1.62431e-05
-3.65697e-14
1.62431e-05
3.05238e-14
1.62431e-05
-2.60498e-14
1.62431e-05
2.10021e-14
1.62431e-05
-1.58408e-14
1.62431e-05
1.08291e-14
1.62431e-05
-6.16943e-15
1.62431e-05
2.04521e-15
1.62431e-05
1.16409e-15
1.62431e-05
-5.80786e-15
1.62431e-05
-4.23181e-15
1.62431e-05
-1.16049e-13
1.62431e-05
2.07397e-13
1.62431e-05
-5.87025e-12
-6.45518e-12
1.87425e-05
-7.12604e-12
1.87425e-05
-7.22597e-12
1.87425e-05
-5.31717e-13
1.87425e-05
-1.34024e-13
1.87425e-05
1.71032e-14
1.87425e-05
-2.63426e-14
1.87425e-05
2.12529e-14
1.87425e-05
-1.80655e-14
1.87425e-05
1.44352e-14
1.87425e-05
-1.07415e-14
1.87425e-05
7.18413e-15
1.87425e-05
-3.89308e-15
1.87425e-05
1.00169e-15
1.87425e-05
1.12269e-15
1.87425e-05
-5.11514e-15
1.87425e-05
-7.07038e-15
1.87425e-05
-1.27368e-13
1.87425e-05
2.31516e-13
1.87425e-05
-6.43613e-12
-6.98054e-12
2.12421e-05
-6.8384e-12
2.12421e-05
-7.12813e-12
2.12421e-05
-5.56396e-13
2.12421e-05
-1.22509e-13
2.12421e-05
3.53258e-15
2.12421e-05
-1.40733e-14
2.12421e-05
1.0288e-14
2.12421e-05
-8.65064e-15
2.12421e-05
6.7373e-15
2.12421e-05
-4.81155e-15
2.12421e-05
2.99659e-15
2.12421e-05
-1.33955e-15
2.12421e-05
-8.56511e-17
2.12421e-05
9.43329e-16
2.12421e-05
-4.0467e-15
2.12421e-05
-9.8311e-15
2.12421e-05
-1.32916e-13
2.12421e-05
2.45282e-13
2.12421e-05
-6.68656e-12
-7.1607e-12
2.37419e-05
-6.17965e-12
2.37419e-05
-6.6456e-12
2.37419e-05
-5.49771e-13
2.37419e-05
-1.04163e-13
2.37419e-05
-1.05445e-14
2.37419e-05
-7.44364e-16
2.37419e-05
-1.49996e-15
2.37419e-05
1.45262e-15
2.37419e-05
-1.49415e-15
2.37419e-05
1.4986e-15
2.37419e-05
-1.42601e-15
2.37419e-05
1.31663e-15
2.37419e-05
-1.1609e-15
2.37419e-05
6.70555e-16
2.37419e-05
-2.7171e-15
2.37419e-05
-1.22892e-14
2.37419e-05
-1.3221e-13
2.37419e-05
2.46935e-13
2.37419e-05
-6.60676e-12
-6.98544e-12
2.62419e-05
-5.22797e-12
2.62419e-05
-5.84553e-12
2.62419e-05
-5.14329e-13
2.62419e-05
-8.06597e-14
2.62419e-05
-2.40968e-14
2.62419e-05
1.26172e-14
2.62419e-05
-1.32152e-14
2.62419e-05
1.14849e-14
2.62419e-05
-9.65259e-15
2.62419e-05
7.73591e-15
2.62419e-05
-5.7795e-15
2.62419e-05
3.90916e-15
2.62419e-05
-2.18047e-15
2.62419e-05
3.63566e-16
2.62419e-05
-1.2655e-15
2.62419e-05
-1.4241e-14
2.62419e-05
-1.25329e-13
2.62419e-05
2.359e-13
2.62419e-05
-6.21332e-12
-6.47778e-12
2.87421e-05
-4.08796e-12
2.87421e-05
-4.82431e-12
2.87421e-05
-4.55785e-13
2.87421e-05
-5.41932e-14
2.87421e-05
-3.6147e-14
2.87421e-05
2.4982e-14
2.87421e-05
-2.39691e-14
2.87421e-05
2.06937e-14
2.87421e-05
-1.71386e-14
2.87421e-05
1.34544e-14
2.87421e-05
-9.76638e-15
2.87421e-05
6.2778e-15
2.87421e-05
-3.10597e-15
2.87421e-05
8.51805e-17
2.87421e-05
1.58905e-16
2.87421e-05
-1.5515e-14
2.87421e-05
-1.12904e-13
2.87421e-05
2.12991e-13
2.87421e-05
-5.55121e-12
-5.69108e-12
3.12425e-05
-2.8806e-12
3.12425e-05
-3.69694e-12
3.12425e-05
-3.82108e-13
3.12425e-05
-2.72862e-14
3.12425e-05
-4.5796e-14
3.12425e-05
3.53596e-14
3.12425e-05
-3.29112e-14
3.12425e-05
2.83573e-14
3.12425e-05
-2.33755e-14
3.12425e-05
1.82239e-14
3.12425e-05
-1.30983e-14
3.12425e-05
8.26566e-15
3.12425e-05
-3.89673e-15
3.12425e-05
-1.0971e-16
3.12425e-05
1.4122e-15
3.12425e-05
-1.59835e-14
3.12425e-05
-9.60695e-14
3.12425e-05
1.80433e-13
3.12425e-05
-4.68928e-12
-4.70432e-12
3.37431e-05
-1.72967e-12
3.37431e-05
-2.58279e-12
3.37431e-05
-3.02298e-13
3.37431e-05
-2.55897e-15
3.37431e-05
-5.22388e-14
3.37431e-05
4.28373e-14
3.37431e-05
-3.92576e-14
3.37431e-05
3.38066e-14
3.37431e-05
-2.78241e-14
3.37431e-05
2.16382e-14
3.37431e-05
-1.54986e-14
3.37431e-05
9.7162e-15
3.37431e-05
-4.5023e-15
3.37431e-05
-1.85016e-16
3.37431e-05
2.36993e-15
3.37431e-05
-1.5573e-14
3.37431e-05
-7.63712e-14
3.37431e-05
1.41698e-13
3.37431e-05
-3.71257e-12
-3.61398e-12
3.62438e-05
-7.51169e-13
3.62438e-05
-1.59387e-12
3.62438e-05
-2.24855e-13
3.62438e-05
1.74962e-14
3.62438e-05
-5.47724e-14
3.62438e-05
4.66133e-14
3.62438e-05
-4.23174e-14
3.62438e-05
3.64461e-14
3.62438e-05
-2.9997e-14
3.62438e-05
2.33227e-14
3.62438e-05
-1.67041e-14
3.62438e-05
1.04706e-14
3.62438e-05
-4.85577e-15
3.62438e-05
-1.32963e-16
3.62438e-05
2.93914e-15
3.62438e-05
-1.42727e-14
3.62438e-05
-5.56405e-14
3.62438e-05
1.01084e-13
3.62438e-05
-2.71517e-12
-2.52627e-12
3.87447e-05
-3.50284e-14
3.87447e-05
-8.15648e-13
3.87447e-05
-1.56481e-13
3.87447e-05
3.07289e-14
3.87447e-05
-5.27965e-14
3.87447e-05
4.6021e-14
3.87447e-05
-4.15133e-14
3.87447e-05
3.57714e-14
3.87447e-05
-2.94709e-14
3.87447e-05
2.29423e-14
3.87447e-05
-1.64681e-14
3.87447e-05
1.03658e-14
3.87447e-05
-4.86861e-15
3.87447e-05
1.88149e-17
3.87447e-05
3.06648e-15
3.87447e-05
-1.21414e-14
3.87447e-05
-3.58443e-14
3.87447e-05
6.31971e-14
3.87447e-05
-1.78796e-12
-1.54398e-12
4.12458e-05
3.60469e-13
4.12458e-05
-3.00437e-13
4.12458e-05
-1.00661e-13
4.12458e-05
3.54616e-14
4.12458e-05
-4.5807e-14
4.12458e-05
4.05444e-14
4.12458e-05
-3.63985e-14
4.12458e-05
3.13855e-14
4.12458e-05
-2.59006e-14
4.12458e-05
2.02099e-14
4.12458e-05
-1.45636e-14
4.12458e-05
9.23442e-15
4.12458e-05
-4.42805e-15
4.12458e-05
2.039e-16
4.12458e-05
2.74168e-15
4.12458e-05
-9.30847e-15
4.12458e-05
-1.89291e-14
4.12458e-05
3.21601e-14
4.12458e-05
-1.01263e-12
-7.595e-13
4.37469e-05
4.34394e-13
4.37469e-05
-4.13653e-14
4.37469e-05
-5.72357e-14
4.37469e-05
3.05673e-14
4.37469e-05
-3.33827e-14
4.37469e-05
2.98174e-14
4.37469e-05
-2.66625e-14
4.37469e-05
2.30065e-14
4.37469e-05
-1.90255e-14
4.37469e-05
1.48919e-14
4.37469e-05
-1.07871e-14
4.37469e-05
6.90563e-15
4.37469e-05
-3.39725e-15
4.37469e-05
3.17656e-16
4.37469e-05
1.99519e-15
4.37469e-05
-5.97359e-15
4.37469e-05
-6.66971e-15
4.37469e-05
1.1031e-14
4.37469e-05
-4.43405e-13
-2.35693e-13
4.62481e-05
2.34293e-13
4.62481e-05
1.92139e-14
4.62481e-05
-2.19932e-14
4.62481e-05
1.53836e-14
4.62481e-05
-1.51554e-14
4.62481e-05
1.36036e-14
4.62481e-05
-1.21225e-14
4.62481e-05
1.04662e-14
4.62481e-05
-8.67334e-15
4.62481e-05
6.81148e-15
4.62481e-05
-4.96127e-15
4.62481e-05
3.20796e-15
4.62481e-05
-1.61871e-15
4.62481e-05
2.23007e-16
4.62481e-05
8.9007e-16
4.62481e-05
-2.39401e-15
4.62481e-05
-5.41748e-16
4.62481e-05
9.65785e-16
4.62481e-05
-1.08542e-13
-6.40904e-15
4.87494e-05
4.87494e-05
4.87494e-05
4.87494e-05
4.87494e-05
4.87494e-05
4.87494e-05
4.87494e-05
4.87494e-05
4.87494e-05
4.87494e-05
4.87494e-05
4.87494e-05
4.87494e-05
4.87494e-05
4.87494e-05
4.87494e-05
4.87494e-05
4.87494e-05
)
;

boundaryField
{
    top
    {
        type            calculated;
        value           uniform 0;
    }
    bottom
    {
        type            calculated;
        value           uniform 0;
    }
    inlet
    {
        type            calculated;
        value           nonuniform List<scalar> 
20
(
-1.24936e-06
-3.7481e-06
-6.24689e-06
-8.74576e-06
-1.12447e-05
-1.37438e-05
-1.62431e-05
-1.87425e-05
-2.12421e-05
-2.37419e-05
-2.62419e-05
-2.87421e-05
-3.12425e-05
-3.37431e-05
-3.62438e-05
-3.87447e-05
-4.12458e-05
-4.37469e-05
-4.62481e-05
-4.87494e-05
)
;
    }
    outlet
    {
        type            calculated;
        value           nonuniform List<scalar> 
20
(
1.24936e-06
3.74811e-06
6.2469e-06
8.74576e-06
1.12447e-05
1.37438e-05
1.62431e-05
1.87425e-05
2.12421e-05
2.37419e-05
2.62419e-05
2.87421e-05
3.12425e-05
3.37431e-05
3.62438e-05
3.87447e-05
4.12458e-05
4.37469e-05
4.62481e-05
4.87494e-05
)
;
    }
    frontAndBack
    {
        type            empty;
        value           nonuniform 0();
    }
}


// ************************************************************************* //
