/*--------------------------------*- C++ -*----------------------------------*\
| =========                 |                                                 |
| \\      /  F ield         | OpenFOAM: The Open Source CFD Toolbox           |
|  \\    /   O peration     | Version:  4.1                                   |
|   \\  /    A nd           | Web:      www.OpenFOAM.org                      |
|    \\/     M anipulation  |                                                 |
\*---------------------------------------------------------------------------*/
FoamFile
{
    version     2.0;
    format      ascii;
    class       volVectorField;
    location    "1";
    object      U;
}
// * * * * * * * * * * * * * * * * * * * * * * * * * * * * * * * * * * * * * //

dimensions      [0 1 -1 0 0 0 0];

internalField   nonuniform List<vector> 
400
(
(0.0249872 -2.46542e-10 0)
(0.0249872 -1.42398e-10 0)
(0.0249872 2.24499e-12 0)
(0.0249872 -1.00209e-11 0)
(0.0249872 7.6684e-12 0)
(0.0249872 -7.08042e-12 0)
(0.0249872 6.26359e-12 0)
(0.0249872 -5.40776e-12 0)
(0.0249872 4.47949e-12 0)
(0.0249872 -3.51478e-12 0)
(0.0249872 2.55708e-12 0)
(0.0249872 -1.64982e-12 0)
(0.0249872 8.2792e-13 0)
(0.0249872 -1.1554e-13 0)
(0.0249872 -5.20364e-13 0)
(0.0249872 8.79371e-13 0)
(0.0249872 -2.92725e-12 0)
(0.0249872 4.21845e-12 0)
(0.0249872 -8.57533e-11 0)
(0.0249872 -1.4736e-10 0)
(0.0749621 -1.03364e-09 0)
(0.0749621 -7.23916e-10 0)
(0.0749621 -1.10361e-11 0)
(0.0749621 -3.44225e-11 0)
(0.0749621 2.36828e-11 0)
(0.0749621 -2.22431e-11 0)
(0.0749621 1.96102e-11 0)
(0.0749621 -1.69148e-11 0)
(0.0749621 1.39756e-11 0)
(0.0749621 -1.09253e-11 0)
(0.0749621 7.90315e-12 0)
(0.0749621 -5.04625e-12 0)
(0.0749621 2.46459e-12 0)
(0.0749621 -2.46126e-13 0)
(0.0749621 -1.78737e-12 0)
(0.0749621 2.50549e-12 0)
(0.0749621 -1.24571e-11 0)
(0.0749621 2.14099e-11 0)
(0.0749621 -4.76974e-10 0)
(0.0749621 -6.80642e-10 0)
(0.124938 -2.28247e-09 0)
(0.124938 -1.82317e-09 0)
(0.124938 -6.59425e-11 0)
(0.124938 -6.40338e-11 0)
(0.124938 3.753e-11 0)
(0.124938 -3.63092e-11 0)
(0.124938 3.18627e-11 0)
(0.124938 -2.74464e-11 0)
(0.124938 2.25909e-11 0)
(0.124938 -1.75578e-11 0)
(0.124938 1.25849e-11 0)
(0.124938 -7.89885e-12 0)
(0.124938 3.68213e-12 0)
(0.124938 -1.06911e-13 0)
(0.124938 -3.30978e-12 0)
(0.124938 3.34337e-12 0)
(0.124938 -2.89398e-11 0)
(0.124938 4.77431e-11 0)
(0.124938 -1.27151e-09 0)
(0.124938 -1.62198e-09 0)
(0.174915 -3.67798e-09 0)
(0.174915 -3.17364e-09 0)
(0.174915 -1.50141e-10 0)
(0.174915 -9.09941e-11 0)
(0.174915 4.49887e-11 0)
(0.174915 -4.50072e-11 0)
(0.174915 3.92522e-11 0)
(0.174915 -3.37567e-11 0)
(0.174915 2.76734e-11 0)
(0.174915 -2.13814e-11 0)
(0.174915 1.51838e-11 0)
(0.174915 -9.36127e-12 0)
(0.174915 4.14109e-12 0)
(0.174915 2.2547e-13 0)
(0.174915 -4.61956e-12 0)
(0.174915 3.0556e-12 0)
(0.174915 -4.88804e-11 0)
(0.174915 8.23867e-11 0)
(0.174915 -2.31512e-09 0)
(0.174915 -2.78178e-09 0)
(0.224895 -4.99621e-09 0)
(0.224895 -4.53956e-09 0)
(0.224895 -2.50577e-10 0)
(0.224895 -1.13085e-10 0)
(0.224895 4.62465e-11 0)
(0.224895 -4.82121e-11 0)
(0.224895 4.17118e-11 0)
(0.224895 -3.58046e-11 0)
(0.224895 2.92279e-11 0)
(0.224895 -2.24446e-11 0)
(0.224895 1.5786e-11 0)
(0.224895 -9.54832e-12 0)
(0.224895 3.97516e-12 0)
(0.224895 6.18357e-13 0)
(0.224895 -5.55938e-12 0)
(0.224895 1.75771e-12 0)
(0.224895 -7.02155e-11 0)
(0.224895 1.1994e-10 0)
(0.224895 -3.45468e-09 0)
(0.224895 -3.99982e-09 0)
(0.274877 -6.08061e-09 0)
(0.274877 -5.7386e-09 0)
(0.274877 -3.5216e-10 0)
(0.274877 -1.28924e-10 0)
(0.274877 4.24455e-11 0)
(0.274877 -4.66582e-11 0)
(0.274877 3.99445e-11 0)
(0.274877 -3.42166e-11 0)
(0.274877 2.78075e-11 0)
(0.274877 -2.12183e-11 0)
(0.274877 1.47745e-11 0)
(0.274877 -8.75507e-12 0)
(0.274877 3.39468e-12 0)
(0.274877 9.47836e-13 0)
(0.274877 -6.04605e-12 0)
(0.274877 -2.80311e-13 0)
(0.274877 -9.08637e-11 0)
(0.274877 1.5786e-10 0)
(0.274877 -4.55639e-09 0)
(0.274877 -5.14471e-09 0)
(0.324862 -6.82545e-09 0)
(0.324862 -6.6431e-09 0)
(0.324862 -4.42516e-10 0)
(0.324862 -1.37434e-10 0)
(0.324862 3.45896e-11 0)
(0.324862 -4.10453e-11 0)
(0.324862 3.46226e-11 0)
(0.324862 -2.95877e-11 0)
(0.324862 2.39248e-11 0)
(0.324862 -1.81237e-11 0)
(0.324862 1.24755e-11 0)
(0.324862 -7.215e-12 0)
(0.324862 2.54809e-12 0)
(0.324862 1.14523e-12 0)
(0.324862 -6.04623e-12 0)
(0.324862 -2.82409e-12 0)
(0.324862 -1.09009e-10 0)
(0.324862 1.92826e-10 0)
(0.324862 -5.50971e-09 0)
(0.324862 -6.10689e-09 0)
(0.37485 -7.16509e-09 0)
(0.37485 -7.16813e-09 0)
(0.37485 -5.11475e-10 0)
(0.37485 -1.37859e-10 0)
(0.37485 2.36284e-11 0)
(0.37485 -3.20798e-11 0)
(0.37485 2.64141e-11 0)
(0.37485 -2.25026e-11 0)
(0.37485 1.80723e-11 0)
(0.37485 -1.35529e-11 0)
(0.37485 9.17972e-12 0)
(0.37485 -5.12255e-12 0)
(0.37485 1.54263e-12 0)
(0.37485 1.18157e-12 0)
(0.37485 -5.56617e-12 0)
(0.37485 -5.64191e-12 0)
(0.37485 -1.23017e-10 0)
(0.37485 2.21584e-10 0)
(0.37485 -6.22529e-09 0)
(0.37485 -6.79781e-09 0)
(0.424842 -7.07921e-09 0)
(0.424842 -7.27575e-09 0)
(0.424842 -5.52037e-10 0)
(0.424842 -1.30112e-10 0)
(0.424842 1.05757e-11 0)
(0.424842 -2.05969e-11 0)
(0.424842 1.60861e-11 0)
(0.424842 -1.36234e-11 0)
(0.424842 1.07944e-11 0)
(0.424842 -7.92775e-12 0)
(0.424842 5.18718e-12 0)
(0.424842 -2.66323e-12 0)
(0.424842 4.61309e-13 0)
(0.424842 1.06283e-12 0)
(0.424842 -4.66121e-12 0)
(0.424842 -8.4982e-12 0)
(0.424842 -1.31638e-10 0)
(0.424842 2.41142e-10 0)
(0.424842 -6.64107e-09 0)
(0.424842 -7.15738e-09 0)
(0.474838 -6.59106e-09 0)
(0.474838 -6.97381e-09 0)
(0.474838 -5.6095e-10 0)
(0.474838 -1.14851e-10 0)
(0.474838 -3.51113e-12 0)
(0.474838 -7.54565e-12 0)
(0.474838 4.48802e-12 0)
(0.474838 -3.67616e-12 0)
(0.474838 2.67896e-12 0)
(0.474838 -1.6946e-12 0)
(0.474838 8.05675e-13 0)
(0.474838 -1.59258e-14 0)
(0.474838 -6.32155e-13 0)
(0.474838 8.23446e-13 0)
(0.474838 -3.4299e-12 0)
(0.474838 -1.11605e-11 0)
(0.474838 -1.34113e-10 0)
(0.474838 2.4921e-10 0)
(0.474838 -6.72619e-09 0)
(0.474838 -7.15833e-09 0)
(0.524838 -5.76324e-09 0)
(0.524838 -6.31238e-09 0)
(0.524838 -5.38889e-10 0)
(0.524838 -9.34466e-11 0)
(0.524838 -1.75791e-11 0)
(0.524838 6.05799e-12 0)
(0.524838 -7.48767e-12 0)
(0.524838 6.58134e-12 0)
(0.524838 -5.66719e-12 0)
(0.524838 4.69172e-12 0)
(0.524838 -3.65761e-12 0)
(0.524838 2.64911e-12 0)
(0.524838 -1.68951e-12 0)
(0.524838 5.17894e-13 0)
(0.524838 -2.00261e-12 0)
(0.524838 -1.34116e-11 0)
(0.524838 -1.30234e-10 0)
(0.524838 2.44547e-10 0)
(0.524838 -6.48196e-09 0)
(0.524838 -6.80743e-09 0)
(0.574842 -4.68949e-09 0)
(0.574842 -5.37563e-09 0)
(0.574842 -4.90143e-10 0)
(0.574842 -6.78734e-11 0)
(0.574842 -3.06161e-11 0)
(0.574842 1.91746e-11 0)
(0.574842 -1.89402e-11 0)
(0.574842 1.63866e-11 0)
(0.574842 -1.36366e-11 0)
(0.574842 1.07791e-11 0)
(0.574842 -7.90085e-12 0)
(0.574842 5.16904e-12 0)
(0.574842 -2.67153e-12 0)
(0.574842 2.10029e-13 0)
(0.574842 -5.27363e-13 0)
(0.574842 -1.50613e-11 0)
(0.574842 -1.20364e-10 0)
(0.574842 2.27239e-10 0)
(0.574842 -5.94009e-09 0)
(0.574842 -6.14385e-09 0)
(0.62485 -3.48561e-09 0)
(0.62485 -4.2724e-09 0)
(0.62485 -4.21831e-10 0)
(0.62485 -4.05449e-11 0)
(0.62485 -4.16774e-11 0)
(0.62485 3.07827e-11 0)
(0.62485 -2.89915e-11 0)
(0.62485 2.49956e-11 0)
(0.62485 -2.06365e-11 0)
(0.62485 1.61268e-11 0)
(0.62485 -1.16301e-11 0)
(0.62485 7.38575e-12 0)
(0.62485 -3.54044e-12 0)
(0.62485 -3.8487e-14 0)
(0.62485 8.45443e-13 0)
(0.62485 -1.59571e-11 0)
(0.62485 -1.05403e-10 0)
(0.62485 1.98815e-10 0)
(0.62485 -5.15905e-09 0)
(0.62485 -5.23538e-09 0)
(0.674862 -2.27689e-09 0)
(0.674862 -3.12306e-09 0)
(0.674862 -3.42797e-10 0)
(0.674862 -1.40888e-11 0)
(0.674862 -4.99096e-11 0)
(0.674862 3.99234e-11 0)
(0.674862 -3.68189e-11 0)
(0.674862 3.17091e-11 0)
(0.674862 -2.61066e-11 0)
(0.674862 2.03152e-11 0)
(0.674862 -1.45627e-11 0)
(0.674862 9.14354e-12 0)
(0.674862 -4.25257e-12 0)
(0.674862 -1.79627e-13 0)
(0.674862 1.97844e-12 0)
(0.674862 -1.59964e-11 0)
(0.674862 -8.67188e-11 0)
(0.674862 1.62196e-10 0)
(0.674862 -4.21763e-09 0)
(0.674862 -4.17173e-09 0)
(0.724877 -1.1867e-09 0)
(0.724877 -2.04728e-09 0)
(0.724877 -2.62177e-10 0)
(0.724877 8.90127e-12 0)
(0.724877 -5.45742e-11 0)
(0.724877 4.57469e-11 0)
(0.724877 -4.16924e-11 0)
(0.724877 3.59011e-11 0)
(0.724877 -2.95395e-11 0)
(0.724877 2.29597e-11 0)
(0.724877 -1.64338e-11 0)
(0.724877 1.0289e-11 0)
(0.724877 -4.75266e-12 0)
(0.724877 -1.88962e-13 0)
(0.724877 2.76129e-12 0)
(0.724877 -1.51373e-11 0)
(0.724877 -6.60311e-11 0)
(0.724877 1.21388e-10 0)
(0.724877 -3.20792e-09 0)
(0.724877 -3.05685e-09 0)
(0.774895 -3.20784e-10 0)
(0.774895 -1.14719e-09 0)
(0.774895 -1.87965e-10 0)
(0.774895 2.60814e-11 0)
(0.774895 -5.50379e-11 0)
(0.774895 4.75295e-11 0)
(0.774895 -4.29865e-11 0)
(0.774895 3.70293e-11 0)
(0.774895 -3.04865e-11 0)
(0.774895 2.37112e-11 0)
(0.774895 -1.69936e-11 0)
(0.774895 1.06653e-11 0)
(0.774895 -4.96625e-12 0)
(0.774895 -7.43443e-14 0)
(0.774895 3.12018e-12 0)
(0.774895 -1.34036e-11 0)
(0.774895 -4.52679e-11 0)
(0.774895 8.09933e-11 0)
(0.774895 -2.2245e-09 0)
(0.774895 -1.99748e-09 0)
(0.824915 2.3997e-10 0)
(0.824915 -4.96419e-10 0)
(0.824915 -1.25304e-10 0)
(0.824915 3.53841e-11 0)
(0.824915 -5.06108e-11 0)
(0.824915 4.45523e-11 0)
(0.824915 -4.00739e-11 0)
(0.824915 3.45426e-11 0)
(0.824915 -2.84804e-11 0)
(0.824915 2.21944e-11 0)
(0.824915 -1.59594e-11 0)
(0.824915 1.00791e-11 0)
(0.824915 -4.77971e-12 0)
(0.824915 1.17106e-13 0)
(0.824915 3.01405e-12 0)
(0.824915 -1.08644e-11 0)
(0.824915 -2.6404e-11 0)
(0.824915 4.56128e-11 0)
(0.824915 -1.35583e-09 0)
(0.824915 -1.09458e-09 0)
(0.874938 4.62301e-10 0)
(0.874938 -1.1615e-10 0)
(0.874938 -7.55151e-11 0)
(0.874938 3.49218e-11 0)
(0.874938 -4.04829e-11 0)
(0.874938 3.60585e-11 0)
(0.874938 -3.2296e-11 0)
(0.874938 2.78589e-11 0)
(0.874938 -2.30139e-11 0)
(0.874938 1.79843e-11 0)
(0.874938 -1.2992e-11 0)
(0.874938 8.27586e-12 0)
(0.874938 -4.01854e-12 0)
(0.874938 2.81956e-13 0)
(0.874938 2.43872e-12 0)
(0.874938 -7.66715e-12 0)
(0.874938 -1.15179e-11 0)
(0.874938 1.87304e-11 0)
(0.874938 -6.72211e-10 0)
(0.874938 -4.30447e-10 0)
(0.924962 3.74974e-10 0)
(0.924962 2.48124e-11 0)
(0.924962 -3.66728e-11 0)
(0.924962 2.43779e-11 0)
(0.924962 -2.46904e-11 0)
(0.924962 2.21521e-11 0)
(0.924962 -1.97678e-11 0)
(0.924962 1.70634e-11 0)
(0.924962 -1.4128e-11 0)
(0.924962 1.1079e-11 0)
(0.924962 -8.05e-12 0)
(0.924962 5.18227e-12 0)
(0.924962 -2.58653e-12 0)
(0.924962 3.07576e-13 0)
(0.924962 1.4676e-12 0)
(0.924962 -4.10502e-12 0)
(0.924962 -2.24371e-12 0)
(0.924962 3.86127e-12 0)
(0.924962 -2.24526e-10 0)
(0.924962 -6.10041e-11 0)
(0.974987 1.364e-10 0)
(0.974987 2.5473e-11 0)
(0.974987 -1.00848e-11 0)
(0.974987 8.27798e-12 0)
(0.974987 -7.84812e-12 0)
(0.974987 7.06411e-12 0)
(0.974987 -6.28958e-12 0)
(0.974987 5.43277e-12 0)
(0.974987 -4.50489e-12 0)
(0.974987 3.54048e-12 0)
(0.974987 -2.58164e-12 0)
(0.974987 1.67263e-12 0)
(0.974987 -8.4841e-13 0)
(0.974987 1.25132e-13 0)
(0.974987 4.60725e-13 0)
(0.974987 -1.19203e-12 0)
(0.974987 2.25703e-13 0)
(0.974987 -9.57619e-13 0)
(0.974987 -3.24474e-11 0)
(0.974987 2.37354e-11 0)
)
;

boundaryField
{
    top
    {
        type            fixedValue;
        value           uniform (1 0 0);
    }
    bottom
    {
        type            fixedValue;
        value           uniform (0 0 0);
    }
    inlet
    {
        type            zeroGradient;
    }
    outlet
    {
        type            zeroGradient;
    }
    frontAndBack
    {
        type            empty;
    }
}


// ************************************************************************* //
