/*--------------------------------*- C++ -*----------------------------------*\
| =========                 |                                                 |
| \\      /  F ield         | OpenFOAM: The Open Source CFD Toolbox           |
|  \\    /   O peration     | Version:  4.1                                   |
|   \\  /    A nd           | Web:      www.OpenFOAM.org                      |
|    \\/     M anipulation  |                                                 |
\*---------------------------------------------------------------------------*/
FoamFile
{
    version     2.0;
    format      ascii;
    class       volScalarField;
    location    "3.5";
    object      p;
}
// * * * * * * * * * * * * * * * * * * * * * * * * * * * * * * * * * * * * * //

dimensions      [0 2 -2 0 0 0 0];

internalField   nonuniform List<scalar> 
400
(
4.87242e-11
5.44004e-11
4.64096e-11
4.96482e-11
4.37641e-11
4.54676e-11
4.1017e-11
4.14947e-11
3.8121e-11
3.76438e-11
3.51268e-11
3.38681e-11
3.20921e-11
3.0133e-11
2.9032e-11
2.63917e-11
2.59938e-11
2.26818e-11
2.32147e-11
2.18761e-11
4.85484e-11
5.42201e-11
4.63961e-11
4.96446e-11
4.37643e-11
4.5467e-11
4.10174e-11
4.14944e-11
3.81212e-11
3.76437e-11
3.51269e-11
3.38681e-11
3.2092e-11
3.0133e-11
2.90318e-11
2.63918e-11
2.59918e-11
2.26831e-11
2.30945e-11
2.17489e-11
4.84481e-11
5.40913e-11
4.63794e-11
4.96443e-11
4.37621e-11
4.54684e-11
4.10162e-11
4.14953e-11
3.81205e-11
3.76442e-11
3.51266e-11
3.38683e-11
3.2092e-11
3.01328e-11
2.90321e-11
2.63911e-11
2.59909e-11
2.26818e-11
2.29993e-11
2.16608e-11
4.84165e-11
5.4031e-11
4.63636e-11
4.96447e-11
4.37596e-11
4.54701e-11
4.10148e-11
4.14964e-11
3.81196e-11
3.76448e-11
3.51262e-11
3.38684e-11
3.20921e-11
3.01326e-11
2.90325e-11
2.63905e-11
2.59906e-11
2.26785e-11
2.29447e-11
2.16159e-11
4.84264e-11
5.40185e-11
4.63488e-11
4.96451e-11
4.37576e-11
4.54714e-11
4.10137e-11
4.14973e-11
3.8119e-11
3.76452e-11
3.51259e-11
3.38686e-11
3.20921e-11
3.01324e-11
2.90328e-11
2.63899e-11
2.59904e-11
2.26743e-11
2.29219e-11
2.16003e-11
4.84636e-11
5.40379e-11
4.6334e-11
4.96452e-11
4.3756e-11
4.54724e-11
4.10128e-11
4.1498e-11
3.81184e-11
3.76456e-11
3.51257e-11
3.38687e-11
3.20922e-11
3.01322e-11
2.9033e-11
2.63895e-11
2.59903e-11
2.26696e-11
2.29243e-11
2.16076e-11
4.85198e-11
5.40796e-11
4.63189e-11
4.96451e-11
4.37546e-11
4.54733e-11
4.10122e-11
4.14985e-11
3.8118e-11
3.7646e-11
3.51255e-11
3.38687e-11
3.20923e-11
3.01321e-11
2.90332e-11
2.63892e-11
2.59904e-11
2.26647e-11
2.29479e-11
2.16339e-11
4.8586e-11
5.41338e-11
4.63033e-11
4.96448e-11
4.37534e-11
4.54739e-11
4.10116e-11
4.14989e-11
3.81177e-11
3.76463e-11
3.51253e-11
3.38687e-11
3.20923e-11
3.0132e-11
2.90334e-11
2.6389e-11
2.59906e-11
2.26602e-11
2.29876e-11
2.1674e-11
4.86529e-11
5.41909e-11
4.62873e-11
4.96441e-11
4.37525e-11
4.54744e-11
4.10113e-11
4.14992e-11
3.81174e-11
3.76464e-11
3.51252e-11
3.38688e-11
3.20924e-11
3.0132e-11
2.90335e-11
2.63889e-11
2.59908e-11
2.26563e-11
2.30373e-11
2.17216e-11
4.87119e-11
5.42418e-11
4.62708e-11
4.9643e-11
4.37518e-11
4.54746e-11
4.10111e-11
4.14993e-11
3.81173e-11
3.76465e-11
3.51251e-11
3.38688e-11
3.20924e-11
3.01319e-11
2.90335e-11
2.63889e-11
2.59909e-11
2.26532e-11
2.30905e-11
2.17704e-11
4.87557e-11
5.42791e-11
4.62541e-11
4.96414e-11
4.37514e-11
4.54746e-11
4.1011e-11
4.14993e-11
3.81172e-11
3.76466e-11
3.51251e-11
3.38688e-11
3.20924e-11
3.01319e-11
2.90335e-11
2.6389e-11
2.59909e-11
2.26512e-11
2.31407e-11
2.1814e-11
4.87787e-11
5.42971e-11
4.62376e-11
4.96392e-11
4.37513e-11
4.54744e-11
4.10112e-11
4.14992e-11
3.81173e-11
3.76465e-11
3.51252e-11
3.38688e-11
3.20925e-11
3.0132e-11
2.90335e-11
2.63892e-11
2.59907e-11
2.26503e-11
2.31821e-11
2.18469e-11
4.87773e-11
5.42925e-11
4.62216e-11
4.96364e-11
4.37514e-11
4.54739e-11
4.10115e-11
4.14989e-11
3.81175e-11
3.76463e-11
3.51253e-11
3.38688e-11
3.20925e-11
3.01321e-11
2.90334e-11
2.63894e-11
2.59902e-11
2.26504e-11
2.32095e-11
2.18644e-11
4.87507e-11
5.42644e-11
4.62065e-11
4.96332e-11
4.37519e-11
4.54732e-11
4.10119e-11
4.14984e-11
3.81179e-11
3.76461e-11
3.51254e-11
3.38688e-11
3.20925e-11
3.01322e-11
2.90332e-11
2.63897e-11
2.59894e-11
2.26514e-11
2.32195e-11
2.18634e-11
4.87e-11
5.42146e-11
4.6193e-11
4.96295e-11
4.37525e-11
4.54723e-11
4.10126e-11
4.14979e-11
3.81184e-11
3.76458e-11
3.51256e-11
3.38687e-11
3.20925e-11
3.01323e-11
2.9033e-11
2.639e-11
2.59884e-11
2.26531e-11
2.32102e-11
2.18423e-11
4.86302e-11
5.41483e-11
4.61813e-11
4.96255e-11
4.37534e-11
4.54712e-11
4.10134e-11
4.14972e-11
3.81189e-11
3.76454e-11
3.51259e-11
3.38686e-11
3.20925e-11
3.01324e-11
2.90327e-11
2.63905e-11
2.59871e-11
2.26553e-11
2.31819e-11
2.18018e-11
4.8547e-11
5.40732e-11
4.6172e-11
4.96212e-11
4.37547e-11
4.54698e-11
4.10145e-11
4.14964e-11
3.81195e-11
3.76449e-11
3.51262e-11
3.38685e-11
3.20925e-11
3.01326e-11
2.90324e-11
2.63909e-11
2.59855e-11
2.26577e-11
2.31371e-11
2.1744e-11
4.84627e-11
5.40027e-11
4.61654e-11
4.96164e-11
4.37565e-11
4.5468e-11
4.10159e-11
4.14953e-11
3.81203e-11
3.76443e-11
3.51266e-11
3.38684e-11
3.20925e-11
3.01328e-11
2.90319e-11
2.63915e-11
2.59835e-11
2.26601e-11
2.30808e-11
2.16734e-11
4.83977e-11
5.39504e-11
4.61607e-11
4.96122e-11
4.3758e-11
4.54663e-11
4.10171e-11
4.14944e-11
3.81211e-11
3.76437e-11
3.51269e-11
3.38682e-11
3.20925e-11
3.0133e-11
2.90315e-11
2.63919e-11
2.59814e-11
2.26624e-11
2.30169e-11
2.15973e-11
4.83857e-11
5.39273e-11
4.61545e-11
4.96113e-11
4.37571e-11
4.54668e-11
4.10166e-11
4.14947e-11
3.81208e-11
3.76438e-11
3.51269e-11
3.38683e-11
3.20926e-11
3.01329e-11
2.90316e-11
2.63915e-11
2.59802e-11
2.26632e-11
2.29571e-11
2.15387e-11
)
;

boundaryField
{
    top
    {
        type            zeroGradient;
    }
    bottom
    {
        type            zeroGradient;
    }
    inlet
    {
        type            fixedValue;
        value           uniform 0;
    }
    outlet
    {
        type            fixedValue;
        value           uniform 0;
    }
    frontAndBack
    {
        type            empty;
    }
}


// ************************************************************************* //
