/*--------------------------------*- C++ -*----------------------------------*\
| =========                 |                                                 |
| \\      /  F ield         | OpenFOAM: The Open Source CFD Toolbox           |
|  \\    /   O peration     | Version:  4.1                                   |
|   \\  /    A nd           | Web:      www.OpenFOAM.org                      |
|    \\/     M anipulation  |                                                 |
\*---------------------------------------------------------------------------*/
FoamFile
{
    version     2.0;
    format      ascii;
    class       surfaceScalarField;
    location    "3.5";
    object      phi;
}
// * * * * * * * * * * * * * * * * * * * * * * * * * * * * * * * * * * * * * //

dimensions      [0 3 -1 0 0 0 0];

internalField   nonuniform List<scalar> 
760
(
1.25e-06
-7.57286e-17
1.25e-06
-5.20353e-17
1.25e-06
6.55128e-19
1.25e-06
-3.68796e-18
1.25e-06
2.45995e-18
1.25e-06
-2.08318e-18
1.25e-06
1.64876e-18
1.25e-06
-1.28799e-18
1.25e-06
9.63975e-19
1.25e-06
-6.80065e-19
1.25e-06
4.22747e-19
1.25e-06
-1.61023e-19
1.25e-06
-7.37499e-20
1.25e-06
2.89547e-19
1.25e-06
-5.38644e-19
1.25e-06
7.3027e-19
1.25e-06
-1.37932e-18
1.25e-06
1.9419e-18
1.25e-06
-3.11833e-17
-4.59398e-17
3.75e-06
-2.28897e-16
3.75e-06
-1.82066e-16
3.75e-06
-3.76521e-18
3.75e-06
-8.96964e-18
3.75e-06
5.15822e-18
3.75e-06
-4.52034e-18
3.75e-06
3.54445e-18
3.75e-06
-2.76775e-18
3.75e-06
2.06357e-18
3.75e-06
-1.45899e-18
3.75e-06
9.13599e-19
3.75e-06
-3.29146e-19
3.75e-06
-1.75853e-19
3.75e-06
6.24303e-19
3.75e-06
-1.19334e-18
3.75e-06
1.53445e-18
3.75e-06
-3.62067e-18
3.75e-06
5.12003e-18
3.75e-06
-1.14836e-16
-1.48342e-16
6.25e-06
-4.14124e-16
6.25e-06
-3.58962e-16
6.25e-06
-1.40084e-17
6.25e-06
-1.37517e-17
6.25e-06
6.63865e-18
6.25e-06
-6.08887e-18
6.25e-06
4.71971e-18
6.25e-06
-3.68165e-18
6.25e-06
2.73108e-18
6.25e-06
-1.93754e-18
6.25e-06
1.22617e-18
6.25e-06
-4.10557e-19
6.25e-06
-2.63408e-19
6.25e-06
8.32959e-19
6.25e-06
-1.64755e-18
6.25e-06
1.98389e-18
6.25e-06
-5.97089e-18
6.25e-06
8.58077e-18
6.25e-06
-2.35824e-16
-2.83635e-16
8.75e-06
-6.03463e-16
8.75e-06
-5.52199e-16
8.75e-06
-2.81422e-17
8.75e-06
-1.78344e-17
8.75e-06
7.05491e-18
8.75e-06
-6.86889e-18
8.75e-06
5.24462e-18
8.75e-06
-4.08767e-18
8.75e-06
3.01343e-18
8.75e-06
-2.15072e-18
8.75e-06
1.38167e-18
8.75e-06
-4.20198e-19
8.75e-06
-3.3144e-19
8.75e-06
9.28801e-19
8.75e-06
-1.91311e-18
8.75e-06
2.12289e-18
8.75e-06
-8.27133e-18
8.75e-06
1.20871e-17
8.75e-06
-3.76298e-16
-4.34012e-16
1.125e-05
-7.72824e-16
1.125e-05
-7.3489e-16
1.125e-05
-4.40995e-17
1.125e-05
-2.09983e-17
1.125e-05
6.57247e-18
1.125e-05
-6.95102e-18
1.125e-05
5.20538e-18
1.125e-05
-4.04527e-18
1.125e-05
2.95904e-18
1.125e-05
-2.13488e-18
1.125e-05
1.39106e-18
1.125e-05
-3.65083e-19
1.125e-05
-3.72482e-19
1.125e-05
9.19828e-19
1.125e-05
-2.0023e-18
1.125e-05
1.99611e-18
1.125e-05
-1.03575e-17
1.125e-05
1.54132e-17
1.125e-05
-5.19112e-16
-5.82426e-16
1.375e-05
-9.03746e-16
1.375e-05
-8.85706e-16
1.375e-05
-5.9843e-17
1.375e-05
-2.30606e-17
1.375e-05
5.37051e-18
1.375e-05
-6.4267e-18
1.375e-05
4.68783e-18
1.375e-05
-3.62795e-18
1.375e-05
2.61679e-18
1.375e-05
-1.92483e-18
1.375e-05
1.28544e-18
1.375e-05
-2.68809e-19
1.375e-05
-3.87654e-19
1.375e-05
8.24028e-19
1.375e-05
-1.93265e-18
1.375e-05
1.652e-18
1.375e-05
-1.20643e-17
1.375e-05
1.83257e-17
1.375e-05
-6.48793e-16
-7.1355e-16
1.625e-05
-9.83497e-16
1.625e-05
-9.89117e-16
1.625e-05
-7.3547e-17
1.625e-05
-2.38776e-17
1.625e-05
3.63231e-18
1.625e-05
-5.40361e-18
1.625e-05
3.79376e-18
1.625e-05
-2.91453e-18
1.625e-05
2.0524e-18
1.625e-05
-1.55441e-18
1.625e-05
1.0786e-18
1.625e-05
-1.46647e-19
1.625e-05
-3.72263e-19
1.625e-05
6.59531e-19
1.625e-05
-1.72701e-18
1.625e-05
1.13527e-18
1.625e-05
-1.32531e-17
1.625e-05
2.05853e-17
1.625e-05
-7.52575e-16
-8.14855e-16
1.875e-05
-1.00572e-15
1.875e-05
-1.03622e-15
1.875e-05
-8.37654e-17
1.875e-05
-2.33894e-17
1.875e-05
1.53555e-18
1.875e-05
-3.98737e-18
1.875e-05
2.60762e-18
1.875e-05
-1.97966e-18
1.875e-05
1.32075e-18
1.875e-05
-1.0628e-18
1.875e-05
8.06283e-19
1.875e-05
-1.37368e-20
1.875e-05
-3.33901e-19
1.875e-05
4.44636e-19
1.875e-05
-1.40907e-18
1.875e-05
5.00549e-19
1.875e-05
-1.38247e-17
1.875e-05
2.19717e-17
1.875e-05
-8.21122e-16
-8.7731e-16
2.125e-05
-9.70142e-16
2.125e-05
-1.02459e-15
2.125e-05
-8.95198e-17
2.125e-05
-2.161e-17
2.125e-05
-7.44371e-19
2.125e-05
-2.30479e-18
2.125e-05
1.23575e-18
2.125e-05
-8.98334e-19
2.125e-05
4.81061e-19
2.125e-05
-5.01679e-19
2.125e-05
4.84757e-19
2.125e-05
1.24459e-19
2.125e-05
-2.78107e-19
2.125e-05
1.99582e-19
2.125e-05
-1.00622e-18
2.125e-05
-2.03878e-19
2.125e-05
-1.37298e-17
2.125e-05
2.23004e-17
2.125e-05
-8.48969e-16
-8.9591e-16
2.375e-05
-8.82285e-16
2.375e-05
-9.57979e-16
2.375e-05
-9.04146e-17
2.375e-05
-1.86793e-17
2.375e-05
-3.03687e-18
2.375e-05
-4.66973e-19
2.375e-05
-2.30504e-19
2.375e-05
2.3898e-19
2.375e-05
-3.88748e-19
2.375e-05
9.42563e-20
2.375e-05
1.26761e-19
2.375e-05
2.59856e-19
2.375e-05
-2.01359e-19
2.375e-05
-6.66641e-20
2.375e-05
-5.49571e-19
2.375e-05
-9.15596e-19
2.375e-05
-1.29803e-17
2.375e-05
2.14758e-17
2.375e-05
-8.34737e-16
-8.69882e-16
2.625e-05
-7.52575e-16
2.625e-05
-8.45573e-16
2.625e-05
-8.66214e-17
2.625e-05
-1.48265e-17
2.625e-05
-5.17419e-18
2.625e-05
1.39096e-18
2.625e-05
-1.67171e-18
2.625e-05
1.37528e-18
2.625e-05
-1.25061e-18
2.625e-05
6.78889e-19
2.625e-05
-2.35955e-19
2.625e-05
3.88763e-19
2.625e-05
-1.29072e-19
2.625e-05
-3.41639e-19
2.625e-05
-5.96272e-20
2.625e-05
-1.5874e-18
2.625e-05
-1.16145e-17
2.625e-05
1.95021e-17
2.625e-05
-7.81019e-16
-8.02599e-16
2.875e-05
-5.95228e-16
2.875e-05
-7.00758e-16
2.875e-05
-7.88284e-17
2.875e-05
-1.0391e-17
2.875e-05
-7.02874e-18
2.875e-05
3.15423e-18
2.875e-05
-3.00805e-18
2.875e-05
2.42319e-18
2.875e-05
-2.04487e-18
2.875e-05
1.22512e-18
2.875e-05
-5.70528e-19
2.875e-05
4.96378e-19
2.875e-05
-5.59177e-20
2.875e-05
-5.93248e-19
2.875e-05
4.17414e-19
2.875e-05
-2.18158e-18
2.875e-05
-9.76673e-18
2.875e-05
1.65376e-17
2.875e-05
-6.93944e-16
-7.01166e-16
3.125e-05
-4.26897e-16
3.125e-05
-5.39711e-16
3.125e-05
-6.81053e-17
3.125e-05
-5.74798e-18
3.125e-05
-8.4736e-18
3.125e-05
4.68283e-18
3.125e-05
-4.13697e-18
3.125e-05
3.30589e-18
3.125e-05
-2.69539e-18
3.125e-05
1.66186e-18
3.125e-05
-8.61282e-19
3.125e-05
5.8805e-19
3.125e-05
1.20572e-20
3.125e-05
-8.11679e-19
3.125e-05
8.66201e-19
3.125e-05
-2.65686e-18
3.125e-05
-7.58804e-18
3.125e-05
1.28634e-17
3.125e-05
-5.82585e-16
-5.758e-16
3.375e-05
-2.64816e-16
3.375e-05
-3.79406e-16
3.375e-05
-5.57602e-17
3.375e-05
-1.35298e-18
3.375e-05
-9.36522e-18
3.375e-05
5.83988e-18
3.375e-05
-4.97418e-18
3.375e-05
3.94296e-18
3.375e-05
-3.14841e-18
3.375e-05
1.99412e-18
3.375e-05
-1.09039e-18
3.375e-05
6.43016e-19
3.375e-05
6.63767e-20
3.375e-05
-9.67778e-19
3.375e-05
1.21167e-18
3.375e-05
-2.93368e-18
3.375e-05
-5.28461e-18
3.375e-05
8.87303e-18
3.375e-05
-4.57908e-16
-4.38768e-16
3.625e-05
-1.2535e-16
3.625e-05
-2.35982e-16
3.625e-05
-4.30753e-17
3.625e-05
2.36767e-18
3.625e-05
-9.63334e-18
3.625e-05
6.5004e-18
3.625e-05
-5.42909e-18
3.625e-05
4.28099e-18
3.625e-05
-3.35624e-18
3.625e-05
2.17487e-18
3.625e-05
-1.2379e-18
3.625e-05
6.68425e-19
3.625e-05
1.11891e-19
3.625e-05
-1.0507e-18
3.625e-05
1.46021e-18
3.625e-05
-3.02591e-18
3.625e-05
-3.05461e-18
3.625e-05
5.01946e-18
3.625e-05
-3.3193e-16
-3.03382e-16
3.875e-05
-2.13503e-17
3.875e-05
-1.22034e-16
3.875e-05
-3.11875e-17
3.875e-05
4.97426e-18
3.875e-05
-9.18281e-18
3.875e-05
6.56927e-18
3.875e-05
-5.41004e-18
3.875e-05
4.23538e-18
3.875e-05
-3.28316e-18
3.875e-05
2.17999e-18
3.875e-05
-1.25977e-18
3.875e-05
6.29466e-19
3.875e-05
1.30988e-19
3.875e-05
-1.03544e-18
3.875e-05
1.54735e-18
3.875e-05
-2.85721e-18
3.875e-05
-1.14601e-18
3.875e-05
1.78963e-18
3.875e-05
-2.16056e-16
-1.82389e-16
4.125e-05
3.85409e-17
4.125e-05
-4.55705e-17
4.125e-05
-2.07843e-17
4.125e-05
6.07919e-18
4.125e-05
-7.91706e-18
4.125e-05
5.93938e-18
4.125e-05
-4.8235e-18
4.125e-05
3.74808e-18
4.125e-05
-2.89232e-18
4.125e-05
1.95696e-18
4.125e-05
-1.1528e-18
4.125e-05
5.47698e-19
4.125e-05
1.2594e-19
4.125e-05
-9.06999e-19
4.125e-05
1.43699e-18
4.125e-05
-2.45298e-18
4.125e-05
2.40415e-19
4.125e-05
-4.17988e-19
4.125e-05
-1.20405e-16
-8.70681e-17
4.375e-05
5.36693e-17
4.375e-05
-6.32917e-18
4.375e-05
-1.2063e-17
4.375e-05
5.42349e-18
4.375e-05
-5.76189e-18
4.375e-05
4.47361e-18
4.375e-05
-3.58095e-18
4.375e-05
2.78341e-18
4.375e-05
-2.1529e-18
4.375e-05
1.47515e-18
4.375e-05
-8.68549e-19
4.375e-05
3.95596e-19
4.375e-05
1.04066e-19
4.375e-05
-6.62521e-19
4.375e-05
1.1002e-18
4.375e-05
-1.77434e-18
4.375e-05
9.07647e-19
4.375e-05
-1.35062e-18
4.375e-05
-5.13946e-17
-2.47889e-17
4.625e-05
3.01512e-17
4.625e-05
3.16734e-18
4.625e-05
-4.62658e-18
4.625e-05
2.79437e-18
4.625e-05
-2.61652e-18
4.625e-05
2.08364e-18
4.625e-05
-1.66108e-18
4.625e-05
1.28842e-18
4.625e-05
-9.8716e-19
4.625e-05
6.78685e-19
4.625e-05
-4.07627e-19
4.625e-05
1.85007e-19
4.625e-05
4.31518e-20
4.625e-05
-3.01819e-19
4.625e-05
5.13054e-19
4.625e-05
-7.87716e-19
4.625e-05
6.68456e-19
4.625e-05
-9.37665e-19
4.625e-05
-1.20373e-17
8.27133e-19
4.875e-05
4.875e-05
4.875e-05
4.875e-05
4.875e-05
4.875e-05
4.875e-05
4.875e-05
4.875e-05
4.875e-05
4.875e-05
4.875e-05
4.875e-05
4.875e-05
4.875e-05
4.875e-05
4.875e-05
4.875e-05
4.875e-05
)
;

boundaryField
{
    top
    {
        type            calculated;
        value           uniform 0;
    }
    bottom
    {
        type            calculated;
        value           uniform 0;
    }
    inlet
    {
        type            calculated;
        value           nonuniform List<scalar> 
20
(
-1.25e-06
-3.75e-06
-6.25e-06
-8.75e-06
-1.125e-05
-1.375e-05
-1.625e-05
-1.875e-05
-2.125e-05
-2.375e-05
-2.625e-05
-2.875e-05
-3.125e-05
-3.375e-05
-3.625e-05
-3.875e-05
-4.125e-05
-4.375e-05
-4.625e-05
-4.875e-05
)
;
    }
    outlet
    {
        type            calculated;
        value           nonuniform List<scalar> 
20
(
1.25e-06
3.75e-06
6.25e-06
8.75e-06
1.125e-05
1.375e-05
1.625e-05
1.875e-05
2.125e-05
2.375e-05
2.625e-05
2.875e-05
3.125e-05
3.375e-05
3.625e-05
3.875e-05
4.125e-05
4.375e-05
4.625e-05
4.875e-05
)
;
    }
    frontAndBack
    {
        type            empty;
        value           nonuniform 0();
    }
}


// ************************************************************************* //
