/*--------------------------------*- C++ -*----------------------------------*\
| =========                 |                                                 |
| \\      /  F ield         | OpenFOAM: The Open Source CFD Toolbox           |
|  \\    /   O peration     | Version:  4.1                                   |
|   \\  /    A nd           | Web:      www.OpenFOAM.org                      |
|    \\/     M anipulation  |                                                 |
\*---------------------------------------------------------------------------*/
FoamFile
{
    version     2.0;
    format      ascii;
    class       volVectorField;
    location    "3.5";
    object      U;
}
// * * * * * * * * * * * * * * * * * * * * * * * * * * * * * * * * * * * * * //

dimensions      [0 1 -1 0 0 0 0];

internalField   nonuniform List<vector> 
400
(
(0.025 -3.3736e-14 0)
(0.025 -2.10332e-14 0)
(0.025 7.78288e-16 0)
(0.025 -1.84265e-15 0)
(0.025 1.29548e-15 0)
(0.025 -1.08522e-15 0)
(0.025 8.61682e-16 0)
(0.025 -6.73186e-16 0)
(0.025 5.04434e-16 0)
(0.025 -3.55883e-16 0)
(0.025 2.20651e-16 0)
(0.025 -8.54536e-17 0)
(0.025 -3.67354e-17 0)
(0.025 1.51068e-16 0)
(0.025 -2.77997e-16 0)
(0.025 3.8321e-16 0)
(0.025 -6.67533e-16 0)
(0.025 8.60823e-16 0)
(0.025 -1.18522e-14 0)
(0.025 -1.93155e-14 0)
(0.075 -1.41985e-13 0)
(0.075 -1.04778e-13 0)
(0.075 -2.67622e-16 0)
(0.075 -6.23488e-15 0)
(0.075 3.94229e-15 0)
(0.075 -3.37803e-15 0)
(0.075 2.66442e-15 0)
(0.075 -2.08139e-15 0)
(0.075 1.55581e-15 0)
(0.075 -1.09786e-15 0)
(0.075 6.8414e-16 0)
(0.075 -2.55559e-16 0)
(0.075 -1.24283e-16 0)
(0.075 4.68549e-16 0)
(0.075 -8.809e-16 0)
(0.075 1.17076e-15 0)
(0.075 -2.40363e-15 0)
(0.075 3.45607e-15 0)
(0.075 -6.39151e-14 0)
(0.075 -8.82717e-14 0)
(0.125 -3.1498e-13 0)
(0.125 -2.61496e-13 0)
(0.125 -7.75217e-15 0)
(0.125 -1.13981e-14 0)
(0.125 6.09533e-15 0)
(0.125 -5.43908e-15 0)
(0.125 4.24546e-15 0)
(0.125 -3.31374e-15 0)
(0.125 2.46563e-15 0)
(0.125 -1.74546e-15 0)
(0.125 1.09769e-15 0)
(0.125 -3.84033e-16 0)
(0.125 -2.21499e-16 0)
(0.125 7.48527e-16 0)
(0.125 -1.45036e-15 0)
(0.125 1.81543e-15 0)
(0.125 -4.7522e-15 0)
(0.125 6.70232e-15 0)
(0.125 -1.67702e-13 0)
(0.125 -2.08902e-13 0)
(0.175 -5.09843e-13 0)
(0.175 -4.53834e-13 0)
(0.175 -2.02792e-14 0)
(0.175 -1.59838e-14 0)
(0.175 7.09624e-15 0)
(0.175 -6.66582e-15 0)
(0.175 5.135e-15 0)
(0.175 -4.00511e-15 0)
(0.175 2.96354e-15 0)
(0.175 -2.10659e-15 0)
(0.175 1.34184e-15 0)
(0.175 -4.32292e-16 0)
(0.175 -3.03099e-16 0)
(0.175 9.08046e-16 0)
(0.175 -1.82604e-15 0)
(0.175 2.12653e-15 0)
(0.175 -7.14871e-15 0)
(0.175 1.03251e-14 0)
(0.175 -3.02833e-13 0)
(0.175 -3.56655e-13 0)
(0.225 -6.95295e-13 0)
(0.225 -6.48564e-13 0)
(0.225 -3.58946e-14 0)
(0.225 -1.96785e-14 0)
(0.225 7.02657e-15 0)
(0.225 -7.08116e-15 0)
(0.225 5.36177e-15 0)
(0.225 -4.17389e-15 0)
(0.225 3.06769e-15 0)
(0.225 -2.19892e-15 0)
(0.225 1.42042e-15 0)
(0.225 -4.06036e-16 0)
(0.225 -3.58647e-16 0)
(0.225 9.48725e-16 0)
(0.225 -2.00151e-15 0)
(0.225 2.12281e-15 0)
(0.225 -9.39251e-15 0)
(0.225 1.37989e-14 0)
(0.225 -4.48954e-13 0)
(0.225 -5.10555e-13 0)
(0.275 -8.49337e-13 0)
(0.275 -8.20021e-13 0)
(0.275 -5.22576e-14 0)
(0.275 -2.23243e-14 0)
(0.275 6.13089e-15 0)
(0.275 -6.8287e-15 0)
(0.275 5.05548e-15 0)
(0.275 -3.92202e-15 0)
(0.275 2.85241e-15 0)
(0.275 -2.07413e-15 0)
(0.275 1.36537e-15 0)
(0.275 -3.26039e-16 0)
(0.275 -3.87199e-16 0)
(0.275 8.91748e-16 0)
(0.275 -2.00482e-15 0)
(0.275 1.87296e-15 0)
(0.275 -1.13228e-14 0)
(0.275 1.69771e-14 0)
(0.275 -5.88755e-13 0)
(0.275 -6.53798e-13 0)
(0.325 -9.57007e-13 0)
(0.325 -9.50167e-13 0)
(0.325 -6.74088e-14 0)
(0.325 -2.37867e-14 0)
(0.325 4.61273e-15 0)
(0.325 -6.02586e-15 0)
(0.325 4.32422e-15 0)
(0.325 -3.33623e-15 0)
(0.325 2.38357e-15 0)
(0.325 -1.77369e-15 0)
(0.325 1.20257e-15 0)
(0.325 -2.13027e-16 0)
(0.325 -3.86378e-16 0)
(0.325 7.56647e-16 0)
(0.325 -1.86086e-15 0)
(0.325 1.42989e-15 0)
(0.325 -1.27986e-14 0)
(0.325 1.96241e-14 0)
(0.325 -7.08201e-13 0)
(0.325 -7.72656e-13 0)
(0.375 -1.00883e-12 0)
(0.375 -1.02686e-12 0)
(0.375 -7.96847e-14 0)
(0.375 -2.39576e-14 0)
(0.375 2.64995e-15 0)
(0.375 -4.77832e-15 0)
(0.375 3.26012e-15 0)
(0.375 -2.4923e-15 0)
(0.375 1.71982e-15 0)
(0.375 -1.33248e-15 0)
(0.375 9.57677e-16 0)
(0.375 -8.25034e-17 0)
(0.375 -3.58403e-16 0)
(0.375 5.62923e-16 0)
(0.375 -1.59273e-15 0)
(0.375 8.40672e-16 0)
(0.375 -1.36973e-14 0)
(0.375 2.1505e-14 0)
(0.375 -7.96189e-13 0)
(0.375 -8.56277e-13 0)
(0.425 -1.00152e-12 0)
(0.425 -1.04447e-12 0)
(0.425 -8.78525e-14 0)
(0.425 -2.28057e-14 0)
(0.425 4.18569e-16 0)
(0.425 -3.19884e-15 0)
(0.425 1.9561e-15 0)
(0.425 -1.46497e-15 0)
(0.425 9.1909e-16 0)
(0.425 -7.95795e-16 0)
(0.425 6.5518e-16 0)
(0.425 5.51079e-17 0)
(0.425 -3.10054e-16 0)
(0.425 3.29194e-16 0)
(0.425 -1.2257e-15 0)
(0.425 1.5901e-16 0)
(0.425 -1.39421e-14 0)
(0.425 2.24058e-14 0)
(0.425 -8.45235e-13 0)
(0.425 -8.97534e-13 0)
(0.475 -9.37848e-13 0)
(0.475 -1.00377e-12 0)
(0.475 -9.12131e-14 0)
(0.475 -2.04063e-14 0)
(0.475 -1.90857e-15 0)
(0.475 -1.4074e-15 0)
(0.475 5.11644e-16 0)
(0.475 -3.36399e-16 0)
(0.475 4.92542e-17 0)
(0.475 -2.06852e-16 0)
(0.475 3.09619e-16 0)
(0.475 1.94243e-16 0)
(0.475 -2.41947e-16 0)
(0.475 6.89229e-17 0)
(0.475 -7.88654e-16 0)
(0.475 -5.62291e-16 0)
(0.475 -1.35123e-14 0)
(0.475 2.21769e-14 0)
(0.475 -8.51893e-13 0)
(0.475 -8.93508e-13 0)
(0.525 -8.26019e-13 0)
(0.525 -9.11486e-13 0)
(0.525 -8.96573e-14 0)
(0.525 -1.69465e-14 0)
(0.525 -4.16077e-15 0)
(0.525 4.71888e-16 0)
(0.525 -9.66778e-16 0)
(0.525 8.19689e-16 0)
(0.525 -8.32126e-16 0)
(0.525 3.94964e-16 0)
(0.525 -5.69469e-17 0)
(0.525 3.27928e-16 0)
(0.525 -1.65654e-16 0)
(0.525 -2.06132e-16 0)
(0.525 -3.06696e-16 0)
(0.525 -1.26643e-15 0)
(0.525 -1.24339e-14 0)
(0.525 2.07649e-14 0)
(0.525 -8.16841e-13 0)
(0.525 -8.45558e-13 0)
(0.575 -6.78677e-13 0)
(0.575 -7.79226e-13 0)
(0.575 -8.36387e-14 0)
(0.575 -1.27129e-14 0)
(0.575 -6.19133e-15 0)
(0.575 2.3154e-15 0)
(0.575 -2.37927e-15 0)
(0.575 1.93079e-15 0)
(0.575 -1.67431e-15 0)
(0.575 9.69177e-16 0)
(0.575 -4.10854e-16 0)
(0.575 4.47651e-16 0)
(0.575 -9.21625e-17 0)
(0.575 -4.73905e-16 0)
(0.575 1.85155e-16 0)
(0.575 -1.91109e-15 0)
(0.575 -1.07929e-14 0)
(0.575 1.82477e-14 0)
(0.575 -7.44568e-13 0)
(0.575 -7.59058e-13 0)
(0.625 -5.11657e-13 0)
(0.625 -6.22204e-13 0)
(0.625 -7.40728e-14 0)
(0.625 -8.0706e-15 0)
(0.625 -7.87063e-15 0)
(0.625 3.99299e-15 0)
(0.625 -3.63473e-15 0)
(0.625 2.91414e-15 0)
(0.625 -2.41087e-15 0)
(0.625 1.4689e-15 0)
(0.625 -7.29033e-16 0)
(0.625 5.48809e-16 0)
(0.625 -1.93517e-17 0)
(0.625 -7.14008e-16 0)
(0.625 6.56738e-16 0)
(0.625 -2.45669e-15 0)
(0.625 -8.73551e-15 0)
(0.625 1.48465e-14 0)
(0.625 -6.4288e-13 0)
(0.625 -6.42882e-13 0)
(0.675 -3.42309e-13 0)
(0.675 -4.57434e-13 0)
(0.675 -6.21988e-14 0)
(0.675 -3.43988e-15 0)
(0.675 -9.06543e-15 0)
(0.675 5.36687e-15 0)
(0.675 -4.64115e-15 0)
(0.675 3.69329e-15 0)
(0.675 -2.97572e-15 0)
(0.675 1.86169e-15 0)
(0.675 -9.9516e-16 0)
(0.675 6.24233e-16 0)
(0.675 4.25821e-17 0)
(0.675 -9.06267e-16 0)
(0.675 1.06393e-15 0)
(0.675 -2.84294e-15 0)
(0.675 -6.44322e-15 0)
(0.675 1.09075e-14 0)
(0.675 -5.22037e-13 0)
(0.675 -5.08522e-13 0)
(0.725 -1.87922e-13 0)
(0.725 -3.02038e-13 0)
(0.725 -4.93691e-14 0)
(0.725 7.30915e-16 0)
(0.725 -9.67149e-15 0)
(0.725 6.30775e-15 0)
(0.725 -5.31075e-15 0)
(0.725 4.19872e-15 0)
(0.725 -3.31799e-15 0)
(0.725 2.12586e-15 0)
(0.725 -1.18922e-15 0)
(0.725 6.66537e-16 0)
(0.725 9.38583e-17 0)
(0.725 -1.03152e-15 0)
(0.725 1.37028e-15 0)
(0.725 -3.03523e-15 0)
(0.725 -4.12082e-15 0)
(0.725 6.86357e-15 0)
(0.725 -3.9385e-13 0)
(0.725 -3.69101e-13 0)
(0.775 -6.35131e-14 0)
(0.775 -1.70867e-13 0)
(0.775 -3.6854e-14 0)
(0.775 4.00452e-15 0)
(0.775 -9.60988e-15 0)
(0.775 6.70809e-15 0)
(0.775 -5.55701e-15 0)
(0.775 4.36477e-15 0)
(0.775 -3.3993e-15 0)
(0.775 2.23038e-15 0)
(0.775 -1.28235e-15 0)
(0.775 6.62768e-16 0)
(0.775 1.2751e-16 0)
(0.775 -1.07033e-15 0)
(0.775 1.55041e-15 0)
(0.775 -3.00607e-15 0)
(0.775 -1.99298e-15 0)
(0.775 3.20292e-15 0)
(0.775 -2.70298e-13 0)
(0.775 -2.37917e-13 0)
(0.825 1.92638e-14 0)
(0.825 -7.49085e-14 0)
(0.825 -2.5563e-14 0)
(0.825 5.93995e-15 0)
(0.825 -8.76364e-15 0)
(0.825 6.4476e-15 0)
(0.825 -5.26646e-15 0)
(0.825 4.10754e-15 0)
(0.825 -3.1741e-15 0)
(0.825 2.12981e-15 0)
(0.825 -1.24454e-15 0)
(0.825 6.03067e-16 0)
(0.825 1.34255e-16 0)
(0.825 -9.99783e-16 0)
(0.825 1.54527e-15 0)
(0.825 -2.72231e-15 0)
(0.825 -2.91608e-16 0)
(0.825 4.03641e-16 0)
(0.825 -1.62453e-13 0)
(0.825 -1.27444e-13 0)
(0.875 5.52499e-14 0)
(0.875 -1.79126e-14 0)
(0.875 -1.58906e-14 0)
(0.875 6.11132e-15 0)
(0.875 -6.98388e-15 0)
(0.875 5.35008e-15 0)
(0.875 -4.3112e-15 0)
(0.875 3.34819e-15 0)
(0.875 -2.58366e-15 0)
(0.875 1.76104e-15 0)
(0.875 -1.0402e-15 0)
(0.875 4.81599e-16 0)
(0.875 1.20697e-16 0)
(0.875 -8.04242e-16 0)
(0.875 1.30936e-15 0)
(0.875 -2.15644e-15 0)
(0.875 7.44776e-16 0)
(0.875 -1.2045e-15 0)
(0.875 -7.8837e-14 0)
(0.875 -4.75903e-14 0)
(0.925 4.78421e-14 0)
(0.925 3.87078e-15 0)
(0.925 -7.81476e-15 0)
(0.925 4.39051e-15 0)
(0.925 -4.25977e-15 0)
(0.925 3.36575e-15 0)
(0.925 -2.68422e-15 0)
(0.925 2.08314e-15 0)
(0.925 -1.60431e-15 0)
(0.925 1.1043e-15 0)
(0.925 -6.55353e-16 0)
(0.925 2.95594e-16 0)
(0.925 7.51884e-17 0)
(0.925 -4.91916e-16 0)
(0.925 8.31603e-16 0)
(0.925 -1.30107e-15 0)
(0.925 9.46408e-16 0)
(0.925 -1.35576e-15 0)
(0.925 -2.54208e-14 0)
(0.925 -4.85262e-15 0)
(0.975 1.7863e-14 0)
(0.975 3.99202e-15 0)
(0.975 -2.15797e-15 0)
(0.975 1.51577e-15 0)
(0.975 -1.35541e-15 0)
(0.975 1.08927e-15 0)
(0.975 -8.65576e-16 0)
(0.975 6.70294e-16 0)
(0.975 -5.13424e-16 0)
(0.975 3.5476e-16 0)
(0.975 -2.14669e-16 0)
(0.975 9.53353e-17 0)
(0.975 2.43153e-17 0)
(0.975 -1.55506e-16 0)
(0.975 2.68912e-16 0)
(0.975 -4.07556e-16 0)
(0.975 3.94783e-16 0)
(0.975 -6.14599e-16 0)
(0.975 -3.3257e-15 0)
(0.975 3.56673e-15 0)
)
;

boundaryField
{
    top
    {
        type            fixedValue;
        value           uniform (1 0 0);
    }
    bottom
    {
        type            fixedValue;
        value           uniform (0 0 0);
    }
    inlet
    {
        type            zeroGradient;
    }
    outlet
    {
        type            zeroGradient;
    }
    frontAndBack
    {
        type            empty;
    }
}


// ************************************************************************* //
