/*--------------------------------*- C++ -*----------------------------------*\
| =========                 |                                                 |
| \\      /  F ield         | OpenFOAM: The Open Source CFD Toolbox           |
|  \\    /   O peration     | Version:  4.1                                   |
|   \\  /    A nd           | Web:      www.OpenFOAM.org                      |
|    \\/     M anipulation  |                                                 |
\*---------------------------------------------------------------------------*/
FoamFile
{
    version     2.0;
    format      ascii;
    class       surfaceScalarField;
    location    "1.4";
    object      phi;
}
// * * * * * * * * * * * * * * * * * * * * * * * * * * * * * * * * * * * * * //

dimensions      [0 3 -1 0 0 0 0];

internalField   nonuniform List<scalar> 
760
(
-1.91637e-05
1.17707e-12
-1.91637e-05
1.4987e-12
-1.91637e-05
3.02345e-12
-1.91637e-05
-1.29628e-12
-1.91637e-05
4.69314e-12
-1.91637e-05
-3.44426e-12
-1.91637e-05
5.62332e-12
-1.91637e-05
-3.96361e-12
-1.91637e-05
5.45779e-12
-1.91637e-05
-3.73865e-12
-1.91637e-05
4.62171e-12
-1.91637e-05
-2.9938e-12
-1.91637e-05
3.26954e-12
-1.91637e-05
-1.857e-12
-1.91637e-05
1.58222e-12
-1.91637e-05
-5.54831e-13
-1.91637e-05
-1.07863e-13
-1.91637e-05
5.89776e-13
-1.91637e-05
-2.16366e-12
1.92786e-12
-5.11582e-05
2.43423e-12
-5.11582e-05
2.06248e-12
-5.11582e-05
4.9725e-12
-5.11582e-05
-7.39202e-12
-5.11582e-05
6.1941e-12
-5.11582e-05
-1.29785e-11
-5.11582e-05
6.61417e-12
-5.11582e-05
-1.39915e-11
-5.11582e-05
5.35806e-12
-5.11582e-05
-1.28386e-11
-5.11582e-05
3.27805e-12
-5.11582e-05
-1.01893e-11
-5.11582e-05
6.92415e-13
-5.11582e-05
-6.51452e-12
-5.11582e-05
-1.98704e-12
-5.11582e-05
-2.59307e-12
-5.11582e-05
-3.95531e-12
-5.11582e-05
2.54665e-13
-5.11582e-05
-5.81714e-12
4.56396e-12
-7.68199e-05
4.68611e-12
-7.68199e-05
3.60276e-12
-7.68199e-05
7.32906e-12
-7.68199e-05
-1.41238e-11
-7.68199e-05
7.02384e-12
-7.68199e-05
-2.31392e-11
-7.68199e-05
6.33592e-12
-7.68199e-05
-2.43314e-11
-7.68199e-05
3.67454e-12
-7.68199e-05
-2.1906e-11
-7.68199e-05
2.15311e-13
-7.68199e-05
-1.70437e-11
-7.68199e-05
-3.56127e-12
-7.68199e-05
-1.06159e-11
-7.68199e-05
-6.98004e-12
-7.68199e-05
-4.04982e-12
-7.68199e-05
-8.65908e-12
-7.68199e-05
-6.88559e-14
-7.68199e-05
-8.88643e-12
8.12634e-12
-9.61488e-05
8.30851e-12
-9.61489e-05
6.86642e-12
-9.61489e-05
1.03686e-11
-9.61489e-05
-1.98158e-11
-9.61489e-05
7.85361e-12
-9.61489e-05
-3.18975e-11
-9.61489e-05
5.83367e-12
-9.61489e-05
-3.3101e-11
-9.61489e-05
1.75255e-12
-9.61489e-05
-2.94216e-11
-9.61489e-05
-3.03157e-12
-9.61489e-05
-2.25302e-11
-9.61489e-05
-7.89949e-12
-9.61489e-05
-1.36705e-11
-9.61489e-05
-1.19196e-11
-9.61489e-05
-4.88507e-12
-9.61489e-05
-1.31083e-11
-9.61489e-05
-4.56175e-13
-9.61489e-05
-1.06593e-11
1.24805e-11
-0.000109145
1.31106e-11
-0.000109145
1.14825e-11
-0.000109145
1.39278e-11
-0.000109145
-2.44044e-11
-0.000109145
8.90047e-12
-0.000109145
-3.90362e-11
-0.000109145
5.46473e-12
-0.000109145
-4.00616e-11
-0.000109145
8.58442e-15
-0.000109145
-3.51633e-11
-0.000109145
-6.03489e-12
-0.000109145
-2.64618e-11
-0.000109145
-1.1923e-11
-0.000109145
-1.55366e-11
-0.000109145
-1.64732e-11
-0.000109145
-4.99497e-12
-0.000109145
-1.70955e-11
-0.000109145
-6.96307e-13
-0.000109145
-1.09754e-11
1.754e-11
-0.000115809
1.86793e-11
-0.000115809
1.68364e-11
-0.000115809
1.75693e-11
-0.000115809
-2.80238e-11
-0.000115809
9.8536e-12
-0.000115809
-4.45974e-11
-0.000115809
4.94483e-12
-0.000115809
-4.52946e-11
-0.000115809
-1.8061e-12
-0.000115809
-3.92642e-11
-0.000115809
-8.98681e-12
-0.000115809
-2.90159e-11
-0.000115809
-1.57505e-11
-0.000115809
-1.64219e-11
-0.000115809
-2.0683e-11
-0.000115809
-4.58574e-12
-0.000115809
-2.06224e-11
-0.000115809
-8.45907e-13
-0.000115809
-9.92506e-12
2.29438e-11
-0.000116139
2.45103e-11
-0.000116139
2.22796e-11
-0.000116139
2.09542e-11
-0.000116139
-3.07671e-11
-0.000116139
1.05454e-11
-0.000116139
-4.86154e-11
-0.000116139
4.16931e-12
-0.000116139
-4.88717e-11
-0.000116139
-3.75315e-12
-0.000116139
-4.18397e-11
-0.000116139
-1.19056e-11
-0.000116139
-3.03416e-11
-0.000116139
-1.93577e-11
-0.000116139
-1.64952e-11
-0.000116139
-2.4491e-11
-0.000116139
-3.81746e-12
-0.000116139
-2.3636e-11
-0.000116139
-9.37106e-13
-0.000116139
-7.75798e-12
2.82661e-11
-0.000110137
3.00454e-11
-0.000110137
2.71706e-11
-0.000110137
2.38021e-11
-0.000110137
-3.26819e-11
-0.000110137
1.08691e-11
-0.000110137
-5.11077e-11
-0.000110137
3.10684e-12
-0.000110137
-5.08486e-11
-0.000110137
-5.81905e-12
-0.000110137
-4.2986e-11
-0.000110137
-1.47399e-11
-0.000110137
-3.05673e-11
-0.000110137
-2.26622e-11
-0.000110137
-1.59023e-11
-0.000110137
-2.77993e-11
-0.000110137
-2.82717e-12
-0.000110137
-2.60642e-11
-0.000110137
-1.00171e-12
-0.000110137
-4.85019e-12
3.30202e-11
-9.78028e-05
3.47282e-11
-9.78028e-05
3.09254e-11
-9.78028e-05
2.58857e-11
-9.78028e-05
-3.3784e-11
-9.78028e-05
1.07747e-11
-9.78028e-05
-5.20891e-11
-9.78028e-05
1.79246e-12
-9.78028e-05
-5.12786e-11
-9.78028e-05
-7.92363e-12
-9.78028e-05
-4.27928e-11
-9.78028e-05
-1.73782e-11
-9.78028e-05
-2.98086e-11
-9.78028e-05
-2.55349e-11
-9.78028e-05
-1.47702e-11
-9.78028e-05
-3.04807e-11
-9.78028e-05
-1.72756e-12
-9.78028e-05
-2.78257e-11
-9.78028e-05
-1.05974e-12
-9.78028e-05
-1.6436e-12
3.67228e-11
-7.91355e-05
3.80552e-11
-7.91355e-05
3.30603e-11
-7.91355e-05
2.70228e-11
-7.91355e-05
-3.40783e-11
-7.91355e-05
1.02537e-11
-7.91355e-05
-5.15972e-11
-7.91355e-05
3.05132e-13
-7.91355e-05
-5.02375e-11
-7.91355e-05
-9.94533e-12
-7.91355e-05
-4.13653e-11
-7.91355e-05
-1.96747e-11
-7.91355e-05
-2.81875e-11
-7.91355e-05
-2.7823e-11
-7.91355e-05
-1.32201e-11
-7.91355e-05
-3.23993e-11
-7.91355e-05
-6.13659e-13
-7.91355e-05
-2.88455e-11
-7.91355e-05
-1.11366e-12
-7.91355e-05
1.41159e-12
3.89485e-11
-5.41355e-05
3.96328e-11
-5.41355e-05
3.32421e-11
-5.41355e-05
2.70766e-11
-5.41355e-05
-3.35768e-11
-5.41355e-05
9.3283e-12
-5.41355e-05
-4.97107e-11
-5.41355e-05
-1.25228e-12
-5.41355e-05
-4.78419e-11
-5.41355e-05
-1.17444e-11
-5.41355e-05
-3.8841e-11
-5.41355e-05
-2.14727e-11
-5.41355e-05
-2.58454e-11
-5.41355e-05
-2.93729e-11
-5.41355e-05
-1.13768e-11
-5.41355e-05
-3.3429e-11
-5.41355e-05
4.32348e-13
-5.41355e-05
-2.90674e-11
-5.41355e-05
-1.14648e-12
-5.41355e-05
3.92039e-12
3.93878e-11
-2.28028e-05
3.92244e-11
-2.28028e-05
3.13339e-11
-2.28028e-05
2.59712e-11
-2.28028e-05
-3.23053e-11
-2.28028e-05
8.04917e-12
-2.28028e-05
-4.65527e-11
-2.28028e-05
-2.76421e-12
-2.28028e-05
-4.42508e-11
-2.28028e-05
-1.31772e-11
-2.28028e-05
-3.53896e-11
-2.28028e-05
-2.26204e-11
-2.28028e-05
-2.29419e-11
-2.28028e-05
-3.00449e-11
-2.28028e-05
-9.36673e-12
-2.28028e-05
-3.3467e-11
-2.28028e-05
1.34244e-12
-2.28028e-05
-2.84609e-11
-2.28028e-05
-1.1244e-12
-2.28028e-05
5.59452e-12
3.78927e-11
1.48626e-05
3.67922e-11
1.48626e-05
2.74394e-11
1.48626e-05
2.37171e-11
1.48626e-05
-3.02984e-11
1.48626e-05
6.49905e-12
1.48626e-05
-4.22814e-11
1.48626e-05
-4.10627e-12
1.48626e-05
-3.96535e-11
1.48626e-05
-1.41029e-11
1.48626e-05
-3.12008e-11
1.48626e-05
-2.29789e-11
1.48626e-05
-1.9643e-11
1.48626e-05
-2.97218e-11
1.48626e-05
-7.30824e-12
1.48626e-05
-3.244e-11
1.48626e-05
2.06818e-12
1.48626e-05
-2.7021e-11
1.48626e-05
-1.00495e-12
1.48626e-05
6.2931e-12
3.45128e-11
5.88606e-05
3.25111e-11
5.88606e-05
2.19242e-11
5.88606e-05
2.04431e-11
5.88606e-05
-2.75856e-11
5.88606e-05
4.80227e-12
5.88607e-05
-3.70678e-11
5.88606e-05
-5.14013e-12
5.88607e-05
-3.4245e-11
5.88606e-05
-1.43794e-11
5.88607e-05
-2.64582e-11
5.88606e-05
-2.24189e-11
5.88607e-05
-1.60979e-11
5.88606e-05
-2.83062e-11
5.88607e-05
-5.29361e-12
5.88607e-05
-3.03011e-11
5.88607e-05
2.59018e-12
5.88607e-05
-2.476e-11
5.88607e-05
-7.49274e-13
5.88607e-05
6.03968e-12
2.95088e-11
0.000109191
2.67772e-11
0.000109191
1.54265e-11
0.000109191
1.64207e-11
0.000109191
-2.41729e-11
0.000109191
3.13399e-12
0.000109191
-3.1069e-11
0.000109191
-5.70523e-12
0.000109191
-2.81962e-11
0.000109191
-1.38557e-11
0.000109191
-2.13112e-11
0.000109191
-2.08136e-11
0.000109191
-1.24135e-11
0.000109191
-2.57134e-11
0.000109191
-3.36966e-12
0.000109191
-2.70227e-11
0.000109191
2.92761e-12
0.000109191
-2.16948e-11
0.000109191
-3.33668e-13
0.000109191
5.02743e-12
2.33546e-11
0.000165855
2.01573e-11
0.000165855
8.80868e-12
0.000165855
1.20703e-11
0.000165855
-2.00313e-11
0.000165855
1.7181e-12
0.000165855
-2.44093e-11
0.000165855
-5.61875e-12
0.000165855
-2.16355e-11
0.000165855
-1.23709e-11
0.000165855
-1.58584e-11
0.000165855
-1.8037e-11
0.000165855
-8.64227e-12
0.000165855
-2.18696e-11
0.000165855
-1.53135e-12
0.000165855
-2.25917e-11
0.000165855
3.13736e-12
0.000165855
-1.78406e-11
0.000165855
2.34661e-13
0.000165855
3.58572e-12
1.67001e-11
0.000228851
1.34411e-11
0.000228851
3.12374e-12
0.000228851
8.00929e-12
0.000228851
-1.50539e-11
0.000228851
8.96508e-13
0.000228851
-1.70917e-11
0.000228851
-4.60265e-12
0.000228851
-1.45333e-11
0.000228851
-9.6913e-12
0.000228851
-1.00177e-11
0.000228851
-1.39171e-11
0.000228851
-4.65154e-12
0.000228851
-1.66791e-11
0.000228851
3.93784e-13
0.000228851
-1.69892e-11
0.000228851
3.39774e-12
0.000228851
-1.31919e-11
0.000228851
9.63017e-13
0.000228851
2.18291e-12
1.03445e-11
0.00029818
7.26254e-12
0.00029818
-6.68316e-13
0.00029818
4.53288e-12
0.00029818
-9.36947e-12
0.00029818
5.4055e-13
0.00029818
-9.50353e-12
0.00029818
-2.89386e-12
0.00029818
-7.35551e-12
0.00029818
-6.08864e-12
0.00029818
-4.26519e-12
0.00029818
-8.72941e-12
0.00029818
-8.78455e-13
0.00029818
-1.04034e-11
0.00029818
2.05036e-12
0.00029818
-1.04498e-11
0.00029818
3.45872e-12
0.00029818
-7.90496e-12
0.00029818
1.55517e-12
0.00029818
1.22518e-12
5.07214e-12
0.000373842
2.66659e-12
0.000373842
-1.49205e-12
0.000373842
2.38273e-12
0.000373842
-2.87051e-12
0.000373842
1.05701e-12
0.000373842
-1.55305e-12
0.000373842
-2.1413e-13
0.000373842
7.23619e-14
0.000373842
-1.40356e-12
0.000373842
1.65678e-12
0.000373842
-2.43775e-12
0.000373842
2.99394e-12
0.000373842
-3.12067e-12
0.000373842
3.77489e-12
0.000373842
-3.12919e-12
0.000373842
3.60346e-12
0.000373842
-2.10262e-12
0.000373842
2.0164e-12
0.000373842
1.24955e-12
1.66912e-12
0.000455836
0.000455836
0.000455836
0.000455836
0.000455836
0.000455836
0.000455836
0.000455836
0.000455836
0.000455836
0.000455836
0.000455836
0.000455836
0.000455836
0.000455836
0.000455836
0.000455836
0.000455836
0.000455836
)
;

boundaryField
{
    top
    {
        type            calculated;
        value           uniform 0;
    }
    bottom
    {
        type            calculated;
        value           uniform 0;
    }
    inlet
    {
        type            calculated;
        value           nonuniform List<scalar> 
20
(
1.91637e-05
5.11582e-05
7.68199e-05
9.61488e-05
0.000109145
0.000115809
0.000116139
0.000110137
9.78028e-05
7.91355e-05
5.41355e-05
2.28028e-05
-1.48626e-05
-5.88606e-05
-0.000109191
-0.000165855
-0.000228851
-0.00029818
-0.000373842
-0.000455836
)
;
    }
    outlet
    {
        type            calculated;
        value           nonuniform List<scalar> 
20
(
-1.91637e-05
-5.11582e-05
-7.68199e-05
-9.61489e-05
-0.000109145
-0.000115809
-0.000116139
-0.000110137
-9.78028e-05
-7.91355e-05
-5.41355e-05
-2.28028e-05
1.48626e-05
5.88607e-05
0.000109191
0.000165855
0.000228851
0.00029818
0.000373842
0.000455836
)
;
    }
    frontAndBack
    {
        type            empty;
        value           nonuniform 0();
    }
}


// ************************************************************************* //
