/*--------------------------------*- C++ -*----------------------------------*\
| =========                 |                                                 |
| \\      /  F ield         | OpenFOAM: The Open Source CFD Toolbox           |
|  \\    /   O peration     | Version:  4.1                                   |
|   \\  /    A nd           | Web:      www.OpenFOAM.org                      |
|    \\/     M anipulation  |                                                 |
\*---------------------------------------------------------------------------*/
FoamFile
{
    version     2.0;
    format      ascii;
    class       volVectorField;
    location    "1.4";
    object      U;
}
// * * * * * * * * * * * * * * * * * * * * * * * * * * * * * * * * * * * * * //

dimensions      [0 1 -1 0 0 0 0];

internalField   nonuniform List<vector> 
400
(
(-0.383273 1.38913e-10 0)
(-0.383273 -1.84493e-10 0)
(-0.383273 -1.69646e-10 0)
(-0.383273 -1.50503e-09 0)
(-0.383273 -6.75828e-10 0)
(-0.383273 -2.35341e-09 0)
(-0.383273 -9.7081e-10 0)
(-0.383273 -2.66309e-09 0)
(-0.383273 -1.23638e-09 0)
(-0.383273 -2.63165e-09 0)
(-0.383273 -1.40552e-09 0)
(-0.383273 -2.33944e-09 0)
(-0.383273 -1.46891e-09 0)
(-0.383273 -1.84634e-09 0)
(-0.383273 -1.41651e-09 0)
(-0.383273 -1.23983e-09 0)
(-0.383273 -1.22729e-09 0)
(-0.383273 -6.47603e-10 0)
(-0.383273 -1.14701e-09 0)
(-0.383273 1.51307e-10 0)
(-1.02316 1.71267e-09 0)
(-1.02316 1.83121e-09 0)
(-1.02316 5.20539e-09 0)
(-1.02316 -4.078e-09 0)
(-1.02316 8.19754e-09 0)
(-1.02316 -8.16661e-09 0)
(-1.02316 9.58899e-09 0)
(-1.02316 -8.80658e-09 0)
(-1.02316 8.99928e-09 0)
(-1.02316 -7.92909e-09 0)
(-1.02316 7.25556e-09 0)
(-1.02316 -6.02121e-09 0)
(-1.02316 4.67282e-09 0)
(-1.02316 -3.40117e-09 0)
(-1.02316 1.63398e-09 0)
(-1.02316 -6.18825e-10 0)
(-1.02316 -1.16721e-09 0)
(-1.02316 1.55184e-09 0)
(-1.02316 -4.21226e-09 0)
(-1.02316 3.75973e-09 0)
(-1.5364 2.94246e-09 0)
(-1.5364 1.82878e-09 0)
(-1.5364 4.70325e-09 0)
(-1.5364 -1.16484e-08 0)
(-1.5364 4.25756e-09 0)
(-1.5364 -1.89242e-08 0)
(-1.5364 3.57692e-09 0)
(-1.5364 -2.01598e-08 0)
(-1.5364 1.47094e-09 0)
(-1.5364 -1.84695e-08 0)
(-1.5364 -1.12442e-09 0)
(-1.5364 -1.4753e-08 0)
(-1.5364 -3.85918e-09 0)
(-1.5364 -9.6831e-09 0)
(-1.5364 -6.2543e-09 0)
(-1.5364 -4.35364e-09 0)
(-1.5364 -7.33574e-09 0)
(-1.5364 -7.21496e-10 0)
(-1.5364 -7.72933e-09 0)
(-1.5364 5.48414e-09 0)
(-1.92298 6.31611e-09 0)
(-1.92298 5.05308e-09 0)
(-1.92298 9.17491e-09 0)
(-1.92298 -1.6831e-08 0)
(-1.92298 8.13585e-09 0)
(-1.92298 -2.72835e-08 0)
(-1.92298 6.92549e-09 0)
(-1.92298 -2.83834e-08 0)
(-1.92298 3.56991e-09 0)
(-1.92298 -2.52615e-08 0)
(-1.92298 -6.27784e-10 0)
(-1.92298 -1.93421e-08 0)
(-1.92298 -5.09726e-09 0)
(-1.92298 -1.16883e-08 0)
(-1.92298 -9.0102e-09 0)
(-1.92298 -4.04184e-09 0)
(-1.92298 -1.06572e-08 0)
(-1.92298 1.19593e-10 0)
(-1.92298 -9.95529e-09 0)
(-1.92298 1.02735e-08 0)
(-2.1829 1.05741e-08 0)
(-2.1829 9.04915e-09 0)
(-2.1829 1.22344e-08 0)
(-2.1829 -2.20224e-08 0)
(-2.1829 8.44809e-09 0)
(-2.1829 -3.52942e-08 0)
(-2.1829 5.7014e-09 0)
(-2.1829 -3.63677e-08 0)
(-2.1829 9.24671e-10 0)
(-2.1829 -3.20664e-08 0)
(-2.1829 -4.49686e-09 0)
(-2.1829 -2.42819e-08 0)
(-2.1829 -9.88149e-09 0)
(-2.1829 -1.44236e-08 0)
(-2.1829 -1.41689e-08 0)
(-2.1829 -4.81346e-09 0)
(-2.1829 -1.50739e-08 0)
(-2.1829 -5.21555e-10 0)
(-2.1829 -1.09926e-08 0)
(-2.1829 1.48452e-08 0)
(-2.31617 1.58727e-08 0)
(-2.31617 1.41659e-08 0)
(-2.31617 1.59156e-08 0)
(-2.31617 -2.61115e-08 0)
(-2.31617 9.49466e-09 0)
(-2.31617 -4.165e-08 0)
(-2.31617 5.30654e-09 0)
(-2.31617 -4.24696e-08 0)
(-2.31617 -8.01192e-10 0)
(-2.31617 -3.6988e-08 0)
(-2.31617 -7.42186e-09 0)
(-2.31617 -2.75189e-08 0)
(-2.31617 -1.37604e-08 0)
(-2.31617 -1.57878e-08 0)
(-2.31617 -1.85134e-08 0)
(-2.31617 -4.64949e-09 0)
(-2.31617 -1.87988e-08 0)
(-2.31617 -7.28086e-10 0)
(-2.31617 -1.05537e-08 0)
(-2.31617 2.01795e-08 0)
(-2.32279 2.17031e-08 0)
(-2.32279 1.97045e-08 0)
(-2.32279 1.94747e-08 0)
(-2.32279 -2.92819e-08 0)
(-2.32279 1.03164e-08 0)
(-2.32279 -4.64517e-08 0)
(-2.32279 4.65407e-09 0)
(-2.32279 -4.68915e-08 0)
(-2.32279 -2.68434e-09 0)
(-2.32279 -4.03432e-08 0)
(-2.32279 -1.0356e-08 0)
(-2.32279 -2.94744e-08 0)
(-2.32279 -1.74731e-08 0)
(-2.32279 -1.62801e-08 0)
(-2.32279 -2.25146e-08 0)
(-2.32279 -4.07273e-09 0)
(-2.32279 -2.20541e-08 0)
(-2.32279 -8.74741e-10 0)
(-2.32279 -8.84445e-09 0)
(-2.32279 2.56539e-08 0)
(-2.20275 2.7524e-08 0)
(-2.20275 2.50165e-08 0)
(-2.20275 2.26248e-08 0)
(-2.20275 -3.15974e-08 0)
(-2.20275 1.08214e-08 0)
(-2.20275 -4.97158e-08 0)
(-2.20275 3.73198e-09 0)
(-2.20275 -4.96846e-08 0)
(-2.20275 -4.6909e-09 0)
(-2.20275 -4.2223e-08 0)
(-2.20275 -1.32292e-08 0)
(-2.20275 -3.0269e-08 0)
(-2.20275 -2.09228e-08 0)
(-2.20275 -1.60375e-08 0)
(-2.20275 -2.60644e-08 0)
(-2.20275 -3.20866e-09 0)
(-2.20275 -2.4761e-08 0)
(-2.20275 -9.73569e-10 0)
(-2.20275 -6.19075e-09 0)
(-2.20275 3.0818e-08 0)
(-1.95606 3.2764e-08 0)
(-1.95606 2.94796e-08 0)
(-1.95606 2.51155e-08 0)
(-1.95606 -3.30874e-08 0)
(-1.95606 1.09354e-08 0)
(-1.95606 -5.14595e-08 0)
(-1.95606 2.5457e-09 0)
(-1.95606 -5.09032e-08 0)
(-1.95606 -6.77091e-09 0)
(-1.95606 -4.27182e-08 0)
(-1.95606 -1.59578e-08 0)
(-1.95606 -3.00222e-08 0)
(-1.95606 -2.40022e-08 0)
(-1.95606 -1.51937e-08 0)
(-1.95606 -2.90497e-08 0)
(-1.95606 -2.18034e-09 0)
(-1.95606 -2.68437e-08 0)
(-1.95606 -1.05165e-09 0)
(-1.95606 -3.02016e-09 0)
(-1.95606 3.51714e-08 0)
(-1.58271 3.68764e-08 0)
(-1.58271 3.25457e-08 0)
(-1.58271 2.67423e-08 0)
(-1.58271 -3.37658e-08 0)
(-1.58271 1.06299e-08 0)
(-1.58271 -5.17101e-08 0)
(-1.58271 1.15197e-09 0)
(-1.58271 -5.06132e-08 0)
(-1.58271 -8.82444e-09 0)
(-1.58271 -4.19282e-08 0)
(-1.58271 -1.84145e-08 0)
(-1.58271 -2.88547e-08 0)
(-1.58271 -2.65721e-08 0)
(-1.58271 -1.38742e-08 0)
(-1.58271 -3.13412e-08 0)
(-1.58271 -1.09196e-09 0)
(-1.58271 -2.82267e-08 0)
(-1.58271 -1.12196e-09 0)
(-1.58271 2.02285e-10 0)
(-1.58271 3.8244e-08 0)
(-1.08271 3.9397e-08 0)
(-1.08271 3.37918e-08 0)
(-1.08271 2.73455e-08 0)
(-1.08271 -3.36437e-08 0)
(-1.08271 9.91312e-09 0)
(-1.08271 -5.05256e-08 0)
(-1.08271 -3.5727e-10 0)
(-1.08271 -4.89096e-08 0)
(-1.08271 -1.07197e-08 0)
(-1.08271 -3.99726e-08 0)
(-1.08271 -2.04469e-08 0)
(-1.08271 -2.68959e-08 0)
(-1.08271 -2.84784e-08 0)
(-1.08271 -1.21995e-08 0)
(-1.08271 -3.28072e-08 0)
(-1.08271 -2.97153e-11 0)
(-1.08271 -2.88447e-08 0)
(-1.08271 -1.17639e-09 0)
(-1.08271 3.04004e-09 0)
(-1.08271 3.96533e-08 0)
(-0.456056 3.99977e-08 0)
(-0.456056 3.29673e-08 0)
(-0.456056 2.6816e-08 0)
(-0.456056 -3.27449e-08 0)
(-0.456056 8.82097e-09 0)
(-0.456056 -4.8009e-08 0)
(-0.456056 -1.87364e-09 0)
(-0.456056 -4.5931e-08 0)
(-0.456056 -1.23159e-08 0)
(-0.456056 -3.70052e-08 0)
(-0.456056 -2.19014e-08 0)
(-0.456056 -2.42961e-08 0)
(-0.456056 -2.9575e-08 0)
(-0.456056 -1.02944e-08 0)
(-0.456056 -3.33338e-08 0)
(-0.456056 9.32945e-10 0)
(-0.456056 -2.86552e-08 0)
(-0.456056 -1.18777e-09 0)
(-0.456056 5.14245e-09 0)
(-0.456056 3.91576e-08 0)
(0.297251 3.8533e-08 0)
(0.297251 3.00411e-08 0)
(0.297252 2.5116e-08 0)
(0.297252 -3.1106e-08 0)
(0.297252 7.41693e-09 0)
(0.297252 -4.43044e-08 0)
(0.297252 -3.28087e-09 0)
(0.297252 -4.1854e-08 0)
(0.297252 -1.34744e-08 0)
(0.297252 -3.32069e-08 0)
(0.297252 -2.26363e-08 0)
(0.297252 -2.12183e-08 0)
(0.297252 -2.97364e-08 0)
(0.297252 -8.28075e-09 0)
(0.297252 -3.28351e-08 0)
(0.297252 1.73879e-09 0)
(0.297252 -2.7641e-08 0)
(0.297252 -1.11551e-09 0)
(0.297252 6.2926e-09 0)
(0.297252 3.66989e-08 0)
(1.17721 3.50718e-08 0)
(1.17721 2.52412e-08 0)
(1.17721 2.23117e-08 0)
(1.17721 -2.87609e-08 0)
(1.17721 5.80408e-09 0)
(1.17721 -3.9574e-08 0)
(1.17721 -4.44709e-09 0)
(1.17721 -3.68671e-08 0)
(1.17721 -1.40526e-08 0)
(1.17721 -2.87603e-08 0)
(1.17721 -2.25155e-08 0)
(1.17721 -1.78158e-08 0)
(1.17721 -2.88534e-08 0)
(1.17721 -6.25998e-09 0)
(1.17721 -3.12489e-08 0)
(1.17721 2.35691e-09 0)
(1.17721 -2.58053e-08 0)
(1.17721 -9.15016e-10 0)
(1.17721 6.43843e-09 0)
(1.17721 3.24298e-08 0)
(2.18383 2.99103e-08 0)
(2.18383 1.90693e-08 0)
(2.18383 1.86e-08 0)
(2.18383 -2.57277e-08 0)
(2.18383 4.12734e-09 0)
(2.18383 -3.39812e-08 0)
(2.18383 -5.22833e-09 0)
(2.18383 -3.11521e-08 0)
(2.18383 -1.39096e-08 0)
(2.18383 -2.38306e-08 0)
(2.18383 -2.14161e-08 0)
(2.18383 -1.42154e-08 0)
(2.18383 -2.68377e-08 0)
(2.18383 -4.3008e-09 0)
(2.18383 -2.85387e-08 0)
(2.18383 2.78689e-09 0)
(2.18383 -2.31586e-08 0)
(2.18383 -5.54825e-10 0)
(2.18383 5.69893e-09 0)
(2.18383 2.67204e-08 0)
(3.3171 2.35126e-08 0)
(3.3171 1.22698e-08 0)
(3.3171 1.42831e-08 0)
(3.3171 -2.20207e-08 0)
(3.3171 2.53676e-09 0)
(3.3171 -2.77083e-08 0)
(3.3171 -5.50154e-09 0)
(3.3171 -2.49112e-08 0)
(3.3171 -1.29318e-08 0)
(3.3171 -1.86002e-08 0)
(3.3171 -1.92435e-08 0)
(3.3171 -1.05562e-08 0)
(3.3171 -2.36319e-08 0)
(3.3171 -2.47849e-09 0)
(3.3171 -2.46945e-08 0)
(3.3171 3.02355e-09 0)
(3.3171 -1.97244e-08 0)
(3.3171 -5.04213e-11 0)
(3.3171 4.34402e-09 0)
(3.3171 2.01374e-08 0)
(4.57702 1.69427e-08 0)
(4.57702 5.91704e-09 0)
(4.57702 1.04556e-08 0)
(4.57702 -1.72359e-08 0)
(4.57702 1.97784e-09 0)
(4.57702 -2.02267e-08 0)
(4.57702 -4.36416e-09 0)
(4.57702 -1.74122e-08 0)
(4.57702 -1.03112e-08 0)
(4.57702 -1.21823e-08 0)
(4.57702 -1.53551e-08 0)
(4.57702 -5.87574e-09 0)
(4.57702 -1.87964e-08 0)
(4.57702 1.45681e-10 0)
(4.57702 -1.94727e-08 0)
(4.57702 3.8496e-09 0)
(4.57702 -1.53422e-08 0)
(4.57702 9.81796e-10 0)
(4.57702 2.90045e-09 0)
(4.57702 1.34641e-08 0)
(5.9636 9.01417e-09 0)
(5.9636 4.74621e-10 0)
(5.9636 4.49494e-09 0)
(5.9636 -1.32503e-08 0)
(5.9636 -1.11154e-09 0)
(5.9636 -1.5035e-08 0)
(5.9636 -5.60504e-09 0)
(5.9636 -1.32221e-08 0)
(5.9636 -9.61546e-09 0)
(5.9636 -9.73668e-09 0)
(5.9636 -1.27732e-08 0)
(5.9636 -5.42395e-09 0)
(5.9636 -1.46411e-08 0)
(5.9636 -1.21478e-09 0)
(5.9636 -1.44916e-08 0)
(5.9636 1.53673e-09 0)
(5.9636 -1.11361e-08 0)
(5.9636 2.38615e-10 0)
(5.9636 1.0153e-09 0)
(5.9636 7.19122e-09 0)
(7.47684 5.74133e-09 0)
(7.47684 -1.69082e-09 0)
(7.47684 5.09056e-09 0)
(7.47684 -5.62497e-09 0)
(7.47684 2.79113e-09 0)
(7.47684 -4.01953e-09 0)
(7.47684 3.4797e-10 0)
(7.47684 -1.39482e-09 0)
(7.47684 -2.15959e-09 0)
(7.47684 1.44084e-09 0)
(7.47684 -4.45772e-09 0)
(7.47684 4.02311e-09 0)
(7.47684 -6.13084e-09 0)
(7.47684 5.75499e-09 0)
(7.47684 -6.53498e-09 0)
(7.47684 5.83217e-09 0)
(7.47684 -4.8725e-09 0)
(7.47684 3.21462e-09 0)
(7.47684 1.33309e-09 0)
(7.47684 3.01332e-09 0)
(9.11673 4.9312e-11 0)
(9.11673 -9.2498e-10 0)
(9.11673 -8.01516e-10 0)
(9.11673 -2.20481e-09 0)
(9.11673 -1.45756e-09 0)
(9.11673 -2.54278e-09 0)
(9.11673 -1.96885e-09 0)
(9.11673 -2.50143e-09 0)
(9.11673 -2.28789e-09 0)
(9.11673 -2.21438e-09 0)
(9.11673 -2.40585e-09 0)
(9.11673 -1.74192e-09 0)
(9.11673 -2.31224e-09 0)
(9.11673 -1.17493e-09 0)
(9.11673 -1.9877e-09 0)
(9.11673 -6.37417e-10 0)
(9.11673 -1.40337e-09 0)
(9.11673 -3.60348e-10 0)
(9.11673 2.61056e-11 0)
(9.11673 5.37863e-10 0)
)
;

boundaryField
{
    top
    {
        type            fixedValue;
        value           uniform (10 0 0);
    }
    bottom
    {
        type            fixedValue;
        value           uniform (0 0 0);
    }
    inlet
    {
        type            zeroGradient;
    }
    outlet
    {
        type            zeroGradient;
    }
    frontAndBack
    {
        type            empty;
    }
}


// ************************************************************************* //
