/*--------------------------------*- C++ -*----------------------------------*\
| =========                 |                                                 |
| \\      /  F ield         | OpenFOAM: The Open Source CFD Toolbox           |
|  \\    /   O peration     | Version:  4.1                                   |
|   \\  /    A nd           | Web:      www.OpenFOAM.org                      |
|    \\/     M anipulation  |                                                 |
\*---------------------------------------------------------------------------*/
FoamFile
{
    version     2.0;
    format      ascii;
    class       surfaceScalarField;
    location    "1.3";
    object      phi;
}
// * * * * * * * * * * * * * * * * * * * * * * * * * * * * * * * * * * * * * //

dimensions      [0 3 -1 0 0 0 0];

internalField   nonuniform List<scalar> 
760
(
3.16622e-05
-9.89265e-12
3.16622e-05
-2.34682e-12
3.16622e-05
-8.51109e-13
3.16622e-05
1.13621e-12
3.16622e-05
-1.59107e-12
3.16622e-05
3.33812e-12
3.16622e-05
-9.36063e-13
3.16622e-05
4.41401e-12
3.16622e-05
9.55536e-13
3.16622e-05
5.14398e-12
3.16622e-05
4.65753e-12
3.16622e-05
5.68297e-12
3.16622e-05
9.79131e-12
3.16622e-05
6.94183e-12
3.16622e-05
1.46386e-11
3.16622e-05
9.39096e-12
3.16622e-05
1.69673e-11
3.16622e-05
1.1844e-11
3.16622e-05
1.02816e-11
8.50724e-12
8.86539e-05
-2.87751e-11
8.86539e-05
-1.46064e-11
8.86539e-05
-4.36313e-12
8.86539e-05
3.10843e-12
8.86539e-05
-3.52895e-12
8.86539e-05
8.9597e-12
8.86539e-05
-1.45552e-12
8.86539e-05
1.24795e-11
8.86539e-05
3.58156e-12
8.86539e-05
1.5694e-11
8.86539e-05
1.30454e-11
8.86539e-05
1.89038e-11
8.86539e-05
2.5948e-11
8.86539e-05
2.36745e-11
8.86539e-05
3.81576e-11
8.86539e-05
3.00112e-11
8.86539e-05
4.30776e-11
8.86539e-05
3.38987e-11
8.86539e-05
1.99037e-11
9.41043e-12
0.000139313
-4.89579e-11
0.000139313
-3.04732e-11
0.000139313
-9.77032e-12
0.000139313
6.01691e-12
0.000139313
-5.95548e-12
0.000139313
1.62899e-11
0.000139313
-1.97302e-12
0.000139313
2.30237e-11
0.000139313
6.95726e-12
0.000139313
2.95716e-11
0.000139313
2.3369e-11
0.000139313
3.64161e-11
0.000139313
4.5488e-11
0.000139313
4.57526e-11
0.000139313
6.63163e-11
0.000139313
5.65899e-11
0.000139313
7.35234e-11
0.000139313
6.12855e-11
0.000139313
2.86566e-11
8.14314e-12
0.000183639
-6.58995e-11
0.000183639
-4.52045e-11
0.000183639
-1.53913e-11
0.000183639
9.31674e-12
0.000183639
-7.92495e-12
0.000183639
2.38879e-11
0.000183639
-1.47116e-12
0.000183639
3.40318e-11
0.000183639
1.20372e-11
0.000183639
4.43855e-11
0.000183639
3.61937e-11
0.000183639
5.57811e-11
0.000183639
6.81795e-11
0.000183639
7.09777e-11
0.000183639
9.80054e-11
0.000183639
8.74206e-11
0.000183639
1.07053e-10
0.000183639
9.27806e-11
0.000183639
3.97151e-11
9.08426e-12
0.000221633
-7.63487e-11
0.000221633
-5.4385e-11
0.000221633
-1.99436e-11
0.000221633
1.27908e-11
0.000221633
-9.57693e-12
0.000221633
3.0761e-11
0.000221633
-6.63742e-13
0.000221633
4.37138e-11
0.000221633
1.73582e-11
0.000221633
5.72278e-11
0.000221633
4.87551e-11
0.000221633
7.26098e-11
0.000221633
8.95795e-11
0.000221633
9.32652e-11
0.000221633
1.27058e-10
0.000221633
1.15061e-10
0.000221633
1.36867e-10
0.000221633
1.20891e-10
0.000221633
5.04829e-11
1.22172e-11
0.000253295
-7.84191e-11
0.000253295
-5.56783e-11
0.000253295
-2.22286e-11
0.000253295
1.62363e-11
0.000253295
-1.04507e-11
0.000253295
3.62607e-11
0.000253295
8.35024e-13
0.000253295
5.1192e-11
0.000253295
2.31607e-11
0.000253295
6.70761e-11
0.000253295
6.10541e-11
0.000253295
8.5828e-11
0.000253295
1.09297e-10
0.000253295
1.11546e-10
0.000253295
1.52712e-10
0.000253295
1.38489e-10
0.000253295
1.62272e-10
0.000253295
1.4453e-10
0.000253295
6.21259e-11
1.93032e-11
0.000278624
-7.16021e-11
0.000278624
-4.81246e-11
0.000278624
-2.16123e-11
0.000278624
1.95894e-11
0.000278624
-1.04428e-11
0.000278624
4.01499e-11
0.000278624
2.95606e-12
0.000278624
5.6157e-11
0.000278624
2.91745e-11
0.000278624
7.35519e-11
0.000278624
7.25195e-11
0.000278624
9.49203e-11
0.000278624
1.26476e-10
0.000278624
1.25058e-10
0.000278624
1.7393e-10
0.000278624
1.56665e-10
0.000278624
1.82403e-10
0.000278624
1.62435e-10
0.000278624
7.46156e-11
3.05486e-11
0.000297621
-5.67185e-11
0.000297621
-3.23988e-11
0.000297621
-1.8033e-11
0.000297621
2.27491e-11
0.000297621
-9.56703e-12
0.000297621
4.24024e-11
0.000297621
5.56648e-12
0.000297621
5.86567e-11
0.000297621
3.51007e-11
0.000297621
7.67845e-11
0.000297621
8.26916e-11
0.000297621
1.00029e-10
0.000297621
1.40597e-10
0.000297621
1.33819e-10
0.000297621
1.90272e-10
0.000297621
1.69399e-10
0.000297621
1.97099e-10
0.000297621
1.74313e-10
0.000297621
8.76827e-11
4.54408e-11
0.000310285
-3.56287e-11
0.000310285
-1.04994e-11
0.000310285
-1.20151e-11
0.000310285
2.55406e-11
0.000310285
-7.97613e-12
0.000310285
4.31133e-11
0.000310285
8.42918e-12
0.000310285
5.89263e-11
0.000310285
4.05467e-11
0.000310285
7.71261e-11
0.000310285
9.10619e-11
0.000310285
1.01524e-10
0.000310285
1.51174e-10
0.000310285
1.38073e-10
0.000310285
2.01427e-10
0.000310285
1.76733e-10
0.000310285
2.0632e-10
0.000310285
1.80263e-10
0.000310285
1.00597e-10
6.2709e-11
0.000316617
-1.0987e-11
0.000316617
1.45715e-11
0.000316617
-4.55208e-12
0.000316617
2.7717e-11
0.000316617
-5.93219e-12
0.000316617
4.24479e-11
0.000316617
1.12357e-11
0.000316617
5.72977e-11
0.000316617
4.50541e-11
0.000316617
7.50238e-11
0.000316617
9.70799e-11
0.000316617
9.98608e-11
0.000316617
1.57713e-10
0.000316617
1.38124e-10
0.000316617
2.07102e-10
0.000316617
1.78768e-10
0.000316617
2.09986e-10
0.000316617
1.80587e-10
0.000316617
1.12191e-10
8.04602e-11
0.000316617
1.41384e-11
0.000316617
3.9293e-11
0.000316617
3.09576e-12
0.000316617
2.89985e-11
0.000316617
-3.75087e-12
0.000316617
4.06011e-11
0.000316617
1.36622e-11
0.000316617
5.41332e-11
0.000316617
4.81782e-11
0.000316617
7.09415e-11
0.000316617
1.00238e-10
0.000316617
9.55013e-11
0.000316617
1.59776e-10
0.000316617
1.34306e-10
0.000316617
2.07051e-10
0.000316617
1.75672e-10
0.000316617
2.08001e-10
0.000316617
1.75739e-10
0.000316617
1.21042e-10
9.64648e-11
0.000310285
3.66313e-11
0.000310285
6.01373e-11
0.000310285
9.65431e-12
0.000310285
2.91402e-11
0.000310285
-1.72028e-12
0.000310285
3.7775e-11
0.000310285
1.5416e-11
0.000310285
4.97818e-11
0.000310285
4.95402e-11
0.000310285
6.53121e-11
0.000310285
1.00126e-10
0.000310285
8.8883e-11
0.000310285
1.57024e-10
0.000310285
1.26964e-10
0.000310285
2.01092e-10
0.000310285
1.67673e-10
0.000310285
2.00271e-10
0.000310285
1.66235e-10
0.000310285
1.25711e-10
1.08431e-10
0.000297621
5.37026e-11
0.000297621
7.40875e-11
0.000297621
1.40911e-11
0.000297621
2.79942e-11
0.000297621
-1.01809e-13
0.000297621
3.41615e-11
0.000297621
1.62694e-11
0.000297621
4.45484e-11
0.000297621
4.88666e-11
0.000297621
5.85059e-11
0.000297621
9.6467e-11
0.000297621
8.03947e-11
0.000297621
1.4924e-10
0.000297621
1.16448e-10
0.000297621
1.89132e-10
0.000297621
1.55063e-10
0.000297621
1.86749e-10
0.000297621
1.52587e-10
0.000297621
1.24762e-10
1.14282e-10
0.000278624
6.32811e-11
0.000278624
7.91374e-11
0.000278624
1.58153e-11
0.000278624
2.55563e-11
0.000278624
9.52174e-13
0.000278624
2.99265e-11
0.000278624
1.60752e-11
0.000278624
3.86633e-11
0.000278624
4.6004e-11
0.000278624
5.079e-11
0.000278624
8.91366e-11
0.000278624
7.0327e-11
0.000278624
1.36355e-10
0.000278624
1.03058e-10
0.000278624
1.71171e-10
0.000278624
1.38138e-10
0.000278624
1.67441e-10
0.000278624
1.3516e-10
0.000278624
1.17108e-10
1.12447e-10
0.000253295
6.4283e-11
0.000253295
7.46321e-11
0.000253295
1.48052e-11
0.000253295
2.198e-11
0.000253295
1.39358e-12
0.000253295
2.52097e-11
0.000253295
1.47867e-11
0.000253295
3.22893e-11
0.000253295
4.09484e-11
0.000253295
4.23517e-11
0.000253295
7.81995e-11
0.000253295
5.89158e-11
0.000253295
1.18495e-10
0.000253295
8.71071e-11
0.000253295
1.47394e-10
0.000253295
1.17279e-10
0.000253295
1.4254e-10
0.000253295
1.14254e-10
0.000253295
1.02179e-10
1.02148e-10
0.000221633
5.69582e-11
0.000221633
6.16026e-11
0.000221633
1.16213e-11
0.000221633
1.7569e-11
0.000221633
1.31568e-12
0.000221633
2.01565e-11
0.000221633
1.25286e-11
0.000221633
2.56069e-11
0.000221633
3.39724e-11
0.000221633
3.34564e-11
0.000221633
6.41378e-11
0.000221633
4.65903e-11
0.000221633
9.63505e-11
0.000221633
6.92727e-11
0.000221633
1.18675e-10
0.000221633
9.33939e-11
0.000221633
1.12992e-10
0.000221633
9.05197e-11
0.000221633
8.07126e-11
8.39035e-11
0.000183639
4.285e-11
0.000183639
4.26192e-11
0.000183639
7.2191e-12
0.000183639
1.26652e-11
0.000183639
7.62052e-13
0.000183639
1.47764e-11
0.000183639
9.30528e-12
0.000183639
1.84619e-11
0.000183639
2.5192e-11
0.000183639
2.37575e-11
0.000183639
4.72243e-11
0.000183639
3.28445e-11
0.000183639
7.02931e-11
0.000183639
4.90297e-11
0.000183639
8.53606e-11
0.000183639
6.61368e-11
0.000183639
7.91056e-11
0.000183639
6.37225e-11
0.000183639
5.37289e-11
5.91374e-11
0.000139313
2.52544e-11
0.000139313
2.22891e-11
0.000139313
3.08415e-12
0.000139313
7.84909e-12
0.000139313
3.60391e-13
0.000139313
9.5974e-12
0.000139313
6.13695e-12
0.000139313
1.19363e-11
0.000139313
1.6427e-11
0.000139313
1.52627e-11
0.000139313
3.04537e-11
0.000139313
2.09961e-11
0.000139313
4.48161e-11
0.000139313
3.12748e-11
0.000139313
5.35714e-11
0.000139313
4.17745e-11
0.000139313
4.79764e-11
0.000139313
3.94995e-11
0.000139313
2.85809e-11
3.34803e-11
8.86539e-05
8.38016e-12
8.86539e-05
5.87477e-12
8.86539e-05
4.19793e-13
8.86539e-05
3.35388e-12
8.86539e-05
3.94512e-14
8.86539e-05
4.43211e-12
8.86539e-05
2.82243e-12
8.86539e-05
5.44407e-12
8.86539e-05
7.5196e-12
8.86539e-05
6.81818e-12
8.86539e-05
1.37408e-11
8.86539e-05
9.2455e-12
8.86539e-05
1.97957e-11
8.86539e-05
1.37624e-11
8.86539e-05
2.2896e-11
8.86539e-05
1.80943e-11
8.86539e-05
1.89729e-11
8.86539e-05
1.629e-11
8.86539e-05
7.57242e-12
1.0232e-11
3.16622e-05
3.16622e-05
3.16622e-05
3.16622e-05
3.16622e-05
3.16622e-05
3.16622e-05
3.16622e-05
3.16622e-05
3.16622e-05
3.16622e-05
3.16622e-05
3.16622e-05
3.16622e-05
3.16622e-05
3.16622e-05
3.16622e-05
3.16622e-05
3.16622e-05
)
;

boundaryField
{
    top
    {
        type            calculated;
        value           uniform 0;
    }
    bottom
    {
        type            calculated;
        value           uniform 0;
    }
    inlet
    {
        type            calculated;
        value           nonuniform List<scalar> 
20
(
-3.16622e-05
-8.86539e-05
-0.000139313
-0.000183639
-0.000221633
-0.000253295
-0.000278624
-0.000297621
-0.000310285
-0.000316617
-0.000316617
-0.000310285
-0.000297621
-0.000278624
-0.000253295
-0.000221633
-0.000183639
-0.000139313
-8.86539e-05
-3.16622e-05
)
;
    }
    outlet
    {
        type            calculated;
        value           nonuniform List<scalar> 
20
(
3.16622e-05
8.86539e-05
0.000139313
0.000183639
0.000221633
0.000253295
0.000278624
0.000297621
0.000310285
0.000316617
0.000316617
0.000310285
0.000297621
0.000278624
0.000253295
0.000221633
0.000183639
0.000139313
8.86539e-05
3.16622e-05
)
;
    }
    frontAndBack
    {
        type            empty;
        value           nonuniform 0();
    }
}


// ************************************************************************* //
