/*--------------------------------*- C++ -*----------------------------------*\
| =========                 |                                                 |
| \\      /  F ield         | OpenFOAM: The Open Source CFD Toolbox           |
|  \\    /   O peration     | Version:  4.1                                   |
|   \\  /    A nd           | Web:      www.OpenFOAM.org                      |
|    \\/     M anipulation  |                                                 |
\*---------------------------------------------------------------------------*/
FoamFile
{
    version     2.0;
    format      ascii;
    class       volVectorField;
    location    "1.3";
    object      U;
}
// * * * * * * * * * * * * * * * * * * * * * * * * * * * * * * * * * * * * * //

dimensions      [0 1 -1 0 0 0 0];

internalField   nonuniform List<vector> 
400
(
(0.633244 -4.54332e-09 0)
(0.633244 -5.53003e-10 0)
(0.633244 -1.89375e-10 0)
(0.633244 5.38933e-10 0)
(0.633244 -7.4315e-10 0)
(0.633244 1.55056e-09 0)
(0.633244 -4.43403e-10 0)
(0.633244 2.03676e-09 0)
(0.633244 4.71967e-10 0)
(0.633244 2.35552e-09 0)
(0.633244 2.26662e-09 0)
(0.633244 2.58733e-09 0)
(0.633244 4.7626e-09 0)
(0.633244 3.17863e-09 0)
(0.633244 7.12908e-09 0)
(0.633244 4.39642e-09 0)
(0.633244 8.34497e-09 0)
(0.633244 5.62741e-09 0)
(0.633244 5.50526e-09 0)
(0.633245 4.81153e-09 0)
(1.77308 -1.85616e-08 0)
(1.77308 -7.17972e-09 0)
(1.77308 -2.13287e-09 0)
(1.77308 2.04266e-09 0)
(1.77308 -2.54703e-09 0)
(1.77308 5.86934e-09 0)
(1.77308 -1.31938e-09 0)
(1.77308 7.99182e-09 0)
(1.77308 1.96434e-09 0)
(1.77308 9.73142e-09 0)
(1.77308 8.28162e-09 0)
(1.77308 1.13061e-08 0)
(1.77308 1.69808e-08 0)
(1.77308 1.39744e-08 0)
(1.77308 2.52118e-08 0)
(1.77308 1.81251e-08 0)
(1.77308 2.88514e-08 0)
(1.77308 2.13294e-08 0)
(1.77308 1.51098e-08 0)
(1.77308 9.7296e-09 0)
(2.78626 -3.87801e-08 0)
(2.78626 -2.20108e-08 0)
(2.78626 -6.73363e-09 0)
(2.78626 4.46825e-09 0)
(2.78626 -4.69779e-09 0)
(2.78626 1.24425e-08 0)
(2.78626 -1.76177e-09 0)
(2.78626 1.74981e-08 0)
(2.78626 5.09681e-09 0)
(2.78626 2.22872e-08 0)
(2.78626 1.78789e-08 0)
(2.78626 2.71807e-08 0)
(2.78626 3.52362e-08 0)
(2.78626 3.40663e-08 0)
(2.78626 5.16433e-08 0)
(2.78626 4.25339e-08 0)
(2.78626 5.78055e-08 0)
(2.78626 4.68506e-08 0)
(2.78626 2.44121e-08 0)
(2.78626 9.19311e-09 0)
(3.67279 -5.85128e-08 0)
(3.67279 -3.85861e-08 0)
(3.67279 -1.26396e-08 0)
(3.67279 7.58772e-09 0)
(3.67279 -6.99142e-09 0)
(3.67279 2.0093e-08 0)
(3.67279 -1.83029e-09 0)
(3.67279 2.85572e-08 0)
(3.67279 9.31802e-09 0)
(3.67279 3.70122e-08 0)
(3.67279 2.95519e-08 0)
(3.67279 4.60867e-08 0)
(3.67279 5.66154e-08 0)
(3.67279 5.82592e-08 0)
(3.67279 8.19973e-08 0)
(3.67279 7.18114e-08 0)
(3.67279 9.02481e-08 0)
(3.67279 7.68691e-08 0)
(3.67279 3.3899e-08 0)
(3.67279 8.05827e-09 0)
(4.43266 -7.29369e-08 0)
(4.43266 -5.14884e-08 0)
(4.43266 -1.81062e-08 0)
(4.43266 1.09917e-08 0)
(4.43266 -8.88003e-09 0)
(4.43266 2.74957e-08 0)
(4.43266 -1.19763e-09 0)
(4.43266 3.91575e-08 0)
(4.43266 1.45727e-08 0)
(4.43266 5.11864e-08 0)
(4.43266 4.24235e-08 0)
(4.43266 6.46296e-08 0)
(4.43266 7.90068e-08 0)
(4.43266 8.25668e-08 0)
(4.43266 1.12885e-07 0)
(4.43266 1.01679e-07 0)
(4.43266 1.22467e-07 0)
(4.43266 1.07363e-07 0)
(4.43266 4.46956e-08 0)
(4.43266 9.63634e-09 0)
(5.06589 -7.94791e-08 0)
(5.06589 -5.71983e-08 0)
(5.06589 -2.17813e-08 0)
(5.06589 1.44573e-08 0)
(5.06589 -1.01794e-08 0)
(5.06589 3.3779e-08 0)
(5.06589 -2.61684e-11 0)
(5.06589 4.78862e-08 0)
(5.06589 2.02135e-08 0)
(5.06589 6.27384e-08 0)
(5.06589 5.50364e-08 0)
(5.06589 7.99375e-08 0)
(5.06589 9.98671e-08 0)
(5.06589 1.03234e-07 0)
(5.06589 1.40651e-07 0)
(5.06589 1.27689e-07 0)
(5.06589 1.50489e-07 0)
(5.06589 1.33787e-07 0)
(5.06589 5.59908e-08 0)
(5.06589 1.46427e-08 0)
(5.57248 -7.70527e-08 0)
(5.57248 -5.40974e-08 0)
(5.57248 -2.27222e-08 0)
(5.57248 1.78689e-08 0)
(5.57248 -1.06354e-08 0)
(5.57248 3.85103e-08 0)
(5.57248 1.78915e-09 0)
(5.57248 5.41489e-08 0)
(5.57248 2.61617e-08 0)
(5.57248 7.09424e-08 0)
(5.57248 6.70008e-08 0)
(5.57248 9.11456e-08 0)
(5.57248 1.18434e-07 0)
(5.57248 1.19214e-07 0)
(5.57248 1.64223e-07 0)
(5.57248 1.48617e-07 0)
(5.57248 1.73356e-07 0)
(5.57248 1.5473e-07 0)
(5.57248 6.81101e-08 0)
(5.57248 2.3839e-08 0)
(5.95241 -6.58728e-08 0)
(5.95241 -4.21192e-08 0)
(5.95241 -2.05634e-08 0)
(5.95241 2.11568e-08 0)
(5.95241 -1.01784e-08 0)
(5.95241 4.15771e-08 0)
(5.95241 4.18845e-09 0)
(5.95241 5.78572e-08 0)
(5.95241 3.21966e-08 0)
(5.95241 7.57551e-08 0)
(5.95241 7.79112e-08 0)
(5.95241 9.82042e-08 0)
(5.95241 1.34181e-07 0)
(5.95241 1.30337e-07 0)
(5.95241 1.83081e-07 0)
(5.95241 1.64101e-07 0)
(5.95241 1.90803e-07 0)
(5.95241 1.69655e-07 0)
(5.95241 8.10342e-08 0)
(5.95241 3.71386e-08 0)
(6.2057 -4.73384e-08 0)
(6.2057 -2.26679e-08 0)
(6.2057 -1.5554e-08 0)
(6.2057 2.41926e-08 0)
(6.2057 -8.90011e-09 0)
(6.2057 4.30353e-08 0)
(6.2057 6.97671e-09 0)
(6.2057 5.91869e-08 0)
(6.2057 3.79622e-08 0)
(6.2057 7.74648e-08 0)
(6.2057 8.72805e-08 0)
(6.2057 1.01427e-07 0)
(6.2057 1.4662e-07 0)
(6.2057 1.36792e-07 0)
(6.2057 1.96887e-07 0)
(6.2057 1.74122e-07 0)
(6.2057 2.02783e-07 0)
(6.2057 1.78513e-07 0)
(6.2057 9.42536e-08 0)
(6.2057 5.36141e-08 0)
(6.33235 -2.37833e-08 0)
(6.33235 1.65182e-09 0)
(6.33235 -8.49791e-09 0)
(6.33235 2.6758e-08 0)
(6.33235 -7.01959e-09 0)
(6.33235 4.30259e-08 0)
(6.33235 9.87163e-09 0)
(6.33235 5.84401e-08 0)
(6.33235 4.30227e-08 0)
(6.33235 7.64958e-08 0)
(6.33235 9.45715e-08 0)
(6.33235 1.01254e-07 0)
(6.33235 1.55262e-07 0)
(6.33235 1.38881e-07 0)
(6.33235 2.0535e-07 0)
(6.33235 1.78776e-07 0)
(6.33235 2.09252e-07 0)
(6.33235 1.81541e-07 0)
(6.33235 1.06796e-07 0)
(6.33234 7.16318e-08 0)
(6.33235 1.84524e-09 0)
(6.33235 2.74518e-08 0)
(6.33235 -5.87303e-10 0)
(6.33235 2.85727e-08 0)
(6.33235 -4.83747e-09 0)
(6.33235 4.17343e-08 0)
(6.33235 1.25478e-08 0)
(6.33235 5.59747e-08 0)
(6.33235 4.69165e-08 0)
(6.33235 7.33169e-08 0)
(6.33235 9.92463e-08 0)
(6.33235 9.81559e-08 0)
(6.33235 1.59635e-07 0)
(6.33235 1.36931e-07 0)
(6.33235 2.08203e-07 0)
(6.33235 1.78203e-07 0)
(6.33235 2.10122e-07 0)
(6.33235 1.79142e-07 0)
(6.33235 1.17345e-07 0)
(6.33234 8.90666e-08 0)
(6.2057 2.63636e-08 0)
(6.2057 5.10716e-08 0)
(6.2057 6.83766e-09 0)
(6.2057 2.93535e-08 0)
(6.2057 -2.66897e-09 0)
(6.2057 3.93629e-08 0)
(6.2057 1.46892e-08 0)
(6.2057 5.21545e-08 0)
(6.2057 4.92229e-08 0)
(6.2057 6.83854e-08 0)
(6.2057 1.00836e-07 0)
(6.2057 9.25899e-08 0)
(6.2057 1.59346e-07 0)
(6.2057 1.31287e-07 0)
(6.2057 2.05227e-07 0)
(6.2057 1.72605e-07 0)
(6.2057 2.0529e-07 0)
(6.2057 1.71831e-07 0)
(6.2057 1.24419e-07 0)
(6.2057 1.03587e-07 0)
(5.95241 4.67311e-08 0)
(5.95241 6.91106e-08 0)
(5.95241 1.25575e-08 0)
(5.95241 2.88857e-08 0)
(5.95241 -7.99818e-10 0)
(5.95241 3.61107e-08 0)
(5.95241 1.60297e-08 0)
(5.95241 4.73115e-08 0)
(5.95241 4.96089e-08 0)
(5.95241 6.21076e-08 0)
(5.95241 9.8991e-08 0)
(5.95241 8.49722e-08 0)
(5.95241 1.54108e-07 0)
(5.95241 1.22295e-07 0)
(5.95241 1.9628e-07 0)
(5.95241 1.62241e-07 0)
(5.95241 1.94674e-07 0)
(5.95241 1.60137e-07 0)
(5.95241 1.26543e-07 0)
(5.95241 1.12939e-07 0)
(5.57248 6.04367e-08 0)
(5.57248 7.89484e-08 0)
(5.57248 1.57151e-08 0)
(5.57248 2.70834e-08 0)
(5.57248 5.56816e-10 0)
(5.57248 3.21579e-08 0)
(5.57248 1.63778e-08 0)
(5.57248 4.17156e-08 0)
(5.57248 4.78557e-08 0)
(5.57248 5.48043e-08 0)
(5.57248 9.35018e-08 0)
(5.57248 7.5644e-08 0)
(5.57248 1.43768e-07 0)
(5.57248 1.10282e-07 0)
(5.57248 1.81298e-07 0)
(5.57248 1.47403e-07 0)
(5.57248 1.78231e-07 0)
(5.57248 1.44509e-07 0)
(5.57248 1.22414e-07 0)
(5.57248 1.15228e-07 0)
(5.06589 6.58402e-08 0)
(5.06589 7.91787e-08 0)
(5.06589 1.59884e-08 0)
(5.06589 2.40227e-08 0)
(5.06589 1.2994e-09 0)
(5.06589 2.76583e-08 0)
(5.06589 1.56353e-08 0)
(5.06589 3.55647e-08 0)
(5.06589 4.388e-08 0)
(5.06589 4.67053e-08 0)
(5.06589 8.43276e-08 0)
(5.06589 6.48728e-08 0)
(5.06589 1.28333e-07 0)
(5.06589 9.55564e-08 0)
(5.06589 1.60348e-07 0)
(5.06589 1.28426e-07 0)
(5.06589 1.5603e-07 0)
(5.06589 1.25273e-07 0)
(5.06589 1.11126e-07 0)
(5.06589 1.09209e-07 0)
(4.43266 6.24473e-08 0)
(4.43266 6.99118e-08 0)
(4.43266 1.36477e-08 0)
(4.43266 1.99351e-08 0)
(4.43266 1.43565e-09 0)
(4.43266 2.27349e-08 0)
(4.43266 1.38084e-08 0)
(4.43266 2.89824e-08 0)
(4.43266 3.7759e-08 0)
(4.43266 3.79466e-08 0)
(4.43266 7.16478e-08 0)
(4.43266 5.28463e-08 0)
(4.43266 1.08066e-07 0)
(4.43266 7.84126e-08 0)
(4.43266 1.33748e-07 0)
(4.43266 1.05712e-07 0)
(4.43266 1.28393e-07 0)
(4.43266 1.02679e-07 0)
(4.43266 9.25118e-08 0)
(4.43266 9.45866e-08 0)
(3.67279 5.10535e-08 0)
(3.67279 5.29062e-08 0)
(3.67279 9.50174e-09 0)
(3.67279 1.51635e-08 0)
(3.67279 1.06839e-09 0)
(3.67279 1.74857e-08 0)
(3.67279 1.10096e-08 0)
(3.67279 2.20332e-08 0)
(3.67279 2.97604e-08 0)
(3.67279 2.85899e-08 0)
(3.67279 5.59452e-08 0)
(3.67279 3.96958e-08 0)
(3.67279 8.36436e-08 0)
(3.67279 5.91665e-08 0)
(3.67279 1.02312e-07 0)
(3.67279 7.98214e-08 0)
(3.67279 9.61875e-08 0)
(3.67279 7.7134e-08 0)
(3.67279 6.75669e-08 0)
(3.67279 7.23285e-08 0)
(2.78626 3.40803e-08 0)
(2.78626 3.19091e-08 0)
(2.78626 4.88422e-09 0)
(2.78626 1.01844e-08 0)
(2.78626 5.64673e-10 0)
(2.78626 1.21812e-08 0)
(2.78626 7.78433e-09 0)
(2.78626 1.51912e-08 0)
(2.78626 2.08992e-08 0)
(2.78626 1.9498e-08 0)
(2.78626 3.89222e-08 0)
(2.78626 2.69047e-08 0)
(2.78626 5.75837e-08 0)
(2.78626 4.01338e-08 0)
(2.78626 6.93646e-08 0)
(2.78626 5.38803e-08 0)
(2.78626 6.3195e-08 0)
(2.78626 5.143e-08 0)
(2.78626 4.05442e-08 0)
(2.78626 4.59536e-08 0)
(1.77308 1.6124e-08 0)
(1.77308 1.27668e-08 0)
(1.77308 1.31163e-09 0)
(1.77308 5.47297e-09 0)
(1.77308 1.3284e-10 0)
(1.77308 6.97038e-09 0)
(1.77308 4.42428e-09 0)
(1.77308 8.57648e-09 0)
(1.77308 1.18556e-08 0)
(1.77308 1.08216e-08 0)
(1.77308 2.18431e-08 0)
(1.77308 1.47726e-08 0)
(1.77308 3.18223e-08 0)
(1.77308 2.20082e-08 0)
(1.77308 3.74163e-08 0)
(1.77308 2.92195e-08 0)
(1.77308 3.22657e-08 0)
(1.77308 2.71376e-08 0)
(1.77308 1.63815e-08 0)
(1.77308 2.05876e-08 0)
(0.633244 3.84064e-09 0)
(0.633244 2.30551e-09 0)
(0.633244 1.29781e-11 0)
(0.633244 1.64101e-09 0)
(0.633244 2.25339e-11 0)
(0.633244 2.24301e-09 0)
(0.633244 1.44716e-09 0)
(0.633244 2.76392e-09 0)
(0.633244 3.8112e-09 0)
(0.633244 3.47911e-09 0)
(0.633244 6.92648e-09 0)
(0.633244 4.73911e-09 0)
(0.633244 9.9421e-09 0)
(0.633244 7.02982e-09 0)
(0.633244 1.1447e-08 0)
(0.633244 9.17813e-09 0)
(0.633244 9.36553e-09 0)
(0.633244 8.217e-09 0)
(0.633244 3.2754e-09 0)
(0.633244 4.69899e-09 0)
)
;

boundaryField
{
    top
    {
        type            fixedValue;
        value           uniform (0 0 0);
    }
    bottom
    {
        type            fixedValue;
        value           uniform (0 0 0);
    }
    inlet
    {
        type            zeroGradient;
    }
    outlet
    {
        type            zeroGradient;
    }
    frontAndBack
    {
        type            empty;
    }
}


// ************************************************************************* //
