/*--------------------------------*- C++ -*----------------------------------*\
| =========                 |                                                 |
| \\      /  F ield         | OpenFOAM: The Open Source CFD Toolbox           |
|  \\    /   O peration     | Version:  4.1                                   |
|   \\  /    A nd           | Web:      www.OpenFOAM.org                      |
|    \\/     M anipulation  |                                                 |
\*---------------------------------------------------------------------------*/
FoamFile
{
    version     2.0;
    format      ascii;
    class       surfaceScalarField;
    location    "0.4";
    object      phi;
}
// * * * * * * * * * * * * * * * * * * * * * * * * * * * * * * * * * * * * * //

dimensions      [0 3 -1 0 0 0 0];

internalField   nonuniform List<scalar> 
760
(
3.11126e-05
4.55041e-10
3.11124e-05
1.93108e-10
3.11126e-05
-2.54838e-10
3.11126e-05
7.21901e-11
3.11126e-05
-7.0411e-11
3.11126e-05
2.47116e-11
3.11126e-05
-3.08665e-11
3.11126e-05
1.35045e-11
3.11127e-05
-1.86945e-11
3.11126e-05
2.48443e-11
3.11127e-05
-8.98301e-12
3.11126e-05
1.4778e-11
3.11126e-05
-8.80641e-12
3.11126e-05
2.06801e-11
3.11126e-05
-2.40682e-11
3.11126e-05
3.90674e-11
3.11127e-05
-6.13486e-11
3.11125e-05
1.40861e-10
3.11123e-05
2.50298e-10
-3.10179e-10
8.70187e-05
1.26084e-09
8.70182e-05
6.81013e-10
8.70186e-05
-6.31651e-10
8.70186e-05
1.16602e-10
8.70187e-05
-1.51109e-10
8.70187e-05
5.14111e-11
8.70187e-05
-5.93025e-11
8.70187e-05
2.49228e-11
8.70187e-05
-3.62147e-11
8.70187e-05
4.89993e-11
8.70187e-05
-1.09388e-11
8.70187e-05
3.59786e-11
8.70187e-05
-2.00355e-11
8.70186e-05
4.77622e-11
8.70187e-05
-5.71473e-11
8.70186e-05
1.04976e-10
8.70187e-05
-1.9895e-10
8.70183e-05
5.32047e-10
8.70179e-05
7.42821e-10
-8.00245e-10
0.000136633
2.07444e-09
0.000136632
1.33663e-09
0.000136632
-8.81107e-10
0.000136632
1.24637e-10
0.000136632
-1.92123e-10
0.000136632
6.27875e-11
0.000136632
-7.1275e-11
0.000136632
2.91179e-11
0.000136632
-4.53022e-11
0.000136632
6.03757e-11
0.000136632
-9.1806e-12
0.000136632
5.06266e-11
0.000136632
-2.86634e-11
0.000136632
6.78227e-11
0.000136632
-8.61144e-11
0.000136632
1.8094e-10
0.000136632
-3.82691e-10
0.000136632
1.07977e-09
0.000136631
1.35477e-09
-1.25905e-09
0.00017998
2.69649e-09
0.000179979
2.02083e-09
0.000179979
-8.77594e-10
0.000179979
1.51268e-10
0.000179979
-1.87928e-10
0.000179979
6.60242e-11
0.000179979
-7.19779e-11
0.000179979
3.00626e-11
0.000179979
-4.83627e-11
0.000179979
6.21593e-11
0.000179979
-8.34267e-12
0.000179979
5.74639e-11
0.000179979
-3.40897e-11
0.000179979
7.9886e-11
0.000179979
-1.10946e-10
0.000179979
2.61196e-10
0.00017998
-5.86046e-10
0.000179979
1.67431e-09
0.000179978
2.02284e-09
-1.61219e-09
0.000217085
2.97595e-09
0.000217085
2.60091e-09
0.000217084
-5.60115e-10
0.000217084
2.336e-10
0.000217084
-1.38063e-10
0.000217084
6.96319e-11
0.000217084
-6.33709e-11
0.000217084
2.93962e-11
0.000217084
-4.66947e-11
0.000217084
5.76974e-11
0.000217084
-7.63903e-12
0.000217084
5.78156e-11
0.000217084
-3.60434e-11
0.000217084
8.42354e-11
0.000217084
-1.30123e-10
0.000217084
3.36291e-10
0.000217084
-7.80415e-10
0.000217084
2.22087e-09
0.000217083
2.67528e-09
-1.808e-09
0.00024797
2.82571e-09
0.000247969
2.96636e-09
0.000247969
6.98839e-11
0.000247969
3.916e-10
0.000247968
-4.50134e-11
0.000247968
7.86806e-11
0.000247968
-4.72326e-11
0.000247968
2.85029e-11
0.000247968
-4.11751e-11
0.000247968
4.95329e-11
0.000247968
-6.46151e-12
0.000247968
5.28889e-11
0.000247968
-3.44193e-11
0.000247968
8.12608e-11
0.000247968
-1.41969e-10
0.000247968
3.96869e-10
0.000247969
-9.37353e-10
0.000247968
2.64589e-09
0.000247968
3.23954e-09
-1.81897e-09
0.000272653
2.23085e-09
0.000272653
3.04683e-09
0.000272652
9.56476e-10
0.000272652
6.24308e-10
0.000272652
8.41119e-11
0.000272652
9.4892e-11
0.000272652
-2.53449e-11
0.000272652
2.80944e-11
0.000272652
-3.26773e-11
0.000272652
3.9388e-11
0.000272652
-4.46261e-12
0.000272652
4.37108e-11
0.000272652
-2.94959e-11
0.000272652
7.15503e-11
0.000272652
-1.44861e-10
0.000272652
4.34969e-10
0.000272652
-1.03378e-09
0.000272651
2.9007e-09
0.000272651
3.65093e-09
-1.64343e-09
0.000291151
1.2484e-09
0.000291151
2.82365e-09
0.00029115
2.00256e-09
0.00029115
9.10088e-10
0.00029115
2.37101e-10
0.00029115
1.16808e-10
0.00029115
2.93484e-13
0.00029115
2.82624e-11
0.00029115
-2.20748e-11
0.00029115
2.83083e-11
0.00029115
-1.58365e-12
0.00029115
3.12558e-11
0.00029115
-2.18183e-11
0.00029115
5.59556e-11
0.00029115
-1.37814e-10
0.00029115
4.45457e-10
0.00029115
-1.0559e-09
0.00029115
2.963e-09
0.000291149
3.86178e-09
-1.30371e-09
0.000303476
-2.72643e-12
0.000303476
2.33169e-09
0.000303475
3.08656e-09
0.000303475
1.2108e-09
0.000303475
3.97381e-10
0.000303475
1.40426e-10
0.000303475
2.74573e-11
0.000303475
2.85965e-11
0.000303475
-1.02321e-11
0.000303475
1.68631e-11
0.000303475
2.00446e-12
0.000303475
1.65101e-11
0.000303475
-1.21353e-11
0.000303475
3.56807e-11
0.000303475
-1.20913e-10
0.000303475
4.27042e-10
0.000303475
-1.00153e-09
0.000303475
2.83573e-09
0.000303475
3.84862e-09
-8.41254e-10
0.000309636
-1.36061e-09
0.000309636
1.65117e-09
0.000309635
4.07993e-09
0.000309635
1.47923e-09
0.000309635
5.46086e-10
0.000309635
1.60279e-10
0.000309635
5.38351e-11
0.000309635
2.83797e-11
0.000309635
2.0188e-12
0.000309635
5.33301e-12
0.000309635
5.9733e-12
0.000309635
5.0042e-13
0.000309635
-1.34358e-12
0.000309635
1.23207e-11
0.000309635
-9.55117e-11
0.000309635
3.82579e-10
0.000309635
-8.8013e-10
0.000309635
2.54389e-09
0.000309635
3.61557e-09
-3.10305e-10
0.000309636
-2.64513e-09
0.000309636
8.91001e-10
0.000309635
4.86342e-09
0.000309635
1.66839e-09
0.000309635
6.6501e-10
0.000309635
1.70798e-10
0.000309635
7.72693e-11
0.000309635
2.68222e-11
0.000309635
1.38974e-11
0.000309635
-6.13627e-12
0.000309635
9.90861e-12
0.000309635
-1.5705e-11
0.000309635
9.56976e-12
0.000309635
-1.21814e-11
0.000309635
-6.41647e-11
0.000309635
3.18518e-10
0.000309635
-7.10781e-10
0.000309635
2.1297e-09
0.000309636
3.1934e-09
2.2907e-10
0.000303475
-3.68525e-09
0.000303476
1.6729e-10
0.000303475
5.34091e-09
0.000303475
1.74086e-09
0.000303475
7.39698e-10
0.000303475
1.67708e-10
0.000303475
9.6004e-11
0.000303475
2.33e-11
0.000303475
2.46835e-11
0.000303475
-1.74031e-11
0.000303475
1.33831e-11
0.000303475
-3.10123e-11
0.000303475
1.95923e-11
0.000303475
-3.56636e-11
0.000303475
-3.02813e-11
0.000303475
2.43649e-10
0.000303475
-5.1843e-10
0.000303475
1.64671e-09
0.000303476
2.63445e-09
7.17715e-10
0.00029115
-4.34465e-09
0.00029115
-4.18505e-10
0.00029115
5.45019e-09
0.00029115
1.67667e-09
0.00029115
7.61885e-10
0.00029115
1.49145e-10
0.00029115
1.08844e-10
0.00029115
1.75651e-11
0.00029115
3.37142e-11
0.00029115
-2.82041e-11
0.00029115
1.60302e-11
0.00029115
-4.43176e-11
0.00029115
2.77665e-11
0.00029115
-5.59334e-11
0.00029115
2.37295e-12
0.00029115
1.67439e-10
0.00029115
-3.29235e-10
0.000291151
1.15302e-09
0.000291151
2.00449e-09
1.10346e-09
0.000272651
-4.54234e-09
0.000272652
-7.97556e-10
0.000272652
5.17057e-09
0.000272652
1.47823e-09
0.000272652
7.30632e-10
0.000272652
1.16287e-10
0.000272652
1.15146e-10
0.000272652
9.90729e-12
0.000272652
4.03722e-11
0.000272652
-3.80132e-11
0.000272652
1.76172e-11
0.000272652
-5.45101e-11
0.000272652
3.32837e-11
0.000272652
-7.09709e-11
0.000272652
3.01963e-11
0.000272652
9.83954e-11
0.000272652
-1.65894e-10
0.000272653
7.04041e-10
0.000272653
1.37315e-09
1.34632e-09
0.000247968
-4.26538e-09
0.000247968
-9.4447e-10
0.000247969
4.5274e-09
0.000247969
1.17162e-09
0.000247969
6.51849e-10
0.000247969
7.34042e-11
0.000247969
1.14623e-10
0.000247969
1.25265e-12
0.000247969
4.40711e-11
0.000247969
-4.58706e-11
0.000247969
1.81172e-11
0.000247969
-6.04433e-11
0.000247969
3.55916e-11
0.000247969
-7.91011e-11
0.000247969
5.0148e-11
0.000247969
4.28249e-11
0.000247969
-4.39012e-11
0.00024797
3.44912e-10
0.00024797
8.04491e-10
1.42257e-09
0.000217083
-3.57262e-09
0.000217083
-8.79437e-10
0.000217084
3.59344e-09
0.000217085
8.04082e-10
0.000217085
5.36381e-10
0.000217085
2.74277e-11
0.000217085
1.06982e-10
0.000217085
-6.78163e-12
0.000217085
4.42486e-11
0.000217085
-5.02045e-11
0.000217085
1.77531e-11
0.000217085
-6.08733e-11
0.000217085
3.45107e-11
0.000217085
-7.91306e-11
0.000217085
5.99275e-11
0.000217085
4.24827e-12
0.000217085
3.05338e-11
0.000217085
1.03187e-10
0.000217086
3.49383e-10
1.32779e-09
0.000179979
-2.58964e-09
0.000179978
-6.62208e-10
0.00017998
2.48701e-09
0.00017998
4.38019e-10
0.00017998
3.97116e-10
0.00017998
-1.26646e-11
0.00017998
9.15167e-11
0.00017998
-1.20169e-11
0.00017998
4.02693e-11
0.00017998
-4.86315e-11
0.00017998
1.70303e-11
0.00017998
-5.4364e-11
0.00017998
3.03098e-11
0.00017998
-7.0415e-11
0.00017998
5.79823e-11
0.00017998
-1.65958e-11
0.00017998
6.02828e-11
0.00017998
-1.72906e-11
0.00017998
4.05669e-11
1.07819e-09
0.000136632
-1.49667e-09
0.000136631
-3.79831e-10
0.000136632
1.36789e-09
0.000136633
1.44259e-10
0.000136633
2.46953e-10
0.000136633
-3.64903e-11
0.000136633
6.63087e-11
0.000136633
-1.17022e-11
0.000136633
3.14756e-11
0.000136633
-3.80905e-11
0.000136633
1.63654e-11
0.000136633
-3.94358e-11
0.000136633
2.3765e-11
0.000136633
-5.29103e-11
0.000136633
4.31423e-11
0.000136633
-2.07826e-11
0.000136633
5.55694e-11
0.000136633
-4.04709e-11
0.000136633
-1.0892e-10
7.10718e-10
8.7018e-05
-5.14022e-10
8.70178e-05
-1.31375e-10
8.70187e-05
4.36131e-10
8.70189e-05
-2.04648e-12
8.7019e-05
9.7103e-11
8.7019e-05
-3.12884e-11
8.7019e-05
2.87439e-11
8.7019e-05
-2.57934e-12
8.70191e-05
1.6204e-11
8.7019e-05
-1.79186e-11
8.7019e-05
1.20701e-11
8.7019e-05
-1.7989e-11
8.7019e-05
1.36397e-11
8.7019e-05
-2.65047e-11
8.7019e-05
1.66329e-11
8.7019e-05
-9.54837e-12
8.7019e-05
2.93727e-11
8.7019e-05
-1.91206e-11
8.7019e-05
-9.95079e-11
2.84168e-10
3.11123e-05
3.11122e-05
3.11127e-05
3.11127e-05
3.11128e-05
3.11127e-05
3.11128e-05
3.11128e-05
3.11128e-05
3.11128e-05
3.11128e-05
3.11128e-05
3.11128e-05
3.11127e-05
3.11128e-05
3.11127e-05
3.11128e-05
3.11127e-05
3.11127e-05
)
;

boundaryField
{
    top
    {
        type            calculated;
        value           uniform 0;
    }
    bottom
    {
        type            calculated;
        value           uniform 0;
    }
    inlet
    {
        type            calculated;
        value           nonuniform List<scalar> 
20
(
-3.1113e-05
-8.70196e-05
-0.000136633
-0.000179981
-0.000217085
-0.00024797
-0.000272652
-0.00029115
-0.000303474
-0.000309634
-0.000309634
-0.000303474
-0.000291149
-0.000272651
-0.000247968
-0.000217084
-0.00017998
-0.000136633
-8.7019e-05
-3.11129e-05
)
;
    }
    outlet
    {
        type            calculated;
        value           nonuniform List<scalar> 
20
(
3.11126e-05
8.70184e-05
0.000136632
0.000179979
0.000217083
0.000247968
0.000272651
0.000291149
0.000303474
0.000309635
0.000309635
0.000303475
0.000291151
0.000272653
0.00024797
0.000217086
0.000179981
0.000136633
8.70194e-05
3.11129e-05
)
;
    }
    frontAndBack
    {
        type            empty;
        value           nonuniform 0();
    }
}


// ************************************************************************* //
