/*--------------------------------*- C++ -*----------------------------------*\
| =========                 |                                                 |
| \\      /  F ield         | OpenFOAM: The Open Source CFD Toolbox           |
|  \\    /   O peration     | Version:  4.1                                   |
|   \\  /    A nd           | Web:      www.OpenFOAM.org                      |
|    \\/     M anipulation  |                                                 |
\*---------------------------------------------------------------------------*/
FoamFile
{
    version     2.0;
    format      ascii;
    class       volVectorField;
    location    "0.4";
    object      U;
}
// * * * * * * * * * * * * * * * * * * * * * * * * * * * * * * * * * * * * * //

dimensions      [0 1 -1 0 0 0 0];

internalField   nonuniform List<vector> 
400
(
(0.622258 2.23331e-07 0)
(0.622248 7.29836e-08 0)
(0.622249 -1.43131e-07 0)
(0.622253 4.02117e-08 0)
(0.622252 -3.31873e-08 0)
(0.622252 1.39998e-08 0)
(0.622253 -1.66492e-08 0)
(0.622252 6.7054e-09 0)
(0.622254 -9.26694e-09 0)
(0.622252 1.46962e-08 0)
(0.622254 -2.45505e-09 0)
(0.622252 8.21044e-09 0)
(0.622254 -4.09306e-09 0)
(0.622251 8.5061e-09 0)
(0.622254 -1.14212e-08 0)
(0.622251 1.87454e-08 0)
(0.622253 -2.45352e-08 0)
(0.622253 5.72597e-08 0)
(0.622246 1.05829e-07 0)
(0.622249 -1.58422e-07 0)
(1.74039 8.22795e-07 0)
(1.74037 3.88877e-07 0)
(1.74037 -4.47831e-07 0)
(1.74037 9.83395e-08 0)
(1.74037 -1.18318e-07 0)
(1.74037 4.15721e-08 0)
(1.74038 -4.56518e-08 0)
(1.74037 1.816e-08 0)
(1.74038 -2.96088e-08 0)
(1.74037 3.82773e-08 0)
(1.74038 -1.02834e-08 0)
(1.74037 2.45447e-08 0)
(1.74038 -1.62116e-08 0)
(1.74037 3.56786e-08 0)
(1.74038 -3.80922e-08 0)
(1.74037 6.66902e-08 0)
(1.74038 -1.18501e-07 0)
(1.74037 2.94136e-07 0)
(1.74036 4.5784e-07 0)
(1.74036 -5.44379e-07 0)
(2.73266 1.68329e-06 0)
(2.73265 9.76904e-07 0)
(2.73264 -8.04033e-07 0)
(2.73265 1.21948e-07 0)
(2.73265 -1.76125e-07 0)
(2.73264 5.86138e-08 0)
(2.73265 -6.83146e-08 0)
(2.73264 2.84933e-08 0)
(2.73265 -4.11121e-08 0)
(2.73264 5.74177e-08 0)
(2.73265 -9.5945e-09 0)
(2.73264 4.50083e-08 0)
(2.73265 -2.39095e-08 0)
(2.73264 5.74932e-08 0)
(2.73265 -7.2414e-08 0)
(2.73264 1.40528e-07 0)
(2.73265 -2.77894e-07 0)
(2.73265 7.82296e-07 0)
(2.73263 1.01588e-06 0)
(2.73263 -1.04205e-06 0)
(3.59961 2.44958e-06 0)
(3.5996 1.68617e-06 0)
(3.59958 -9.50608e-07 0)
(3.59959 1.27645e-07 0)
(3.59959 -2.02282e-07 0)
(3.59958 6.5852e-08 0)
(3.59959 -7.37912e-08 0)
(3.59958 2.96163e-08 0)
(3.59959 -4.8667e-08 0)
(3.59958 6.34089e-08 0)
(3.59959 -8.23397e-09 0)
(3.59958 5.54384e-08 0)
(3.5996 -3.29965e-08 0)
(3.59958 7.57522e-08 0)
(3.5996 -9.87417e-08 0)
(3.59958 2.20516e-07 0)
(3.59959 -4.82579e-07 0)
(3.59959 1.37638e-06 0)
(3.59957 1.6807e-06 0)
(3.59957 -1.46935e-06 0)
(4.3417 2.93661e-06 0)
(4.34171 2.35403e-06 0)
(4.34168 -7.99814e-07 0)
(4.34168 1.74335e-07 0)
(4.34168 -1.75105e-07 0)
(4.34168 6.69859e-08 0)
(4.34169 -6.9842e-08 0)
(4.34167 2.99377e-08 0)
(4.34169 -4.87127e-08 0)
(4.34167 6.12327e-08 0)
(4.34169 -7.99079e-09 0)
(4.34167 5.92057e-08 0)
(4.34169 -3.61295e-08 0)
(4.34167 8.40349e-08 0)
(4.34169 -1.22063e-07 0)
(4.34167 3.01109e-07 0)
(4.34169 -6.89117e-07 0)
(4.34168 1.9702e-06 0)
(4.34167 2.36257e-06 0)
(4.34166 -1.75501e-06 0)
(4.95939 3.01397e-06 0)
(4.95941 2.85164e-06 0)
(4.95937 -3.17308e-07 0)
(4.95937 2.91354e-07 0)
(4.95937 -1.02278e-07 0)
(4.95936 7.21815e-08 0)
(4.95938 -5.7022e-08 0)
(4.95936 2.88736e-08 0)
(4.95938 -4.48738e-08 0)
(4.95936 5.42813e-08 0)
(4.95938 -7.2043e-09 0)
(4.95936 5.66288e-08 0)
(4.95938 -3.61814e-08 0)
(4.95936 8.45219e-08 0)
(4.95938 -1.3807e-07 0)
(4.95936 3.71379e-07 0)
(4.95938 -8.72059e-07 0)
(4.95936 2.47046e-06 0)
(4.95936 2.98936e-06 0)
(4.95935 -1.86027e-06 0)
(5.45304 2.63523e-06 0)
(5.45308 3.08609e-06 0)
(5.45304 4.61653e-07 0)
(5.45304 4.89774e-07 0)
(5.45304 1.13634e-08 0)
(5.45303 8.47446e-08 0)
(5.45304 -3.75546e-08 0)
(5.45302 2.81348e-08 0)
(5.45304 -3.76325e-08 0)
(5.45302 4.47432e-08 0)
(5.45304 -5.69249e-09 0)
(5.45302 4.93342e-08 0)
(5.45305 -3.27662e-08 0)
(5.45302 7.7977e-08 0)
(5.45305 -1.45866e-07 0)
(5.45302 4.22621e-07 0)
(5.45305 -1.00393e-06 0)
(5.45302 2.81805e-06 0)
(5.45303 3.49214e-06 0)
(5.45301 -1.77405e-06 0)
(5.82299 1.82339e-06 0)
(5.82305 3.01162e-06 0)
(5.823 1.4562e-06 0)
(5.823 7.57299e-07 0)
(5.823 1.5618e-07 0)
(5.82298 1.04595e-07 0)
(5.823 -1.32662e-08 0)
(5.82298 2.8061e-08 0)
(5.823 -2.78612e-08 0)
(5.82298 3.39226e-08 0)
(5.823 -3.24916e-09 0)
(5.82298 3.82716e-08 0)
(5.82301 -2.62902e-08 0)
(5.82298 6.50912e-08 0)
(5.82301 -1.43984e-07 0)
(5.82298 4.47906e-07 0)
(5.82301 -1.06556e-06 0)
(5.82297 2.97805e-06 0)
(5.823 3.81267e-06 0)
(5.82298 -1.50772e-06 0)
(6.06948 6.70095e-07 0)
(6.06955 2.63729e-06 0)
(6.0695 2.5526e-06 0)
(6.0695 1.06236e-06 0)
(6.0695 3.17554e-07 0)
(6.06948 1.28696e-07 0)
(6.0695 1.37228e-08 0)
(6.06948 2.84693e-08 0)
(6.0695 -1.64146e-08 0)
(6.06948 2.25656e-08 0)
(6.0695 5.10851e-11 0)
(6.06948 2.44147e-08 0)
(6.06951 -1.7385e-08 0)
(6.06948 4.68208e-08 0)
(6.06951 -1.31871e-07 0)
(6.06947 4.438e-07 0)
(6.06951 -1.04857e-06 0)
(6.06947 2.94155e-06 0)
(6.06951 3.9138e-06 0)
(6.06948 -1.09443e-06 0)
(6.19268 -6.78718e-07 0)
(6.19275 2.02427e-06 0)
(6.19271 3.62181e-06 0)
(6.1927 1.35994e-06 0)
(6.19271 4.77056e-07 0)
(6.19269 1.51976e-07 0)
(6.19271 4.10901e-08 0)
(6.19269 2.87363e-08 0)
(6.19271 -4.15439e-09 0)
(6.19269 1.10382e-08 0)
(6.19271 3.93475e-09 0)
(6.19269 8.76793e-09 0)
(6.19272 -6.89055e-09 0)
(6.19269 2.45559e-08 0)
(6.19272 -1.10219e-07 0)
(6.19268 4.11104e-07 0)
(6.19272 -9.5686e-07 0)
(6.19268 2.72348e-06 0)
(6.19273 3.78557e-06 0)
(6.1927 -5.83633e-07 0)
(6.19268 -2.04524e-06 0)
(6.19275 1.27264e-06 0)
(6.19271 4.53645e-06 0)
(6.19271 1.60036e-06 0)
(6.19271 6.15277e-07 0)
(6.1927 1.68539e-07 0)
(6.19271 6.65284e-08 0)
(6.19269 2.80445e-08 0)
(6.19272 8.1023e-09 0)
(6.19269 -4.82214e-10 0)
(6.19272 8.01291e-09 0)
(6.19269 -7.61664e-09 0)
(6.19272 4.22863e-09 0)
(6.19269 9.01359e-11 0)
(6.19272 -8.10389e-08 0)
(6.19269 3.54733e-07 0)
(6.19272 -8.05495e-07 0)
(6.19268 2.35875e-06 0)
(6.19274 3.4464e-06 0)
(6.1927 -3.40942e-08 0)
(6.06947 -3.24698e-06 0)
(6.06953 5.01073e-07 0)
(6.0695 5.18606e-06 0)
(6.0695 1.73901e-06 0)
(6.06951 7.15089e-07 0)
(6.06949 1.73114e-07 0)
(6.06951 8.80161e-08 0)
(6.06949 2.56282e-08 0)
(6.06951 1.96022e-08 0)
(6.06949 -1.18844e-08 0)
(6.06951 1.1844e-08 0)
(6.06949 -2.36523e-08 0)
(6.06951 1.49507e-08 0)
(6.06948 -2.44774e-08 0)
(6.06952 -4.74376e-08 0)
(6.06948 2.82732e-07 0)
(6.06952 -6.17649e-07 0)
(6.06947 1.89672e-06 0)
(6.06954 2.93977e-06 0)
(6.0695 4.93121e-07 0)
(5.82297 -4.1243e-06 0)
(5.82301 -1.76087e-07 0)
(5.823 5.48945e-06 0)
(5.823 1.74547e-06 0)
(5.82301 7.64621e-07 0)
(5.823 1.62393e-07 0)
(5.82301 1.04045e-07 0)
(5.82299 2.10058e-08 0)
(5.82301 2.96572e-08 0)
(5.82299 -2.29982e-08 0)
(5.82302 1.50058e-08 0)
(5.82299 -3.8236e-08 0)
(5.82302 2.4268e-08 0)
(5.82299 -4.69113e-08 0)
(5.82302 -1.316e-08 0)
(5.82299 2.0471e-07 0)
(5.82302 -4.20164e-07 0)
(5.82298 1.39478e-06 0)
(5.82304 2.32723e-06 0)
(5.82301 9.41129e-07 0)
(5.45302 -4.56451e-06 0)
(5.45304 -6.69852e-07 0)
(5.45303 5.40398e-06 0)
(5.45304 1.61016e-06 0)
(5.45305 7.59236e-07 0)
(5.45304 1.35946e-07 0)
(5.45306 1.13713e-07 0)
(5.45304 1.41806e-08 0)
(5.45306 3.76347e-08 0)
(5.45304 -3.34826e-08 0)
(5.45306 1.71677e-08 0)
(5.45304 -5.02688e-08 0)
(5.45306 3.1274e-08 0)
(5.45303 -6.5066e-08 0)
(5.45306 1.7972e-08 0)
(5.45303 1.30082e-07 0)
(5.45307 -2.3862e-07 0)
(5.45302 9.11328e-07 0)
(5.45308 1.67909e-06 0)
(5.45306 1.26295e-06 0)
(4.95936 -4.51887e-06 0)
(4.95936 -9.31583e-07 0)
(4.95937 4.9314e-06 0)
(4.95938 1.34743e-06 0)
(4.95939 7.01815e-07 0)
(4.95938 9.65791e-08 0)
(4.95939 1.167e-07 0)
(4.95938 5.6608e-09 0)
(4.95939 4.29289e-08 0)
(4.95938 -4.26253e-08 0)
(4.9594 1.82011e-08 0)
(4.95937 -5.86626e-08 0)
(4.9594 3.52656e-08 0)
(4.95937 -7.70194e-08 0)
(4.9594 4.25953e-08 0)
(4.95937 6.64292e-08 0)
(4.9594 -9.29951e-08 0)
(4.95936 4.98386e-07 0)
(4.95941 1.06437e-06 0)
(4.9594 1.42616e-06 0)
(4.34168 -4.00987e-06 0)
(4.34166 -9.59172e-07 0)
(4.34168 4.11993e-06 0)
(4.34169 9.94866e-07 0)
(4.3417 6.01568e-07 0)
(4.34169 4.98808e-08 0)
(4.3417 1.1282e-07 0)
(4.34169 -3.23263e-09 0)
(4.34171 4.50203e-08 0)
(4.34169 -4.93158e-08 0)
(4.34171 1.81768e-08 0)
(4.34169 -6.22523e-08 0)
(4.34171 3.58994e-08 0)
(4.34169 -8.13759e-08 0)
(4.34171 5.80022e-08 0)
(4.34169 1.87968e-08 0)
(4.34171 5.70601e-09 0)
(4.34168 1.94021e-07 0)
(4.34172 5.41941e-07 0)
(4.34171 1.41631e-06 0)
(3.59959 -3.12692e-06 0)
(3.59956 -7.94787e-07 0)
(3.59958 3.06001e-06 0)
(3.5996 6.07344e-07 0)
(3.5996 4.69017e-07 0)
(3.5996 4.71205e-09 0)
(3.59961 1.01952e-07 0)
(3.5996 -1.14234e-08 0)
(3.59961 4.27382e-08 0)
(3.5996 -5.07914e-08 0)
(3.59961 1.80118e-08 0)
(3.59959 -5.93416e-08 0)
(3.59961 3.28688e-08 0)
(3.59959 -7.68313e-08 0)
(3.59961 6.2633e-08 0)
(3.59959 -1.15426e-08 0)
(3.59961 5.47367e-08 0)
(3.59959 1.63356e-08 0)
(3.59961 1.5506e-07 0)
(3.59961 1.23519e-06 0)
(2.73265 -2.02818e-06 0)
(2.73262 -5.1411e-07 0)
(2.73264 1.8997e-06 0)
(2.73265 2.66593e-07 0)
(2.73266 3.24151e-07 0)
(2.73265 -2.99775e-08 0)
(2.73266 7.82599e-08 0)
(2.73265 -1.17238e-08 0)
(2.73266 3.79088e-08 0)
(2.73265 -4.55695e-08 0)
(2.73266 1.60474e-08 0)
(2.73265 -4.94968e-08 0)
(2.73266 2.68254e-08 0)
(2.73265 -6.33206e-08 0)
(2.73266 5.2752e-08 0)
(2.73265 -1.93811e-08 0)
(2.73267 6.62888e-08 0)
(2.73265 -4.84656e-08 0)
(2.73266 -6.84935e-08 0)
(2.73266 9.12838e-07 0)
(1.74038 -9.48418e-07 0)
(1.74035 -2.38718e-07 0)
(1.74037 8.32095e-07 0)
(1.74038 3.08856e-08 0)
(1.74038 1.62816e-07 0)
(1.74038 -3.77524e-08 0)
(1.74038 4.969e-08 0)
(1.74038 -1.05062e-08 0)
(1.74038 2.28743e-08 0)
(1.74038 -2.68306e-08 0)
(1.74038 1.64084e-08 0)
(1.74038 -2.87584e-08 0)
(1.74038 1.86154e-08 0)
(1.74038 -3.99786e-08 0)
(1.74038 3.17279e-08 0)
(1.74038 -2.00946e-08 0)
(1.74039 4.20981e-08 0)
(1.74038 -3.38173e-08 0)
(1.74038 -1.33459e-07 0)
(1.74038 4.89445e-07 0)
(0.622254 -2.3918e-07 0)
(0.622242 -5.05444e-08 0)
(0.622249 2.00654e-07 0)
(0.622254 -1.37742e-08 0)
(0.622254 5.17214e-08 0)
(0.622255 -1.71775e-08 0)
(0.622256 1.2164e-08 0)
(0.622255 -1.42988e-09 0)
(0.622256 9.09879e-09 0)
(0.622254 -9.44232e-09 0)
(0.622256 5.05394e-09 0)
(0.622254 -1.13889e-08 0)
(0.622256 4.54837e-09 0)
(0.622254 -1.33107e-08 0)
(0.622256 1.0393e-08 0)
(0.622253 -2.49759e-09 0)
(0.622257 1.52126e-08 0)
(0.622254 -1.68402e-08 0)
(0.622254 -5.58168e-08 0)
(0.622256 1.50875e-07 0)
)
;

boundaryField
{
    top
    {
        type            fixedValue;
        value           uniform (0 0 0);
    }
    bottom
    {
        type            fixedValue;
        value           uniform (0 0 0);
    }
    inlet
    {
        type            zeroGradient;
    }
    outlet
    {
        type            zeroGradient;
    }
    frontAndBack
    {
        type            empty;
    }
}


// ************************************************************************* //
