/*--------------------------------*- C++ -*----------------------------------*\
| =========                 |                                                 |
| \\      /  F ield         | OpenFOAM: The Open Source CFD Toolbox           |
|  \\    /   O peration     | Version:  4.1                                   |
|   \\  /    A nd           | Web:      www.OpenFOAM.org                      |
|    \\/     M anipulation  |                                                 |
\*---------------------------------------------------------------------------*/
FoamFile
{
    version     2.0;
    format      ascii;
    class       surfaceScalarField;
    location    "3.7";
    object      phi;
}
// * * * * * * * * * * * * * * * * * * * * * * * * * * * * * * * * * * * * * //

dimensions      [0 3 -1 0 0 0 0];

internalField   nonuniform List<scalar> 
760
(
-1.91641e-05
-5.0916e-14
-1.91641e-05
8.28957e-13
-1.91641e-05
8.24384e-13
-1.91641e-05
1.85374e-12
-1.91641e-05
1.67323e-12
-1.91641e-05
2.94759e-12
-1.91641e-05
2.24615e-12
-1.91641e-05
3.66464e-12
-1.91641e-05
2.55293e-12
-1.91641e-05
4.02521e-12
-1.91641e-05
2.5757e-12
-1.91641e-05
3.97947e-12
-1.91641e-05
2.41865e-12
-1.91641e-05
3.57189e-12
-1.91641e-05
1.96518e-12
-1.91641e-05
2.93675e-12
-1.91641e-05
1.65557e-12
-1.91641e-05
1.68983e-12
-1.91641e-05
9.06935e-13
1.32864e-12
-5.11594e-05
4.7024e-13
-5.11594e-05
2.77551e-12
-5.11594e-05
2.36155e-12
-5.11594e-05
5.22328e-12
-5.11594e-05
4.50019e-12
-5.11594e-05
7.74802e-12
-5.11594e-05
5.92338e-12
-5.11594e-05
9.3352e-12
-5.11594e-05
6.71675e-12
-5.11594e-05
9.96304e-12
-5.11594e-05
6.80475e-12
-5.11594e-05
9.61263e-12
-5.11594e-05
6.40335e-12
-5.11594e-05
8.37707e-12
-5.11594e-05
5.26994e-12
-5.11594e-05
6.71515e-12
-5.11594e-05
4.28e-12
-5.11594e-05
3.59002e-12
-5.11594e-05
2.52795e-12
2.82097e-12
-7.68219e-05
1.45569e-12
-7.68219e-05
5.4121e-12
-7.68219e-05
4.44384e-12
-7.68219e-05
9.49133e-12
-7.68219e-05
8.13298e-12
-7.68219e-05
1.36116e-11
-7.68219e-05
1.05631e-11
-7.68219e-05
1.61402e-11
-7.68219e-05
1.19106e-11
-7.68219e-05
1.69929e-11
-7.68219e-05
1.20311e-11
-7.68219e-05
1.62076e-11
-7.68219e-05
1.1269e-11
-7.68219e-05
1.39341e-11
-7.68219e-05
9.27106e-12
-7.68219e-05
1.10046e-11
-7.68219e-05
7.37699e-12
-7.68219e-05
5.67491e-12
-7.68219e-05
4.37605e-12
4.54945e-12
-9.61516e-05
2.78137e-12
-9.61516e-05
8.19902e-12
-9.61516e-05
6.98702e-12
-9.61516e-05
1.3791e-11
-9.61516e-05
1.24372e-11
-9.61516e-05
1.93445e-11
-9.61516e-05
1.60258e-11
-9.61516e-05
2.26967e-11
-9.61516e-05
1.79814e-11
-9.61516e-05
2.36975e-11
-9.61516e-05
1.80958e-11
-9.61516e-05
2.24546e-11
-9.61516e-05
1.68375e-11
-9.61516e-05
1.9175e-11
-9.61516e-05
1.37911e-11
-9.61516e-05
1.503e-11
-9.61516e-05
1.07333e-11
-9.61516e-05
7.6521e-12
-9.61516e-05
6.23219e-12
6.23548e-12
-0.000109148
4.21501e-12
-0.000109148
1.09011e-11
-0.000109148
9.66158e-12
-0.000109148
1.78779e-11
-0.000109148
1.6888e-11
-0.000109148
2.46981e-11
-0.000109148
2.16638e-11
-0.000109148
2.87586e-11
-0.000109148
2.42277e-11
-0.000109148
2.98564e-11
-0.000109148
2.43163e-11
-0.000109148
2.81643e-11
-0.000109148
2.25129e-11
-0.000109148
2.39562e-11
-0.000109148
1.83679e-11
-0.000109148
1.86731e-11
-0.000109148
1.40875e-11
-0.000109148
9.46215e-12
-0.000109148
7.96575e-12
7.78315e-12
-0.000115812
5.6075e-12
-0.000115812
1.32926e-11
-0.000115812
1.22078e-11
-0.000115812
2.14257e-11
-0.000115812
2.10423e-11
-0.000115812
2.92578e-11
-0.000115812
2.6913e-11
-0.000115812
3.38621e-11
-0.000115813
3.00258e-11
-0.000115812
3.49981e-11
-0.000115813
3.00781e-11
-0.000115812
3.28937e-11
-0.000115813
2.77451e-11
-0.000115812
2.78983e-11
-0.000115813
2.25699e-11
-0.000115813
2.16303e-11
-0.000115813
1.71418e-11
-0.000115813
1.09432e-11
-0.000115813
9.44306e-12
8.99309e-12
-0.000116144
6.87156e-12
-0.000116144
1.52356e-11
-0.000116144
1.44642e-11
-0.000116144
2.42505e-11
-0.000116144
2.4609e-11
-0.000116144
3.28038e-11
-0.000116144
3.13878e-11
-0.000116144
3.77715e-11
-0.000116144
3.4938e-11
-0.000116144
3.88904e-11
-0.000116144
3.49403e-11
-0.000116144
3.64304e-11
-0.000116144
3.21315e-11
-0.000116144
3.08206e-11
-0.000116144
2.60748e-11
-0.000116144
2.37589e-11
-0.000116144
1.9662e-11
-0.000116144
1.20224e-11
-0.000116144
1.05729e-11
9.74028e-12
-0.000110142
7.97888e-12
-0.000110142
1.66711e-11
-0.000110142
1.63691e-11
-0.000110142
2.62933e-11
-0.000110142
2.74629e-11
-0.000110142
3.52759e-11
-0.000110142
3.4906e-11
-0.000110142
4.04314e-11
-0.000110142
3.87483e-11
-0.000110142
4.14832e-11
-0.000110142
3.86787e-11
-0.000110142
3.87327e-11
-0.000110142
3.54615e-11
-0.000110142
3.26852e-11
-0.000110142
2.87156e-11
-0.000110142
2.50314e-11
-0.000110142
2.15073e-11
-0.000110142
1.26884e-11
-0.000110142
1.13262e-11
9.95863e-12
-9.78078e-05
8.92017e-12
-9.78078e-05
1.75713e-11
-9.78078e-05
1.78789e-11
-9.78078e-05
2.75333e-11
-9.78078e-05
2.95303e-11
-9.78078e-05
3.66618e-11
-9.78078e-05
3.73583e-11
-9.78078e-05
4.18415e-11
-9.78078e-05
4.13264e-11
-9.78078e-05
4.27831e-11
-9.78078e-05
4.11564e-11
-9.78078e-05
3.98145e-11
-9.78078e-05
3.76058e-11
-9.78078e-05
3.35024e-11
-9.78078e-05
3.03893e-11
-9.78078e-05
2.5468e-11
-9.78078e-05
2.25809e-11
-9.78078e-05
1.29473e-11
-9.78078e-05
1.1704e-11
9.64395e-12
-7.91406e-05
9.68853e-12
-7.91406e-05
1.79289e-11
-7.91406e-05
1.89515e-11
-7.91406e-05
2.79699e-11
-7.91406e-05
3.07675e-11
-7.91406e-05
3.69772e-11
-7.91406e-05
3.86869e-11
-7.91406e-05
4.20326e-11
-7.91406e-05
4.261e-11
-7.91406e-05
4.28297e-11
-7.91406e-05
4.23109e-11
-7.91406e-05
3.97228e-11
-7.91406e-05
3.85089e-11
-7.91406e-05
3.33128e-11
-7.91406e-05
3.10536e-11
-7.91406e-05
2.5122e-11
-7.91406e-05
2.28363e-11
-7.91406e-05
1.28137e-11
-7.91406e-05
1.17337e-11
8.85145e-12
-5.41406e-05
1.02639e-11
-5.41406e-05
1.77474e-11
-5.41406e-05
1.95321e-11
-5.41406e-05
2.76061e-11
-5.41406e-05
3.11353e-11
-5.41406e-05
3.62434e-11
-5.41406e-05
3.88565e-11
-5.41406e-05
4.10413e-11
-5.41406e-05
4.25739e-11
-5.41406e-05
4.16694e-11
-5.41406e-05
4.21242e-11
-5.41406e-05
3.85126e-11
-5.41406e-05
3.8164e-11
-5.41406e-05
3.21672e-11
-5.41406e-05
3.07064e-11
-5.41406e-05
2.4061e-11
-5.41406e-05
2.22722e-11
-5.41406e-05
1.23025e-11
-5.41406e-05
1.14518e-11
7.68393e-12
-2.28078e-05
1.06056e-11
-2.28078e-05
1.70396e-11
-2.28078e-05
1.95555e-11
-2.28078e-05
2.64476e-11
-2.28078e-05
3.05936e-11
-2.28078e-05
3.44856e-11
-2.28078e-05
3.78463e-11
-2.28078e-05
3.89065e-11
-2.28078e-05
4.12197e-11
-2.28078e-05
3.93521e-11
-2.28078e-05
4.06127e-11
-2.28078e-05
3.62419e-11
-2.28078e-05
3.6603e-11
-2.28078e-05
3.01231e-11
-2.28078e-05
2.93772e-11
-2.28078e-05
2.23584e-11
-2.28078e-05
2.0931e-11
-2.28078e-05
1.14298e-11
-2.28078e-05
1.08896e-11
6.27378e-12
1.48578e-05
1.06509e-11
1.48578e-05
1.58282e-11
1.48578e-05
1.89546e-11
1.48578e-05
2.4508e-11
1.48578e-05
2.91051e-11
1.48578e-05
3.17383e-11
1.48578e-05
3.56514e-11
1.48578e-05
3.56745e-11
1.48578e-05
3.85736e-11
1.48578e-05
3.59355e-11
1.48578e-05
3.78227e-11
1.48578e-05
3.2975e-11
1.48578e-05
3.38901e-11
1.48578e-05
2.72473e-11
1.48578e-05
2.71221e-11
1.48578e-05
2.00877e-11
1.48578e-05
1.88946e-11
1.48578e-05
1.02193e-11
1.48578e-05
1.00631e-11
4.76207e-12
5.88562e-05
1.03229e-11
5.88562e-05
1.41513e-11
5.88562e-05
1.76805e-11
5.88562e-05
2.18286e-11
5.88562e-05
2.66555e-11
5.88562e-05
2.80672e-11
5.88562e-05
3.23019e-11
5.88562e-05
3.1424e-11
5.88562e-05
3.47018e-11
5.88562e-05
3.15106e-11
5.88562e-05
3.38423e-11
5.88562e-05
2.88042e-11
5.88562e-05
3.01288e-11
5.88562e-05
2.3634e-11
5.88562e-05
2.40289e-11
5.88562e-05
1.73305e-11
5.88562e-05
1.62831e-11
5.88562e-05
8.71538e-12
5.88562e-05
8.97366e-12
3.28117e-12
0.000109187
9.54653e-12
0.000109187
1.20606e-11
0.000109187
1.57135e-11
0.000109187
1.84804e-11
0.000109187
2.32647e-11
0.000109187
2.35719e-11
0.000109187
2.78692e-11
0.000109187
2.62701e-11
0.000109187
2.97119e-11
0.000109187
2.62037e-11
0.000109187
2.87996e-11
0.000109187
2.38521e-11
0.000109187
2.54553e-11
0.000109188
1.94044e-11
0.000109187
2.02129e-11
0.000109188
1.41729e-11
0.000109187
1.32408e-11
0.000109188
6.98579e-12
0.000109188
7.61286e-12
1.93917e-12
0.000165852
8.28042e-12
0.000165852
9.65361e-12
0.000165852
1.31217e-11
0.000165852
1.46406e-11
0.000165852
1.90746e-11
0.000165852
1.84938e-11
0.000165852
2.25682e-11
0.000165852
2.0493e-11
0.000165852
2.38599e-11
0.000165852
2.03111e-11
0.000165852
2.2965e-11
0.000165852
1.83973e-11
0.000165852
2.01287e-11
0.000165852
1.48129e-11
0.000165852
1.58894e-11
0.000165852
1.0788e-11
0.000165852
9.98021e-12
0.000165852
5.16779e-12
0.000165852
6.00557e-12
8.34186e-13
0.000228848
6.59536e-12
0.000228848
7.08233e-12
0.000228848
1.01092e-11
0.000228848
1.05818e-11
0.000228848
1.44157e-11
0.000228848
1.31888e-11
0.000228848
1.68272e-11
0.000228848
1.45003e-11
0.000228848
1.76173e-11
0.000228848
1.42564e-11
0.000228848
1.68084e-11
0.000228848
1.28361e-11
0.000228848
1.45724e-11
0.000228848
1.02095e-11
0.000228848
1.14027e-11
0.000228848
7.41387e-12
0.000228848
6.77085e-12
0.000228848
3.45117e-12
0.000228848
4.22799e-12
4.0362e-14
0.000298178
4.46062e-12
0.000298178
4.42926e-12
0.000298178
6.70409e-12
0.000298178
6.50439e-12
0.000298178
9.35543e-12
0.000298178
7.98203e-12
0.000298178
1.07495e-11
0.000298178
8.70098e-12
0.000298178
1.11107e-11
0.000298178
8.48975e-12
0.000298178
1.04693e-11
0.000298178
7.6068e-12
0.000298178
8.93268e-12
0.000298178
5.99024e-12
0.000298178
6.88072e-12
0.000298178
4.34358e-12
0.000298178
3.78403e-12
0.000298178
2.00606e-12
0.000298178
2.37189e-12
-3.13589e-13
0.000373841
2.26313e-12
0.000373841
1.90469e-12
0.000373841
3.31029e-12
0.000373841
2.69625e-12
0.000373841
4.44419e-12
0.000373841
3.20793e-12
0.000373841
4.96243e-12
0.000373841
3.45246e-12
0.000373841
4.9834e-12
0.000373841
3.35197e-12
0.000373841
4.54985e-12
0.000373841
3.00995e-12
0.000373841
3.7167e-12
0.000373841
2.38224e-12
0.000373841
2.71601e-12
0.000373841
1.73746e-12
0.000373841
1.21846e-12
0.000373841
8.96972e-13
0.000373841
6.10292e-13
-2.56909e-13
0.000455836
0.000455836
0.000455836
0.000455836
0.000455836
0.000455836
0.000455836
0.000455836
0.000455836
0.000455836
0.000455836
0.000455836
0.000455836
0.000455836
0.000455836
0.000455836
0.000455836
0.000455836
0.000455836
)
;

boundaryField
{
    top
    {
        type            calculated;
        value           uniform 0;
    }
    bottom
    {
        type            calculated;
        value           uniform 0;
    }
    inlet
    {
        type            calculated;
        value           nonuniform List<scalar> 
20
(
1.91641e-05
5.11594e-05
7.68219e-05
9.61516e-05
0.000109148
0.000115812
0.000116144
0.000110142
9.78078e-05
7.91406e-05
5.41406e-05
2.28078e-05
-1.48578e-05
-5.88562e-05
-0.000109187
-0.000165852
-0.000228848
-0.000298178
-0.000373841
-0.000455836
)
;
    }
    outlet
    {
        type            calculated;
        value           nonuniform List<scalar> 
20
(
-1.91641e-05
-5.11594e-05
-7.68219e-05
-9.61516e-05
-0.000109148
-0.000115813
-0.000116144
-0.000110142
-9.78078e-05
-7.91406e-05
-5.41406e-05
-2.28078e-05
1.48578e-05
5.88563e-05
0.000109188
0.000165852
0.000228848
0.000298178
0.000373841
0.000455836
)
;
    }
    frontAndBack
    {
        type            empty;
        value           nonuniform 0();
    }
}


// ************************************************************************* //
