/*--------------------------------*- C++ -*----------------------------------*\
| =========                 |                                                 |
| \\      /  F ield         | OpenFOAM: The Open Source CFD Toolbox           |
|  \\    /   O peration     | Version:  4.1                                   |
|   \\  /    A nd           | Web:      www.OpenFOAM.org                      |
|    \\/     M anipulation  |                                                 |
\*---------------------------------------------------------------------------*/
FoamFile
{
    version     2.0;
    format      ascii;
    class       volVectorField;
    location    "3.7";
    object      U;
}
// * * * * * * * * * * * * * * * * * * * * * * * * * * * * * * * * * * * * * //

dimensions      [0 1 -1 0 0 0 0];

internalField   nonuniform List<vector> 
400
(
(-0.383281 -1.79744e-10 0)
(-0.383281 5.25854e-10 0)
(-0.383281 1.15501e-10 0)
(-0.383281 1.16145e-09 0)
(-0.383281 3.08266e-10 0)
(-0.383281 1.8763e-09 0)
(-0.383281 4.19736e-10 0)
(-0.383281 2.33613e-09 0)
(-0.383281 4.82134e-10 0)
(-0.383281 2.5482e-09 0)
(-0.383281 4.81647e-10 0)
(-0.383281 2.49151e-09 0)
(-0.383281 4.90464e-10 0)
(-0.383281 2.20477e-09 0)
(-0.383281 3.98399e-10 0)
(-0.383281 1.74976e-09 0)
(-0.383281 5.2395e-10 0)
(-0.383281 9.04768e-10 0)
(-0.383281 2.92934e-10 0)
(-0.383281 7.33681e-10 0)
(-1.02319 4.79791e-10 0)
(-1.02319 1.97946e-09 0)
(-1.02319 2.32214e-09 0)
(-1.02319 3.87364e-09 0)
(-1.02319 4.15507e-09 0)
(-1.02319 5.71943e-09 0)
(-1.02319 5.37947e-09 0)
(-1.02319 6.88035e-09 0)
(-1.02319 6.01416e-09 0)
(-1.02319 7.31649e-09 0)
(-1.02319 6.02783e-09 0)
(-1.02319 7.05007e-09 0)
(-1.02319 5.56684e-09 0)
(-1.02319 6.15715e-09 0)
(-1.02319 4.52329e-09 0)
(-1.02319 4.93466e-09 0)
(-1.02319 3.4603e-09 0)
(-1.02319 2.81458e-09 0)
(-1.02319 1.91573e-09 0)
(-1.02319 1.85693e-09 0)
(-1.53644 8.56369e-10 0)
(-1.53644 4.2241e-09 0)
(-1.53644 3.3514e-09 0)
(-1.53644 7.71016e-09 0)
(-1.53644 6.23963e-09 0)
(-1.53644 1.12646e-08 0)
(-1.53644 8.15973e-09 0)
(-1.53644 1.34675e-08 0)
(-1.53644 9.20036e-09 0)
(-1.53644 1.42871e-08 0)
(-1.53644 9.28111e-09 0)
(-1.53644 1.37074e-08 0)
(-1.53644 8.70116e-09 0)
(-1.53644 1.1869e-08 0)
(-1.53644 7.09778e-09 0)
(-1.53644 9.40553e-09 0)
(-1.53644 5.816e-09 0)
(-1.53644 4.91049e-09 0)
(-1.53644 3.37817e-09 0)
(-1.53644 3.9268e-09 0)
(-1.92303 2.16125e-09 0)
(-1.92303 6.80216e-09 0)
(-1.92303 5.79851e-09 0)
(-1.92303 1.1593e-08 0)
(-1.92303 1.04138e-08 0)
(-1.92303 1.63551e-08 0)
(-1.92303 1.34757e-08 0)
(-1.92303 1.92412e-08 0)
(-1.92303 1.51383e-08 0)
(-1.92303 2.01285e-08 0)
(-1.92303 1.52531e-08 0)
(-1.92303 1.90996e-08 0)
(-1.92303 1.42063e-08 0)
(-1.92303 1.63304e-08 0)
(-1.92303 1.15998e-08 0)
(-1.92303 1.28248e-08 0)
(-1.92303 9.08046e-09 0)
(-1.92303 6.55629e-09 0)
(-1.92303 5.3047e-09 0)
(-1.92303 5.23324e-09 0)
(-2.18297 3.48028e-09 0)
(-2.18297 9.50142e-09 0)
(-2.18297 8.24582e-09 0)
(-2.18297 1.57353e-08 0)
(-2.18297 1.45526e-08 0)
(-2.18297 2.18796e-08 0)
(-2.18297 1.87161e-08 0)
(-2.18297 2.55623e-08 0)
(-2.18297 2.0969e-08 0)
(-2.18297 2.66025e-08 0)
(-2.18297 2.10764e-08 0)
(-2.18297 2.51429e-08 0)
(-2.18297 1.95587e-08 0)
(-2.18297 2.142e-08 0)
(-2.18297 1.59724e-08 0)
(-2.18297 1.6741e-08 0)
(-2.18297 1.23357e-08 0)
(-2.18297 8.49133e-09 0)
(-2.18297 7.07751e-09 0)
(-2.18297 6.97046e-09 0)
(-2.31625 4.891e-09 0)
(-2.31625 1.20479e-08 0)
(-2.31625 1.08219e-08 0)
(-2.31625 1.95387e-08 0)
(-2.31625 1.8816e-08 0)
(-2.31625 2.68175e-08 0)
(-2.31625 2.41147e-08 0)
(-2.31625 3.11254e-08 0)
(-2.31625 2.69512e-08 0)
(-2.31625 3.22327e-08 0)
(-2.31625 2.70369e-08 0)
(-2.31625 3.03442e-08 0)
(-2.31625 2.49968e-08 0)
(-2.31625 2.57655e-08 0)
(-2.31625 2.03777e-08 0)
(-2.31625 2.00327e-08 0)
(-2.31625 1.55506e-08 0)
(-2.31625 1.01264e-08 0)
(-2.31625 8.70249e-09 0)
(-2.31625 8.36461e-09 0)
(-2.32287 6.21042e-09 0)
(-2.32287 1.42068e-08 0)
(-2.32287 1.31808e-08 0)
(-2.32287 2.2695e-08 0)
(-2.32287 2.26241e-08 0)
(-2.32287 3.08317e-08 0)
(-2.32287 2.89209e-08 0)
(-2.32287 3.55897e-08 0)
(-2.32288 3.22505e-08 0)
(-2.32287 3.67082e-08 0)
(-2.32288 3.2298e-08 0)
(-2.32287 3.444e-08 0)
(-2.32288 2.97647e-08 0)
(-2.32287 2.91667e-08 0)
(-2.32288 2.41994e-08 0)
(-2.32288 2.25552e-08 0)
(-2.32288 1.83237e-08 0)
(-2.32288 1.13869e-08 0)
(-2.32288 1.00018e-08 0)
(-2.32288 9.35679e-09 0)
(-2.20284 7.4003e-09 0)
(-2.20284 1.59091e-08 0)
(-2.20284 1.52642e-08 0)
(-2.20284 2.51437e-08 0)
(-2.20284 2.58454e-08 0)
(-2.20284 3.38617e-08 0)
(-2.20284 3.29348e-08 0)
(-2.20284 3.88987e-08 0)
(-2.20284 3.66341e-08 0)
(-2.20284 3.99759e-08 0)
(-2.20284 3.66228e-08 0)
(-2.20284 3.73831e-08 0)
(-2.20284 3.36477e-08 0)
(-2.20284 3.15797e-08 0)
(-2.20284 2.7293e-08 0)
(-2.20284 2.42716e-08 0)
(-2.20284 2.05257e-08 0)
(-2.20284 1.22641e-08 0)
(-2.20284 1.09581e-08 0)
(-2.20284 9.85097e-09 0)
(-1.95616 8.42293e-09 0)
(-1.95616 1.70831e-08 0)
(-1.95616 1.69668e-08 0)
(-1.95616 2.67864e-08 0)
(-1.95616 2.82984e-08 0)
(-1.95616 3.5794e-08 0)
(-1.95616 3.59111e-08 0)
(-1.95616 4.09376e-08 0)
(-1.95616 3.98195e-08 0)
(-1.95616 4.19267e-08 0)
(-1.95616 3.97229e-08 0)
(-1.95616 3.90791e-08 0)
(-1.95616 3.6379e-08 0)
(-1.95616 3.29236e-08 0)
(-1.95616 2.94457e-08 0)
(-1.95616 2.51287e-08 0)
(-1.95616 2.19865e-08 0)
(-1.95616 1.27227e-08 0)
(-1.95616 1.15246e-08 0)
(-1.95616 9.80735e-09 0)
(-1.58281 9.27579e-09 0)
(-1.58281 1.77169e-08 0)
(-1.58281 1.82597e-08 0)
(-1.58281 2.76277e-08 0)
(-1.58281 2.99477e-08 0)
(-1.58281 3.66499e-08 0)
(-1.58281 3.77957e-08 0)
(-1.58281 4.17439e-08 0)
(-1.58281 4.1743e-08 0)
(-1.58281 4.26057e-08 0)
(-1.58281 4.15308e-08 0)
(-1.58281 3.9579e-08 0)
(-1.58281 3.78954e-08 0)
(-1.58281 3.32409e-08 0)
(-1.58281 3.06077e-08 0)
(-1.58281 2.51757e-08 0)
(-1.58281 2.26496e-08 0)
(-1.58281 1.27817e-08 0)
(-1.58281 1.17253e-08 0)
(-1.58281 9.25287e-09 0)
(-1.08281 9.94726e-09 0)
(-1.08281 1.78091e-08 0)
(-1.08281 1.90947e-08 0)
(-1.08281 2.76695e-08 0)
(-1.08281 3.07528e-08 0)
(-1.08281 3.64489e-08 0)
(-1.08281 3.85432e-08 0)
(-1.08281 4.13522e-08 0)
(-1.08281 4.23619e-08 0)
(-1.08281 4.2057e-08 0)
(-1.08281 4.20075e-08 0)
(-1.08281 3.89346e-08 0)
(-1.08281 3.81665e-08 0)
(-1.08281 3.25779e-08 0)
(-1.08281 3.07573e-08 0)
(-1.08281 2.44738e-08 0)
(-1.08281 2.24909e-08 0)
(-1.08281 1.24562e-08 0)
(-1.08281 1.15934e-08 0)
(-1.08281 8.26766e-09 0)
(-0.456156 1.04059e-08 0)
(-0.456156 1.73681e-08 0)
(-0.456156 1.94108e-08 0)
(-0.456156 2.69164e-08 0)
(-0.456156 3.06739e-08 0)
(-0.456156 3.52143e-08 0)
(-0.456156 3.8126e-08 0)
(-0.456156 3.98006e-08 0)
(-0.456156 4.16653e-08 0)
(-0.456156 4.0329e-08 0)
(-0.456156 4.11531e-08 0)
(-0.456156 3.72029e-08 0)
(-0.456156 3.72059e-08 0)
(-0.456156 3.09891e-08 0)
(-0.456156 2.99095e-08 0)
(-0.456156 2.30941e-08 0)
(-0.456156 2.15316e-08 0)
(-0.456156 1.17618e-08 0)
(-0.456156 1.11641e-08 0)
(-0.456156 6.97112e-09 0)
(0.297156 1.05987e-08 0)
(0.297156 1.64117e-08 0)
(0.297156 1.91408e-08 0)
(0.297156 2.53784e-08 0)
(0.297156 2.9672e-08 0)
(0.297156 3.29765e-08 0)
(0.297156 3.65315e-08 0)
(0.297156 3.71323e-08 0)
(0.297156 3.96679e-08 0)
(0.297156 3.74763e-08 0)
(0.297156 3.90001e-08 0)
(0.297156 3.44458e-08 0)
(0.297156 3.50631e-08 0)
(0.297156 2.85376e-08 0)
(0.297156 2.81082e-08 0)
(0.297156 2.11111e-08 0)
(0.297156 1.98347e-08 0)
(0.297156 1.07188e-08 0)
(0.297156 1.0462e-08 0)
(0.297156 5.50121e-09 0)
(1.17712 1.04595e-08 0)
(1.17712 1.49613e-08 0)
(1.17712 1.82121e-08 0)
(1.17712 2.30606e-08 0)
(1.17712 2.77005e-08 0)
(1.17712 2.97565e-08 0)
(1.17712 3.37476e-08 0)
(1.17712 3.33772e-08 0)
(1.17712 3.63895e-08 0)
(1.17712 3.35381e-08 0)
(1.17712 3.55903e-08 0)
(1.17712 3.07076e-08 0)
(1.17712 3.1799e-08 0)
(1.17712 2.52742e-08 0)
(1.17712 2.54074e-08 0)
(1.17712 1.85806e-08 0)
(1.17712 1.74874e-08 0)
(1.17713 9.34955e-09 0)
(1.17712 9.48941e-09 0)
(1.17713 3.99047e-09 0)
(2.18375 9.92002e-09 0)
(2.18375 1.30878e-08 0)
(2.18375 1.66319e-08 0)
(2.18375 2.00855e-08 0)
(2.18375 2.48297e-08 0)
(2.18375 2.57211e-08 0)
(2.18375 2.99098e-08 0)
(2.18375 2.87285e-08 0)
(2.18375 3.20109e-08 0)
(2.18375 2.8729e-08 0)
(2.18375 3.11253e-08 0)
(2.18375 2.61988e-08 0)
(2.18375 2.76194e-08 0)
(2.18375 2.13975e-08 0)
(2.18375 2.19789e-08 0)
(2.18375 1.56547e-08 0)
(2.18375 1.46753e-08 0)
(2.18375 7.75296e-09 0)
(2.18375 8.26848e-09 0)
(2.18375 2.57798e-09 0)
(3.31703 8.90346e-09 0)
(3.31703 1.08154e-08 0)
(3.31703 1.43673e-08 0)
(3.31703 1.64921e-08 0)
(3.31703 2.10546e-08 0)
(3.31703 2.09133e-08 0)
(3.31703 2.50573e-08 0)
(3.31703 2.32249e-08 0)
(3.31703 2.6601e-08 0)
(3.31703 2.31038e-08 0)
(3.31703 2.5694e-08 0)
(3.31703 2.09869e-08 0)
(3.31703 2.2621e-08 0)
(3.31703 1.69874e-08 0)
(3.31703 1.79077e-08 0)
(3.31703 1.23817e-08 0)
(3.31703 1.15154e-08 0)
(3.31703 5.97877e-09 0)
(3.31703 6.77391e-09 0)
(3.31703 1.34228e-09 0)
(4.57697 7.25288e-09 0)
(4.57697 8.30348e-09 0)
(4.57697 1.14345e-08 0)
(4.57697 1.26278e-08 0)
(4.57697 1.64688e-08 0)
(4.57697 1.59022e-08 0)
(4.57697 1.93658e-08 0)
(4.57697 1.75628e-08 0)
(4.57697 2.03924e-08 0)
(4.57697 1.73874e-08 0)
(4.57697 1.9561e-08 0)
(4.57697 1.57513e-08 0)
(4.57697 1.70845e-08 0)
(4.57697 1.2639e-08 0)
(4.57697 1.34408e-08 0)
(4.57697 9.1988e-09 0)
(4.57697 8.31105e-09 0)
(4.57697 4.27919e-09 0)
(4.57697 5.09816e-09 0)
(4.57697 4.70076e-10 0)
(5.96356 5.90692e-09 0)
(5.96356 5.84137e-09 0)
(5.96356 8.90577e-09 0)
(5.96356 8.65834e-09 0)
(5.96356 1.25938e-08 0)
(5.96356 1.0632e-08 0)
(5.96356 1.46184e-08 0)
(5.96356 1.15734e-08 0)
(5.96356 1.52148e-08 0)
(5.96356 1.13029e-08 0)
(5.96356 1.44302e-08 0)
(5.96356 1.01526e-08 0)
(5.96356 1.23888e-08 0)
(5.96356 8.02274e-09 0)
(5.96356 9.62859e-09 0)
(5.96356 5.79853e-09 0)
(5.96356 5.41544e-09 0)
(5.96356 2.7558e-09 0)
(5.96356 3.34495e-09 0)
(5.96356 -3.14444e-10 0)
(7.47681 3.0441e-09 0)
(7.47681 3.26208e-09 0)
(7.47681 5.0274e-09 0)
(7.47681 5.09319e-09 0)
(7.47681 7.03826e-09 0)
(7.47681 6.43784e-09 0)
(7.47681 8.07505e-09 0)
(7.47681 7.13623e-09 0)
(7.47681 8.32579e-09 0)
(7.47681 7.0849e-09 0)
(7.47681 7.816e-09 0)
(7.47681 6.44798e-09 0)
(7.47681 6.65642e-09 0)
(7.47681 5.20503e-09 0)
(7.47681 5.07746e-09 0)
(7.47681 3.84893e-09 0)
(7.47681 2.80819e-09 0)
(7.47681 1.90908e-09 0)
(7.47681 1.62875e-09 0)
(7.47681 1.10701e-11 0)
(9.11672 1.21489e-09 0)
(9.11672 7.89569e-10 0)
(9.11672 1.71345e-09 0)
(9.11672 1.02545e-09 0)
(9.11672 2.40098e-09 0)
(9.11672 1.07014e-09 0)
(9.11672 2.7554e-09 0)
(9.11672 1.06405e-09 0)
(9.11672 2.81758e-09 0)
(9.11672 9.52536e-10 0)
(9.11672 2.6213e-09 0)
(9.11672 8.04203e-10 0)
(9.11672 2.16336e-09 0)
(9.11672 5.82146e-10 0)
(9.11672 1.64154e-09 0)
(9.11672 3.82742e-10 0)
(9.11672 6.63763e-10 0)
(9.11672 3.10164e-10 0)
(9.11672 3.48654e-10 0)
(9.11672 -3.25924e-10 0)
)
;

boundaryField
{
    top
    {
        type            fixedValue;
        value           uniform (10 0 0);
    }
    bottom
    {
        type            fixedValue;
        value           uniform (0 0 0);
    }
    inlet
    {
        type            zeroGradient;
    }
    outlet
    {
        type            zeroGradient;
    }
    frontAndBack
    {
        type            empty;
    }
}


// ************************************************************************* //
