/*--------------------------------*- C++ -*----------------------------------*\
| =========                 |                                                 |
| \\      /  F ield         | OpenFOAM: The Open Source CFD Toolbox           |
|  \\    /   O peration     | Version:  4.1                                   |
|   \\  /    A nd           | Web:      www.OpenFOAM.org                      |
|    \\/     M anipulation  |                                                 |
\*---------------------------------------------------------------------------*/
FoamFile
{
    version     2.0;
    format      ascii;
    class       volScalarField;
    location    "4.9";
    object      p;
}
// * * * * * * * * * * * * * * * * * * * * * * * * * * * * * * * * * * * * * //

dimensions      [0 2 -2 0 0 0 0];

internalField   nonuniform List<scalar> 
400
(
3.37949e-13
3.7804e-13
3.22293e-13
3.42811e-13
3.03969e-13
3.182e-13
2.87414e-13
2.95351e-13
2.69856e-13
2.67329e-13
2.46272e-13
2.36342e-13
2.3217e-13
2.2062e-13
2.1617e-13
1.93641e-13
1.86693e-13
1.63003e-13
1.66916e-13
1.53733e-13
3.36736e-13
3.76795e-13
3.22191e-13
3.4279e-13
3.0397e-13
3.18178e-13
2.87438e-13
2.95357e-13
2.69845e-13
2.67316e-13
2.46304e-13
2.36364e-13
2.32158e-13
2.20589e-13
2.16152e-13
1.9365e-13
1.86674e-13
1.63009e-13
1.66082e-13
1.5285e-13
3.36041e-13
3.75906e-13
3.22071e-13
3.42788e-13
3.03954e-13
3.18168e-13
2.87454e-13
2.9537e-13
2.69829e-13
2.67311e-13
2.46327e-13
2.36376e-13
2.32153e-13
2.20563e-13
2.16142e-13
1.93661e-13
1.86655e-13
1.62996e-13
1.65424e-13
1.52239e-13
3.35825e-13
3.75492e-13
3.21957e-13
3.42781e-13
3.03941e-13
3.18153e-13
2.87475e-13
2.95391e-13
2.69809e-13
2.67307e-13
2.46347e-13
2.36375e-13
2.32157e-13
2.20546e-13
2.1614e-13
1.93681e-13
1.86631e-13
1.62971e-13
1.65042e-13
1.51927e-13
3.35901e-13
3.75414e-13
3.2184e-13
3.42758e-13
3.03933e-13
3.18136e-13
2.87499e-13
2.95413e-13
2.69809e-13
2.67296e-13
2.46349e-13
2.36366e-13
2.32156e-13
2.20539e-13
2.16151e-13
1.93703e-13
1.86592e-13
1.62938e-13
1.649e-13
1.51825e-13
3.36152e-13
3.75577e-13
3.21727e-13
3.42713e-13
3.03939e-13
3.1812e-13
2.87527e-13
2.95425e-13
2.69816e-13
2.6729e-13
2.46359e-13
2.36349e-13
2.3215e-13
2.20547e-13
2.16168e-13
1.93719e-13
1.86568e-13
1.62894e-13
1.6493e-13
1.51872e-13
3.36554e-13
3.75901e-13
3.21621e-13
3.42668e-13
3.03938e-13
3.18103e-13
2.87558e-13
2.95433e-13
2.69813e-13
2.67317e-13
2.46356e-13
2.36299e-13
2.32157e-13
2.20559e-13
2.16206e-13
1.93721e-13
1.86531e-13
1.62857e-13
1.6511e-13
1.52059e-13
3.37e-13
3.76304e-13
3.21517e-13
3.42606e-13
3.03934e-13
3.18099e-13
2.87587e-13
2.95448e-13
2.69783e-13
2.67342e-13
2.46392e-13
2.3622e-13
2.32147e-13
2.20597e-13
2.16252e-13
1.93694e-13
1.8649e-13
1.62857e-13
1.65414e-13
1.52346e-13
3.37442e-13
3.76746e-13
3.21434e-13
3.42536e-13
3.03903e-13
3.18088e-13
2.87614e-13
2.95492e-13
2.6974e-13
2.6737e-13
2.46449e-13
2.36131e-13
2.32121e-13
2.20639e-13
2.16304e-13
1.93666e-13
1.86456e-13
1.62864e-13
1.65788e-13
1.52683e-13
3.37814e-13
3.77169e-13
3.21355e-13
3.42451e-13
3.039e-13
3.18062e-13
2.87639e-13
2.95561e-13
2.69713e-13
2.67382e-13
2.46496e-13
2.3605e-13
2.3208e-13
2.20682e-13
2.16379e-13
1.93652e-13
1.86398e-13
1.6287e-13
1.66187e-13
1.53053e-13
3.38052e-13
3.77502e-13
3.21255e-13
3.42376e-13
3.0391e-13
3.18026e-13
2.87687e-13
2.95595e-13
2.69678e-13
2.6742e-13
2.46568e-13
2.3597e-13
2.32009e-13
2.20713e-13
2.16464e-13
1.93626e-13
1.86353e-13
1.62867e-13
1.6659e-13
1.53408e-13
3.38173e-13
3.77693e-13
3.21176e-13
3.42271e-13
3.03901e-13
3.17971e-13
2.87748e-13
2.95661e-13
2.69639e-13
2.67451e-13
2.46645e-13
2.35881e-13
2.31949e-13
2.20727e-13
2.16534e-13
1.93633e-13
1.86294e-13
1.6286e-13
1.669e-13
1.53681e-13
3.38094e-13
3.77745e-13
3.21104e-13
3.42172e-13
3.03894e-13
3.17894e-13
2.87797e-13
2.95756e-13
2.69625e-13
2.6745e-13
2.46716e-13
2.35808e-13
2.3192e-13
2.20706e-13
2.16593e-13
1.93646e-13
1.86239e-13
1.6285e-13
1.67104e-13
1.53823e-13
3.37849e-13
3.77631e-13
3.20999e-13
3.42088e-13
3.0388e-13
3.17817e-13
2.87875e-13
2.95813e-13
2.69576e-13
2.67448e-13
2.4676e-13
2.35759e-13
2.31934e-13
2.20704e-13
2.16618e-13
1.93651e-13
1.86207e-13
1.62862e-13
1.67186e-13
1.53849e-13
3.37402e-13
3.77405e-13
3.20899e-13
3.41976e-13
3.03882e-13
3.17708e-13
2.87946e-13
2.95856e-13
2.69581e-13
2.67402e-13
2.46768e-13
2.35764e-13
2.31956e-13
2.20711e-13
2.16578e-13
1.93623e-13
1.86259e-13
1.62837e-13
1.67104e-13
1.53761e-13
3.36853e-13
3.77028e-13
3.20779e-13
3.41842e-13
3.03912e-13
3.17651e-13
2.87981e-13
2.95881e-13
2.69621e-13
2.67354e-13
2.46762e-13
2.35785e-13
2.31958e-13
2.20712e-13
2.16484e-13
1.93636e-13
1.86307e-13
1.62798e-13
1.66884e-13
1.53523e-13
3.36199e-13
3.76562e-13
3.20703e-13
3.41715e-13
3.03924e-13
3.1757e-13
2.88033e-13
2.95922e-13
2.69637e-13
2.67264e-13
2.46752e-13
2.35844e-13
2.31966e-13
2.20733e-13
2.16425e-13
1.93586e-13
1.86388e-13
1.62729e-13
1.6657e-13
1.53134e-13
3.35538e-13
3.76096e-13
3.20619e-13
3.41651e-13
3.03974e-13
3.17464e-13
2.88089e-13
2.95972e-13
2.69654e-13
2.6718e-13
2.46768e-13
2.35864e-13
2.31968e-13
2.20749e-13
2.16334e-13
1.93566e-13
1.86469e-13
1.62703e-13
1.66176e-13
1.52625e-13
3.35069e-13
3.75768e-13
3.20525e-13
3.4162e-13
3.04015e-13
3.17372e-13
2.88088e-13
2.96044e-13
2.6968e-13
2.6711e-13
2.46781e-13
2.35924e-13
2.31983e-13
2.20727e-13
2.16258e-13
1.93585e-13
1.86514e-13
1.62654e-13
1.6574e-13
1.52096e-13
3.34941e-13
3.75608e-13
3.20446e-13
3.41617e-13
3.04003e-13
3.17324e-13
2.88165e-13
2.96051e-13
2.69651e-13
2.67113e-13
2.468e-13
2.35939e-13
2.32008e-13
2.20702e-13
2.1622e-13
1.93578e-13
1.86519e-13
1.62669e-13
1.6531e-13
1.51691e-13
)
;

boundaryField
{
    top
    {
        type            zeroGradient;
    }
    bottom
    {
        type            zeroGradient;
    }
    inlet
    {
        type            fixedValue;
        value           uniform 0;
    }
    outlet
    {
        type            fixedValue;
        value           uniform 0;
    }
    frontAndBack
    {
        type            empty;
    }
}


// ************************************************************************* //
