/*--------------------------------*- C++ -*----------------------------------*\
| =========                 |                                                 |
| \\      /  F ield         | OpenFOAM: The Open Source CFD Toolbox           |
|  \\    /   O peration     | Version:  4.1                                   |
|   \\  /    A nd           | Web:      www.OpenFOAM.org                      |
|    \\/     M anipulation  |                                                 |
\*---------------------------------------------------------------------------*/
FoamFile
{
    version     2.0;
    format      ascii;
    class       surfaceScalarField;
    location    "4.9";
    object      phi;
}
// * * * * * * * * * * * * * * * * * * * * * * * * * * * * * * * * * * * * * //

dimensions      [0 3 -1 0 0 0 0];

internalField   nonuniform List<scalar> 
760
(
1.25e-06
-5.22957e-19
1.25e-06
-3.60504e-19
1.25e-06
1.99958e-21
1.25e-06
-2.20171e-20
1.25e-06
1.59633e-20
1.25e-06
-1.7537e-20
1.25e-06
1.69863e-20
1.25e-06
-1.06525e-20
1.25e-06
4.59139e-21
1.25e-06
-9.3613e-21
1.25e-06
1.01092e-20
1.25e-06
8.61802e-21
1.25e-06
-4.96065e-21
1.25e-06
-4.03215e-21
1.25e-06
-1.17418e-20
1.25e-06
6.61565e-21
1.25e-06
-8.51183e-21
1.25e-06
1.32324e-20
1.25e-06
-2.18704e-19
-3.19826e-19
3.75e-06
-1.57939e-18
3.75e-06
-1.26107e-18
3.75e-06
-3.52148e-20
3.75e-06
-5.09009e-20
3.75e-06
3.30861e-20
3.75e-06
-4.3122e-20
3.75e-06
4.18347e-20
3.75e-06
-2.05569e-20
3.75e-06
3.6778e-21
3.75e-06
-2.55847e-20
3.75e-06
3.42711e-20
3.75e-06
2.83441e-20
3.75e-06
-1.4841e-20
3.75e-06
-2.07591e-20
3.75e-06
-3.2991e-20
3.75e-06
1.58863e-20
3.75e-06
-2.29568e-20
3.75e-06
3.42836e-20
3.75e-06
-8.02573e-19
-1.03214e-18
6.25e-06
-2.85708e-18
6.25e-06
-2.48739e-18
6.25e-06
-1.15043e-19
6.25e-06
-7.00608e-20
6.25e-06
3.9891e-20
6.25e-06
-6.61822e-20
6.25e-06
6.61041e-20
6.25e-06
-2.61059e-20
6.25e-06
-4.82752e-21
6.25e-06
-4.38901e-20
6.25e-06
6.5447e-20
6.25e-06
5.54732e-20
6.25e-06
-2.63644e-20
6.25e-06
-4.64751e-20
6.25e-06
-5.94847e-20
6.25e-06
2.58153e-20
6.25e-06
-4.09004e-20
6.25e-06
5.6239e-20
6.25e-06
-1.64435e-18
-1.97262e-18
8.75e-06
-4.16299e-18
8.75e-06
-3.8297e-18
8.75e-06
-2.21426e-19
8.75e-06
-7.91967e-20
8.75e-06
3.91423e-20
8.75e-06
-8.88859e-20
8.75e-06
9.12722e-20
8.75e-06
-2.42877e-20
8.75e-06
-2.69662e-20
8.75e-06
-6.42072e-20
8.75e-06
1.06472e-19
8.75e-06
8.61332e-20
8.75e-06
-3.48384e-20
8.75e-06
-7.92727e-20
8.75e-06
-9.00261e-20
8.75e-06
3.93319e-20
8.75e-06
-5.93707e-20
8.75e-06
7.72613e-20
8.75e-06
-2.62827e-18
-3.01917e-18
1.125e-05
-5.32486e-18
1.125e-05
-5.10469e-18
1.125e-05
-3.46022e-19
1.125e-05
-7.59416e-20
1.125e-05
2.98447e-20
1.125e-05
-1.10523e-19
1.125e-05
1.16081e-19
1.125e-05
-1.27032e-20
1.125e-05
-5.4559e-20
1.125e-05
-8.84599e-20
1.125e-05
1.44021e-19
1.125e-05
1.18098e-19
1.125e-05
-3.91504e-20
1.125e-05
-1.15281e-19
1.125e-05
-1.19657e-19
1.125e-05
5.40093e-20
1.125e-05
-8.34736e-20
1.125e-05
9.71864e-20
1.125e-05
-3.62479e-18
-4.04859e-18
1.375e-05
-6.22863e-18
1.375e-05
-6.16085e-18
1.375e-05
-4.70363e-19
1.375e-05
-6.6676e-20
1.375e-05
1.84242e-20
1.375e-05
-1.27459e-19
1.375e-05
1.39076e-19
1.375e-05
1.33011e-21
1.375e-05
-8.46736e-20
1.375e-05
-1.18121e-19
1.375e-05
1.86394e-19
1.375e-05
1.52037e-19
1.375e-05
-4.31297e-20
1.375e-05
-1.47054e-19
1.375e-05
-1.51183e-19
1.375e-05
6.55469e-20
1.375e-05
-9.65735e-20
1.375e-05
1.09751e-19
1.375e-05
-4.53489e-18
-4.96237e-18
1.625e-05
-6.76956e-18
1.625e-05
-6.89114e-18
1.625e-05
-5.78224e-19
1.625e-05
-4.44895e-20
1.625e-05
2.71138e-21
1.625e-05
-1.41031e-19
1.625e-05
1.58633e-19
1.625e-05
1.54019e-20
1.625e-05
-1.13121e-19
1.625e-05
-1.36418e-19
1.625e-05
2.12612e-19
1.625e-05
1.79028e-19
1.625e-05
-3.5567e-20
1.625e-05
-1.78333e-19
1.625e-05
-1.7603e-19
1.625e-05
7.48646e-20
1.625e-05
-1.02459e-19
1.625e-05
1.11737e-19
1.625e-05
-5.26815e-18
-5.66868e-18
1.875e-05
-6.91674e-18
1.875e-05
-7.23902e-18
1.875e-05
-6.62981e-19
1.875e-05
-1.75438e-20
1.875e-05
-9.93181e-21
1.875e-05
-1.43491e-19
1.875e-05
1.7253e-19
1.875e-05
2.43322e-20
1.875e-05
-1.45203e-19
1.875e-05
-1.49879e-19
1.875e-05
2.38736e-19
1.875e-05
1.94909e-19
1.875e-05
-2.54553e-20
1.875e-05
-1.97117e-19
1.875e-05
-1.97723e-19
1.875e-05
7.07186e-20
1.875e-05
-1.01709e-19
1.875e-05
1.18076e-19
1.875e-05
-5.75703e-18
-6.10434e-18
2.125e-05
-6.66528e-18
2.125e-05
-7.18272e-18
2.125e-05
-7.07638e-19
2.125e-05
1.47401e-20
2.125e-05
-3.53826e-20
2.125e-05
-1.35093e-19
2.125e-05
1.79816e-19
2.125e-05
2.87875e-20
2.125e-05
-1.79561e-19
2.125e-05
-1.53667e-19
2.125e-05
2.61745e-19
2.125e-05
1.97062e-19
2.125e-05
-1.21475e-20
2.125e-05
-2.0818e-19
2.125e-05
-2.16073e-19
2.125e-05
6.06579e-20
2.125e-05
-8.94334e-20
2.125e-05
1.23688e-19
2.125e-05
-5.96115e-18
-6.24294e-18
2.375e-05
-6.05058e-18
2.375e-05
-6.73884e-18
2.375e-05
-7.08152e-19
2.375e-05
4.46771e-20
2.375e-05
-5.77521e-20
2.375e-05
-1.18839e-19
2.375e-05
1.73531e-19
2.375e-05
4.38132e-20
2.375e-05
-1.99783e-19
2.375e-05
-1.64173e-19
2.375e-05
2.6684e-19
2.375e-05
1.92252e-19
2.375e-05
4.51453e-21
2.375e-05
-2.11711e-19
2.375e-05
-2.24143e-19
2.375e-05
5.47034e-20
2.375e-05
-8.12945e-20
2.375e-05
1.30731e-19
2.375e-05
-5.87802e-18
-6.06909e-18
2.625e-05
-5.15899e-18
2.625e-05
-5.97232e-18
2.625e-05
-6.79995e-19
2.625e-05
8.011e-20
2.625e-05
-7.06198e-20
2.625e-05
-9.28767e-20
2.625e-05
1.65187e-19
2.625e-05
4.08269e-20
2.625e-05
-2.14955e-19
2.625e-05
-1.62586e-19
2.625e-05
2.65143e-19
2.625e-05
1.8187e-19
2.625e-05
1.04906e-20
2.625e-05
-2.09252e-19
2.625e-05
-2.15873e-19
2.625e-05
4.00172e-20
2.625e-05
-6.68242e-20
2.625e-05
1.32858e-19
2.625e-05
-5.50662e-18
-5.60112e-18
2.875e-05
-4.06835e-18
2.875e-05
-4.98205e-18
2.875e-05
-6.16442e-19
2.875e-05
1.06548e-19
2.875e-05
-8.71455e-20
2.875e-05
-6.19049e-20
2.875e-05
1.56051e-19
2.875e-05
3.4182e-20
2.875e-05
-2.24248e-19
2.875e-05
-1.5098e-19
2.875e-05
2.53901e-19
2.875e-05
1.60004e-19
2.875e-05
8.2559e-21
2.875e-05
-1.95953e-19
2.875e-05
-1.96138e-19
2.875e-05
3.01218e-20
2.875e-05
-5.39935e-20
2.875e-05
1.2683e-19
2.875e-05
-4.90539e-18
-4.89062e-18
3.125e-05
-2.9107e-18
3.125e-05
-3.86673e-18
3.125e-05
-5.22871e-19
3.125e-05
1.25699e-19
3.125e-05
-9.44398e-20
3.125e-05
-3.38739e-20
3.125e-05
1.31042e-19
3.125e-05
3.85552e-20
3.125e-05
-2.08911e-19
3.125e-05
-1.44562e-19
3.125e-05
2.34611e-19
3.125e-05
1.33426e-19
3.125e-05
2.22743e-21
3.125e-05
-1.88742e-19
3.125e-05
-1.63452e-19
3.125e-05
2.5417e-20
3.125e-05
-4.44296e-20
3.125e-05
1.10669e-19
3.125e-05
-4.1354e-18
-4.02389e-18
3.375e-05
-1.78638e-18
3.375e-05
-2.7562e-18
3.375e-05
-4.28103e-19
3.375e-05
1.42933e-19
3.375e-05
-1.00131e-19
3.375e-05
2.44739e-22
3.375e-05
1.05088e-19
3.375e-05
3.93623e-20
3.375e-05
-2.01721e-19
3.375e-05
-1.24045e-19
3.375e-05
2.06117e-19
3.375e-05
1.01452e-19
3.375e-05
3.16527e-22
3.375e-05
-1.7216e-19
3.375e-05
-1.16169e-19
3.375e-05
2.70717e-20
3.375e-05
-4.89517e-20
3.375e-05
9.95631e-20
3.375e-05
-3.26422e-18
-3.08248e-18
3.625e-05
-8.31056e-19
3.625e-05
-1.73784e-18
3.625e-05
-3.20744e-19
3.625e-05
1.48724e-19
3.625e-05
-1.03113e-19
3.625e-05
1.36711e-20
3.625e-05
7.92249e-20
3.625e-05
3.53738e-20
3.625e-05
-1.78806e-19
3.625e-05
-1.01759e-19
3.625e-05
1.65826e-19
3.625e-05
7.70048e-20
3.625e-05
5.35761e-21
3.625e-05
-1.46892e-19
3.625e-05
-6.90005e-20
3.625e-05
1.34947e-20
3.625e-05
-3.86368e-20
3.625e-05
7.98083e-20
3.625e-05
-2.38459e-18
-2.14262e-18
3.875e-05
-1.13683e-19
3.875e-05
-9.21596e-19
3.875e-05
-2.35578e-19
3.875e-05
1.32947e-19
3.875e-05
-8.85965e-20
3.875e-05
3.71457e-20
3.875e-05
4.55701e-20
3.875e-05
1.85672e-20
3.875e-05
-1.38298e-19
3.875e-05
-6.05094e-20
3.875e-05
1.21377e-19
3.875e-05
4.67763e-20
3.875e-05
2.70901e-21
3.875e-05
-1.18811e-19
3.875e-05
-3.80672e-20
3.875e-05
1.8611e-20
3.875e-05
-3.80633e-20
3.875e-05
6.21479e-20
3.875e-05
-1.57074e-18
-1.29558e-18
4.125e-05
2.97092e-19
4.125e-05
-3.61514e-19
4.125e-05
-1.49808e-19
4.125e-05
9.08707e-20
4.125e-05
-7.83757e-20
4.125e-05
5.56275e-20
4.125e-05
1.51159e-20
4.125e-05
1.86521e-21
4.125e-05
-9.97222e-20
4.125e-05
-2.49193e-20
4.125e-05
7.44262e-20
4.125e-05
3.24519e-20
4.125e-05
1.51724e-21
4.125e-05
-8.20339e-20
4.125e-05
-4.25282e-21
4.125e-05
4.20394e-21
4.125e-05
-3.10779e-20
4.125e-05
3.42627e-20
4.125e-05
-8.87742e-19
-6.21313e-19
4.375e-05
3.83589e-19
4.375e-05
-7.01441e-20
4.375e-05
-8.06424e-20
4.375e-05
5.11459e-20
4.375e-05
-5.21702e-20
4.375e-05
5.39778e-20
4.375e-05
7.42754e-21
4.375e-05
-1.34341e-20
4.375e-05
-6.58757e-20
4.375e-05
1.10577e-21
4.375e-05
4.23212e-20
4.375e-05
6.23146e-21
4.375e-05
-3.97558e-21
4.375e-05
-4.04254e-20
4.375e-05
9.04678e-21
4.375e-05
-8.56815e-21
4.375e-05
-1.78375e-20
4.375e-05
2.55984e-20
4.375e-05
-3.90623e-19
-1.87901e-19
4.625e-05
2.19613e-19
4.625e-05
1.75297e-20
4.625e-05
-3.11803e-20
4.625e-05
1.74891e-20
4.625e-05
-1.68079e-20
4.625e-05
3.08287e-20
4.625e-05
-1.52064e-20
4.625e-05
-4.39407e-21
4.625e-05
-2.05143e-20
4.625e-05
-1.82741e-21
4.625e-05
1.56572e-20
4.625e-05
5.08247e-21
4.625e-05
-6.82643e-21
4.625e-05
-1.25076e-20
4.625e-05
6.05925e-21
4.625e-05
-2.69868e-21
4.625e-05
-3.81775e-21
4.625e-05
2.99638e-21
4.625e-05
-9.74784e-20
-2.29942e-21
4.875e-05
4.875e-05
4.875e-05
4.875e-05
4.875e-05
4.875e-05
4.875e-05
4.875e-05
4.875e-05
4.875e-05
4.875e-05
4.875e-05
4.875e-05
4.875e-05
4.875e-05
4.875e-05
4.875e-05
4.875e-05
4.875e-05
)
;

boundaryField
{
    top
    {
        type            calculated;
        value           uniform 0;
    }
    bottom
    {
        type            calculated;
        value           uniform 0;
    }
    inlet
    {
        type            calculated;
        value           nonuniform List<scalar> 
20
(
-1.25e-06
-3.75e-06
-6.25e-06
-8.75e-06
-1.125e-05
-1.375e-05
-1.625e-05
-1.875e-05
-2.125e-05
-2.375e-05
-2.625e-05
-2.875e-05
-3.125e-05
-3.375e-05
-3.625e-05
-3.875e-05
-4.125e-05
-4.375e-05
-4.625e-05
-4.875e-05
)
;
    }
    outlet
    {
        type            calculated;
        value           nonuniform List<scalar> 
20
(
1.25e-06
3.75e-06
6.25e-06
8.75e-06
1.125e-05
1.375e-05
1.625e-05
1.875e-05
2.125e-05
2.375e-05
2.625e-05
2.875e-05
3.125e-05
3.375e-05
3.625e-05
3.875e-05
4.125e-05
4.375e-05
4.625e-05
4.875e-05
)
;
    }
    frontAndBack
    {
        type            empty;
        value           nonuniform 0();
    }
}


// ************************************************************************* //
