/*--------------------------------*- C++ -*----------------------------------*\
| =========                 |                                                 |
| \\      /  F ield         | OpenFOAM: The Open Source CFD Toolbox           |
|  \\    /   O peration     | Version:  4.1                                   |
|   \\  /    A nd           | Web:      www.OpenFOAM.org                      |
|    \\/     M anipulation  |                                                 |
\*---------------------------------------------------------------------------*/
FoamFile
{
    version     2.0;
    format      ascii;
    class       volVectorField;
    location    "4.9";
    object      U;
}
// * * * * * * * * * * * * * * * * * * * * * * * * * * * * * * * * * * * * * //

dimensions      [0 1 -1 0 0 0 0];

internalField   nonuniform List<vector> 
400
(
(0.025 -2.33148e-16 0)
(0.025 -1.45698e-16 0)
(0.025 4.28729e-18 0)
(0.025 -1.14454e-17 0)
(0.025 8.58975e-18 0)
(0.025 -8.86988e-18 0)
(0.025 8.35045e-18 0)
(0.025 -5.47282e-18 0)
(0.025 3.02639e-18 0)
(0.025 -4.56336e-18 0)
(0.025 4.12018e-18 0)
(0.025 3.50914e-18 0)
(0.025 -2.02736e-18 0)
(0.025 -1.27016e-18 0)
(0.025 -5.25511e-18 0)
(0.025 3.07712e-18 0)
(0.025 -3.88528e-18 0)
(0.025 5.78297e-18 0)
(0.025 -8.34818e-17 0)
(0.025 -1.34537e-16 0)
(0.075 -9.80303e-16 0)
(0.075 -7.25816e-16 0)
(0.075 -6.93884e-18 0)
(0.075 -3.68628e-17 0)
(0.075 2.54903e-17 0)
(0.075 -2.97257e-17 0)
(0.075 2.8772e-17 0)
(0.075 -1.64267e-17 0)
(0.075 5.73882e-18 0)
(0.075 -1.6306e-17 0)
(0.075 2.00048e-17 0)
(0.075 1.67325e-17 0)
(0.075 -9.63614e-18 0)
(0.075 -1.01265e-17 0)
(0.075 -2.08622e-17 0)
(0.075 1.07727e-17 0)
(0.075 -1.46693e-17 0)
(0.075 2.35489e-17 0)
(0.075 -4.4728e-16 0)
(0.075 -6.14388e-16 0)
(0.125 -2.1735e-15 0)
(0.125 -1.81142e-15 0)
(0.125 -6.65533e-17 0)
(0.125 -6.19266e-17 0)
(0.125 3.81685e-17 0)
(0.125 -5.44382e-17 0)
(0.125 5.33161e-17 0)
(0.125 -2.46179e-17 0)
(0.125 1.58068e-18 0)
(0.125 -3.38938e-17 0)
(0.125 4.76806e-17 0)
(0.125 4.02569e-17 0)
(0.125 -2.02144e-17 0)
(0.125 -3.15467e-17 0)
(0.125 -4.51142e-17 0)
(0.125 2.01886e-17 0)
(0.125 -3.08327e-17 0)
(0.125 4.43768e-17 0)
(0.125 -1.17039e-15 0)
(0.125 -1.4532e-15 0)
(0.175 -3.51745e-15 0)
(0.175 -3.14574e-15 0)
(0.175 -1.62277e-16 0)
(0.175 -7.71965e-17 0)
(0.175 4.15158e-17 0)
(0.175 -7.79317e-17 0)
(0.175 7.8818e-17 0)
(0.175 -2.69865e-17 0)
(0.175 -1.3727e-17 0)
(0.175 -5.32004e-17 0)
(0.175 8.49408e-17 0)
(0.175 7.01486e-17 0)
(0.175 -3.12957e-17 0)
(0.175 -6.18347e-17 0)
(0.175 -7.42558e-17 0)
(0.175 3.23508e-17 0)
(0.175 -4.993e-17 0)
(0.175 6.71793e-17 0)
(0.175 -2.11351e-15 0)
(0.175 -2.4809e-15 0)
(0.225 -4.79367e-15 0)
(0.225 -4.50102e-15 0)
(0.225 -2.81742e-16 0)
(0.225 -8.02822e-17 0)
(0.225 3.58431e-17 0)
(0.225 -1.00465e-16 0)
(0.225 1.03878e-16 0)
(0.225 -1.99216e-17 0)
(0.225 -3.90754e-17 0)
(0.225 -7.62198e-17 0)
(0.225 1.25085e-16 0)
(0.225 1.02222e-16 0)
(0.225 -3.79645e-17 0)
(0.225 -9.72539e-17 0)
(0.225 -1.04989e-16 0)
(0.225 4.72945e-17 0)
(0.225 -7.22245e-17 0)
(0.225 8.78422e-17 0)
(0.225 -3.13447e-15 0)
(0.225 -3.55e-15 0)
(0.275 -5.85288e-15 0)
(0.275 -5.69893e-15 0)
(0.275 -4.10271e-16 0)
(0.275 -7.37072e-17 0)
(0.275 2.55176e-17 0)
(0.275 -1.20319e-16 0)
(0.275 1.28445e-16 0)
(0.275 -6.52795e-18 0)
(0.275 -6.855e-17 0)
(0.275 -1.04081e-16 0)
(0.275 1.65919e-16 0)
(0.275 1.36274e-16 0)
(0.275 -4.24011e-17 0)
(0.275 -1.32053e-16 0)
(0.275 -1.36054e-16 0)
(0.275 6.0986e-17 0)
(0.275 -9.17523e-17 0)
(0.275 1.04621e-16 0)
(0.275 -4.11279e-15 0)
(0.275 -4.54579e-15 0)
(0.325 -6.59159e-15 0)
(0.325 -6.61334e-15 0)
(0.325 -5.29673e-16 0)
(0.325 -5.76926e-17 0)
(0.325 1.12168e-17 0)
(0.325 -1.35784e-16 0)
(0.325 1.50025e-16 0)
(0.325 8.34592e-18 0)
(0.325 -9.84574e-17 0)
(0.325 -1.28502e-16 0)
(0.325 2.00574e-16 0)
(0.325 1.67207e-16 0)
(0.325 -4.04254e-17 0)
(0.325 -1.64466e-16 0)
(0.325 -1.64279e-16 0)
(0.325 7.19195e-17 0)
(0.325 -1.0181e-16 0)
(0.325 1.11406e-16 0)
(0.325 -4.95316e-15 0)
(0.325 -5.37412e-15 0)
(0.375 -6.94148e-15 0)
(0.375 -7.16295e-15 0)
(0.375 -6.28861e-16 0)
(0.375 -3.22908e-17 0)
(0.375 -3.23836e-18 0)
(0.375 -1.44642e-16 0)
(0.375 1.67339e-16 0)
(0.375 2.04861e-17 0)
(0.375 -1.29825e-16 0)
(0.375 -1.44279e-16 0)
(0.375 2.27486e-16 0)
(0.375 1.8917e-16 0)
(0.375 -3.13511e-17 0)
(0.375 -1.8952e-16 0)
(0.375 -1.88102e-16 0)
(0.375 7.40773e-17 0)
(0.375 -1.0399e-16 0)
(0.375 1.15346e-16 0)
(0.375 -5.57713e-15 0)
(0.375 -5.95685e-15 0)
(0.425 -6.88419e-15 0)
(0.425 -7.30831e-15 0)
(0.425 -6.9507e-16 0)
(0.425 -2.33343e-18 0)
(0.425 -2.24017e-17 0)
(0.425 -1.41499e-16 0)
(0.425 1.78016e-16 0)
(0.425 2.76235e-17 0)
(0.425 -1.63689e-16 0)
(0.425 -1.53301e-16 0)
(0.425 2.52619e-16 0)
(0.425 1.98394e-16 0)
(0.425 -1.91776e-17 0)
(0.425 -2.04163e-16 0)
(0.425 -2.08915e-16 0)
(0.425 6.62819e-17 0)
(0.425 -9.65278e-17 0)
(0.425 1.21202e-16 0)
(0.425 -5.93034e-15 0)
(0.425 -6.24968e-15 0)
(0.475 -6.43814e-15 0)
(0.475 -7.04764e-15 0)
(0.475 -7.17967e-16 0)
(0.475 2.93974e-17 0)
(0.475 -4.66112e-17 0)
(0.475 -1.28877e-16 0)
(0.475 1.7772e-16 0)
(0.475 3.75255e-17 0)
(0.475 -1.91767e-16 0)
(0.475 -1.59918e-16 0)
(0.475 2.66975e-16 0)
(0.475 1.968e-16 0)
(0.475 -3.43361e-18 0)
(0.475 -2.11448e-16 0)
(0.475 -2.22154e-16 0)
(0.475 5.79693e-17 0)
(0.475 -8.61894e-17 0)
(0.475 1.27735e-16 0)
(0.475 -5.98964e-15 0)
(0.475 -6.23013e-15 0)
(0.525 -5.66333e-15 0)
(0.525 -6.42391e-15 0)
(0.525 -7.03412e-16 0)
(0.525 6.33877e-17 0)
(0.525 -6.49484e-17 0)
(0.525 -1.07583e-16 0)
(0.525 1.71342e-16 0)
(0.525 4.24569e-17 0)
(0.525 -2.09488e-16 0)
(0.525 -1.64097e-16 0)
(0.525 2.69069e-16 0)
(0.525 1.88664e-16 0)
(0.525 8.60199e-18 0)
(0.525 -2.11886e-16 0)
(0.525 -2.23133e-16 0)
(0.525 4.70481e-17 0)
(0.525 -7.42933e-17 0)
(0.525 1.33182e-16 0)
(0.525 -5.75531e-15 0)
(0.525 -5.89976e-15 0)
(0.575 -4.64637e-15 0)
(0.575 -5.52105e-15 0)
(0.575 -6.54481e-16 0)
(0.575 9.4143e-17 0)
(0.575 -7.9965e-17 0)
(0.575 -7.81877e-17 0)
(0.575 1.62163e-16 0)
(0.575 3.88797e-17 0)
(0.575 -2.22761e-16 0)
(0.575 -1.57857e-16 0)
(0.575 2.6217e-16 0)
(0.575 1.72154e-16 0)
(0.575 9.8078e-18 0)
(0.575 -2.03797e-16 0)
(0.575 -2.0859e-16 0)
(0.575 3.45816e-17 0)
(0.575 -6.02478e-17 0)
(0.575 1.31548e-16 0)
(0.575 -5.25597e-15 0)
(0.575 -5.29569e-15 0)
(0.625 -3.49352e-15 0)
(0.625 -4.43989e-15 0)
(0.625 -5.74198e-16 0)
(0.625 1.17979e-16 0)
(0.625 -9.20109e-17 0)
(0.625 -4.77325e-17 0)
(0.625 1.4491e-16 0)
(0.625 3.64555e-17 0)
(0.625 -2.19339e-16 0)
(0.625 -1.48389e-16 0)
(0.625 2.46985e-16 0)
(0.625 1.46902e-16 0)
(0.625 6.25242e-18 0)
(0.625 -1.94219e-16 0)
(0.625 -1.822e-16 0)
(0.625 2.79441e-17 0)
(0.625 -4.95135e-17 0)
(0.625 1.20526e-16 0)
(0.625 -4.55301e-15 0)
(0.625 -4.48766e-15 0)
(0.675 -2.32436e-15 0)
(0.675 -3.29919e-15 0)
(0.675 -4.77592e-16 0)
(0.675 1.36925e-16 0)
(0.675 -9.90522e-17 0)
(0.675 -1.62073e-17 0)
(0.675 1.20195e-16 0)
(0.675 3.9325e-17 0)
(0.675 -2.08395e-16 0)
(0.675 -1.36298e-16 0)
(0.675 2.22882e-16 0)
(0.675 1.17859e-16 0)
(0.675 1.23366e-18 0)
(0.675 -1.81823e-16 0)
(0.675 -1.4162e-16 0)
(0.675 2.60296e-17 0)
(0.675 -4.61063e-17 0)
(0.675 1.06201e-16 0)
(0.675 -3.71303e-15 0)
(0.675 -3.56109e-15 0)
(0.725 -1.25943e-15 0)
(0.725 -2.20998e-15 0)
(0.725 -3.73321e-16 0)
(0.725 1.49307e-16 0)
(0.725 -1.03449e-16 0)
(0.725 7.61558e-18 0)
(0.725 9.26148e-17 0)
(0.725 3.94674e-17 0)
(0.725 -1.92284e-16 0)
(0.725 -1.15883e-16 0)
(0.725 1.87157e-16 0)
(0.725 8.93463e-17 0)
(0.725 2.46318e-18 0)
(0.725 -1.61104e-16 0)
(0.725 -9.26131e-17 0)
(0.725 2.05185e-17 0)
(0.725 -4.28523e-17 0)
(0.725 9.05575e-17 0)
(0.725 -2.81886e-15 0)
(0.725 -2.59978e-15 0)
(0.775 -4.03586e-16 0)
(0.775 -1.27413e-15 0)
(0.775 -2.76185e-16 0)
(0.775 1.44774e-16 0)
(0.775 -9.7878e-17 0)
(0.775 2.69621e-17 0)
(0.775 6.16692e-17 0)
(0.775 2.70321e-17 0)
(0.775 -1.59227e-16 0)
(0.775 -8.25865e-17 0)
(0.775 1.43745e-16 0)
(0.775 6.17937e-17 0)
(0.775 4.91799e-18 0)
(0.775 -1.35072e-16 0)
(0.775 -5.23953e-17 0)
(0.775 1.70464e-17 0)
(0.775 -3.83194e-17 0)
(0.775 6.99908e-17 0)
(0.775 -1.95356e-15 0)
(0.775 -1.68517e-15 0)
(0.825 1.64434e-16 0)
(0.825 -5.79879e-16 0)
(0.825 -1.89679e-16 0)
(0.825 1.14167e-16 0)
(0.825 -8.4762e-17 0)
(0.825 4.91138e-17 0)
(0.825 2.93693e-17 0)
(0.825 1.00319e-17 0)
(0.825 -1.19574e-16 0)
(0.825 -4.25104e-17 0)
(0.825 9.64492e-17 0)
(0.825 3.89751e-17 0)
(0.825 1.92564e-18 0)
(0.825 -9.99531e-17 0)
(0.825 -1.79666e-17 0)
(0.825 9.86483e-18 0)
(0.825 -3.41091e-17 0)
(0.825 4.7718e-17 0)
(0.825 -1.19013e-15 0)
(0.825 -9.08258e-16 0)
(0.875 4.05557e-16 0)
(0.875 -1.5852e-16 0)
(0.875 -1.10145e-16 0)
(0.875 7.07098e-17 0)
(0.875 -6.66355e-17 0)
(0.875 5.70669e-17 0)
(0.875 8.73084e-18 0)
(0.875 -6.56015e-18 0)
(0.875 -8.1669e-17 0)
(0.875 -9.19025e-18 0)
(0.875 5.60312e-17 0)
(0.875 1.7934e-17 0)
(0.875 -1.76599e-18 0)
(0.875 -6.04929e-17 0)
(0.875 4.47333e-18 0)
(0.875 -2.62835e-18 0)
(0.875 -2.41796e-17 0)
(0.875 2.84181e-17 0)
(0.875 -5.90131e-16 0)
(0.875 -3.48373e-16 0)
(0.925 3.41754e-16 0)
(0.925 1.36474e-17 0)
(0.925 -5.23464e-17 0)
(0.925 3.24236e-17 0)
(0.925 -3.29882e-17 0)
(0.925 4.67838e-17 0)
(0.925 -8.31448e-18 0)
(0.925 -1.13083e-17 0)
(0.925 -4.12159e-17 0)
(0.925 3.50036e-18 0)
(0.925 2.66955e-17 0)
(0.925 4.37528e-18 0)
(0.925 -5.7632e-18 0)
(0.925 -2.38259e-17 0)
(0.925 1.0799e-17 0)
(0.925 -6.5665e-18 0)
(0.925 -1.06642e-17 0)
(0.925 1.27416e-17 0)
(0.925 -1.99743e-16 0)
(0.925 -4.47769e-17 0)
(0.975 1.29666e-16 0)
(0.975 2.68047e-17 0)
(0.975 -1.44382e-17 0)
(0.975 6.62563e-18 0)
(0.975 -8.90913e-18 0)
(0.975 1.58288e-17 0)
(0.975 -7.09443e-18 0)
(0.975 -2.96097e-18 0)
(0.975 -1.0695e-17 0)
(0.975 1.1598e-18 0)
(0.975 7.39292e-18 0)
(0.975 1.6357e-18 0)
(0.975 -4.26591e-18 0)
(0.975 -4.83364e-18 0)
(0.975 2.68499e-18 0)
(0.975 -2.56035e-18 0)
(0.975 -1.85472e-18 0)
(0.975 1.42987e-18 0)
(0.975 -2.90999e-17 0)
(0.975 1.95749e-17 0)
)
;

boundaryField
{
    top
    {
        type            fixedValue;
        value           uniform (1 0 0);
    }
    bottom
    {
        type            fixedValue;
        value           uniform (0 0 0);
    }
    inlet
    {
        type            zeroGradient;
    }
    outlet
    {
        type            zeroGradient;
    }
    frontAndBack
    {
        type            empty;
    }
}


// ************************************************************************* //
