/*--------------------------------*- C++ -*----------------------------------*\
| =========                 |                                                 |
| \\      /  F ield         | OpenFOAM: The Open Source CFD Toolbox           |
|  \\    /   O peration     | Version:  4.1                                   |
|   \\  /    A nd           | Web:      www.OpenFOAM.org                      |
|    \\/     M anipulation  |                                                 |
\*---------------------------------------------------------------------------*/
FoamFile
{
    version     2.0;
    format      ascii;
    class       volScalarField;
    location    "3.8";
    object      p;
}
// * * * * * * * * * * * * * * * * * * * * * * * * * * * * * * * * * * * * * //

dimensions      [0 2 -2 0 0 0 0];

internalField   nonuniform List<scalar> 
400
(
1.67948e-11
1.87504e-11
1.60009e-11
1.7117e-11
1.50922e-11
1.56827e-11
1.41451e-11
1.43106e-11
1.31498e-11
1.29872e-11
1.21193e-11
1.16832e-11
1.10728e-11
1.03979e-11
1.00195e-11
9.1067e-12
8.96603e-12
7.822e-12
8.00571e-12
7.54248e-12
1.67343e-11
1.86883e-11
1.59963e-11
1.71158e-11
1.50923e-11
1.56825e-11
1.41452e-11
1.43105e-11
1.31498e-11
1.29871e-11
1.21193e-11
1.16832e-11
1.10728e-11
1.0398e-11
1.00194e-11
9.10674e-12
8.96534e-12
7.82246e-12
7.96426e-12
7.49864e-12
1.66997e-11
1.86439e-11
1.59905e-11
1.71157e-11
1.50915e-11
1.5683e-11
1.41448e-11
1.43108e-11
1.31496e-11
1.29873e-11
1.21193e-11
1.16833e-11
1.10728e-11
1.03979e-11
1.00195e-11
9.10653e-12
8.96505e-12
7.82201e-12
7.93144e-12
7.46827e-12
1.66888e-11
1.86231e-11
1.5985e-11
1.71158e-11
1.50907e-11
1.56836e-11
1.41443e-11
1.43112e-11
1.31493e-11
1.29875e-11
1.21192e-11
1.16833e-11
1.10728e-11
1.03978e-11
1.00196e-11
9.1063e-12
8.96492e-12
7.82086e-12
7.91262e-12
7.45277e-12
1.66921e-11
1.86188e-11
1.59799e-11
1.71159e-11
1.509e-11
1.5684e-11
1.41439e-11
1.43114e-11
1.3149e-11
1.29877e-11
1.21191e-11
1.16834e-11
1.10728e-11
1.03977e-11
1.00197e-11
9.10613e-12
8.96484e-12
7.8194e-12
7.90473e-12
7.44741e-12
1.67049e-11
1.86255e-11
1.59748e-11
1.7116e-11
1.50895e-11
1.56844e-11
1.41436e-11
1.43117e-11
1.31488e-11
1.29878e-11
1.21191e-11
1.16834e-11
1.10728e-11
1.03977e-11
1.00198e-11
9.10599e-12
8.96482e-12
7.81775e-12
7.90553e-12
7.44994e-12
1.67242e-11
1.86398e-11
1.59695e-11
1.7116e-11
1.5089e-11
1.56848e-11
1.41434e-11
1.43118e-11
1.31487e-11
1.29879e-11
1.2119e-11
1.16834e-11
1.10728e-11
1.03976e-11
1.00199e-11
9.10589e-12
8.96485e-12
7.81606e-12
7.91361e-12
7.45897e-12
1.6747e-11
1.86585e-11
1.59641e-11
1.71159e-11
1.50887e-11
1.5685e-11
1.41432e-11
1.4312e-11
1.31485e-11
1.29881e-11
1.2119e-11
1.16834e-11
1.10728e-11
1.03976e-11
1.002e-11
9.1058e-12
8.96491e-12
7.81448e-12
7.92727e-12
7.47274e-12
1.677e-11
1.86782e-11
1.59585e-11
1.71156e-11
1.50884e-11
1.56852e-11
1.4143e-11
1.43121e-11
1.31485e-11
1.29882e-11
1.2119e-11
1.16834e-11
1.10728e-11
1.03976e-11
1.002e-11
9.10578e-12
8.96495e-12
7.81312e-12
7.94441e-12
7.48913e-12
1.67903e-11
1.86958e-11
1.59527e-11
1.71152e-11
1.50883e-11
1.56853e-11
1.4143e-11
1.43121e-11
1.31485e-11
1.29882e-11
1.2119e-11
1.16834e-11
1.10728e-11
1.03976e-11
1.002e-11
9.10579e-12
8.96498e-12
7.81206e-12
7.96276e-12
7.50592e-12
1.68053e-11
1.87087e-11
1.59469e-11
1.71147e-11
1.50882e-11
1.56854e-11
1.4143e-11
1.43121e-11
1.31485e-11
1.29883e-11
1.2119e-11
1.16834e-11
1.10727e-11
1.03976e-11
1.002e-11
9.10584e-12
8.96496e-12
7.81134e-12
7.98012e-12
7.52093e-12
1.68131e-11
1.87149e-11
1.59411e-11
1.71139e-11
1.50882e-11
1.56854e-11
1.41431e-11
1.4312e-11
1.31485e-11
1.29883e-11
1.2119e-11
1.16833e-11
1.10727e-11
1.03976e-11
1.002e-11
9.10591e-12
8.96486e-12
7.81099e-12
7.9944e-12
7.53224e-12
1.68126e-11
1.87133e-11
1.59356e-11
1.71129e-11
1.50883e-11
1.56852e-11
1.41432e-11
1.43118e-11
1.31487e-11
1.29883e-11
1.2119e-11
1.16833e-11
1.10727e-11
1.03976e-11
1.002e-11
9.106e-12
8.96468e-12
7.81099e-12
8.00389e-12
7.53826e-12
1.68033e-11
1.87036e-11
1.59304e-11
1.71118e-11
1.50885e-11
1.56851e-11
1.41434e-11
1.43116e-11
1.31488e-11
1.29883e-11
1.2119e-11
1.16833e-11
1.10726e-11
1.03975e-11
1.002e-11
9.1061e-12
8.96443e-12
7.81128e-12
8.00736e-12
7.5379e-12
1.67858e-11
1.86865e-11
1.59257e-11
1.71106e-11
1.50888e-11
1.56848e-11
1.41437e-11
1.43113e-11
1.3149e-11
1.29883e-11
1.21191e-11
1.16833e-11
1.10725e-11
1.03975e-11
1.00199e-11
9.10623e-12
8.96408e-12
7.81179e-12
8.00416e-12
7.53057e-12
1.67616e-11
1.86637e-11
1.59216e-11
1.71092e-11
1.50891e-11
1.56844e-11
1.4144e-11
1.4311e-11
1.31492e-11
1.29882e-11
1.21193e-11
1.16833e-11
1.10724e-11
1.03975e-11
1.00198e-11
9.10638e-12
8.96365e-12
7.81248e-12
7.99443e-12
7.51654e-12
1.67328e-11
1.86378e-11
1.59184e-11
1.71077e-11
1.50895e-11
1.5684e-11
1.41444e-11
1.43107e-11
1.31494e-11
1.29881e-11
1.21195e-11
1.16833e-11
1.10723e-11
1.03975e-11
1.00197e-11
9.10654e-12
8.96312e-12
7.81326e-12
7.97897e-12
7.49654e-12
1.67037e-11
1.86135e-11
1.5916e-11
1.71061e-11
1.50902e-11
1.56833e-11
1.41449e-11
1.43103e-11
1.31496e-11
1.29878e-11
1.21197e-11
1.16833e-11
1.10723e-11
1.03975e-11
1.00195e-11
9.10675e-12
8.96251e-12
7.81406e-12
7.95956e-12
7.47215e-12
1.66814e-11
1.85955e-11
1.59144e-11
1.71048e-11
1.50907e-11
1.56827e-11
1.41454e-11
1.431e-11
1.31499e-11
1.29876e-11
1.21199e-11
1.16833e-11
1.10722e-11
1.03975e-11
1.00194e-11
9.10695e-12
8.96186e-12
7.81476e-12
7.93749e-12
7.44588e-12
1.66772e-11
1.85875e-11
1.59122e-11
1.71046e-11
1.50904e-11
1.56829e-11
1.41453e-11
1.43101e-11
1.31497e-11
1.29876e-11
1.21199e-11
1.16833e-11
1.10722e-11
1.03974e-11
1.00195e-11
9.10684e-12
8.96147e-12
7.81498e-12
7.91689e-12
7.42567e-12
)
;

boundaryField
{
    top
    {
        type            zeroGradient;
    }
    bottom
    {
        type            zeroGradient;
    }
    inlet
    {
        type            fixedValue;
        value           uniform 0;
    }
    outlet
    {
        type            fixedValue;
        value           uniform 0;
    }
    frontAndBack
    {
        type            empty;
    }
}


// ************************************************************************* //
