/*--------------------------------*- C++ -*----------------------------------*\
| =========                 |                                                 |
| \\      /  F ield         | OpenFOAM: The Open Source CFD Toolbox           |
|  \\    /   O peration     | Version:  4.1                                   |
|   \\  /    A nd           | Web:      www.OpenFOAM.org                      |
|    \\/     M anipulation  |                                                 |
\*---------------------------------------------------------------------------*/
FoamFile
{
    version     2.0;
    format      ascii;
    class       surfaceScalarField;
    location    "3.8";
    object      phi;
}
// * * * * * * * * * * * * * * * * * * * * * * * * * * * * * * * * * * * * * //

dimensions      [0 3 -1 0 0 0 0];

internalField   nonuniform List<scalar> 
760
(
1.25e-06
-2.61026e-17
1.25e-06
-1.79356e-17
1.25e-06
2.21957e-19
1.25e-06
-1.26709e-18
1.25e-06
8.48221e-19
1.25e-06
-7.23181e-19
1.25e-06
5.72246e-19
1.25e-06
-4.4252e-19
1.25e-06
3.30791e-19
1.25e-06
-2.36692e-19
1.25e-06
1.48485e-19
1.25e-06
-5.11474e-20
1.25e-06
-2.66112e-20
1.25e-06
9.53464e-20
1.25e-06
-1.90141e-19
1.25e-06
2.52705e-19
1.25e-06
-4.75565e-19
1.25e-06
6.70026e-19
1.25e-06
-1.07507e-17
-1.58378e-17
3.75e-06
-7.88975e-17
3.75e-06
-6.2756e-17
3.75e-06
-1.30947e-18
3.75e-06
-3.08011e-18
3.75e-06
1.78011e-18
3.75e-06
-1.5735e-18
3.75e-06
1.23403e-18
3.75e-06
-9.48748e-19
3.75e-06
7.04242e-19
3.75e-06
-5.11084e-19
3.75e-06
3.27596e-19
3.75e-06
-9.88205e-20
3.75e-06
-6.56147e-20
3.75e-06
1.99467e-19
3.75e-06
-4.26118e-19
3.75e-06
5.33271e-19
3.75e-06
-1.2502e-18
3.75e-06
1.76367e-18
3.75e-06
-3.95882e-17
-5.11385e-17
6.25e-06
-1.42741e-16
6.25e-06
-1.23733e-16
6.25e-06
-4.85038e-18
6.25e-06
-4.7131e-18
6.25e-06
2.29117e-18
6.25e-06
-2.12763e-18
6.25e-06
1.64854e-18
6.25e-06
-1.25971e-18
6.25e-06
9.25938e-19
6.25e-06
-6.8104e-19
6.25e-06
4.48915e-19
6.25e-06
-1.13659e-19
6.25e-06
-1.00414e-19
6.25e-06
2.52316e-19
6.25e-06
-5.968e-19
6.25e-06
6.93954e-19
6.25e-06
-2.06173e-18
6.25e-06
2.95548e-18
6.25e-06
-8.12961e-17
-9.77793e-17
8.75e-06
-2.08002e-16
8.75e-06
-1.90343e-16
8.75e-06
-9.73451e-18
8.75e-06
-6.10285e-18
8.75e-06
2.4335e-18
8.75e-06
-2.41016e-18
8.75e-06
1.84127e-18
8.75e-06
-1.39197e-18
8.75e-06
1.00975e-18
8.75e-06
-7.64799e-19
8.75e-06
5.20396e-19
8.75e-06
-1.02441e-19
8.75e-06
-1.27279e-19
8.75e-06
2.64709e-19
8.75e-06
-7.05243e-19
8.75e-06
7.51599e-19
8.75e-06
-2.85949e-18
8.75e-06
4.1589e-18
8.75e-06
-1.2972e-16
-1.49619e-16
1.125e-05
-2.66378e-16
1.125e-05
-2.5332e-16
1.125e-05
-1.52477e-17
1.125e-05
-7.1732e-18
1.125e-05
2.26825e-18
1.125e-05
-2.45689e-18
1.125e-05
1.84418e-18
1.125e-05
-1.36895e-18
1.125e-05
9.72181e-19
1.125e-05
-7.65424e-19
1.125e-05
5.43996e-19
1.125e-05
-7.04212e-20
1.125e-05
-1.43413e-19
1.125e-05
2.39101e-19
1.125e-05
-7.54282e-19
1.125e-05
7.22377e-19
1.125e-05
-3.58538e-18
1.125e-05
5.29897e-18
1.125e-05
-1.78951e-16
-2.00779e-16
1.375e-05
-3.11508e-16
1.375e-05
-3.05312e-16
1.375e-05
-2.06815e-17
1.375e-05
-7.86433e-18
1.375e-05
1.85539e-18
1.375e-05
-2.29521e-18
1.375e-05
1.67988e-18
1.375e-05
-1.21735e-18
1.375e-05
8.35403e-19
1.375e-05
-7.01045e-19
1.375e-05
5.30375e-19
1.375e-05
-2.68891e-20
1.375e-05
-1.46673e-19
1.375e-05
1.8786e-19
1.375e-05
-7.51189e-19
1.375e-05
6.1491e-19
1.375e-05
-4.18005e-18
1.375e-05
6.29637e-18
1.375e-05
-2.23657e-16
-2.45977e-16
1.625e-05
-3.38995e-16
1.625e-05
-3.4097e-16
1.625e-05
-2.54175e-17
1.625e-05
-8.12046e-18
1.625e-05
1.25759e-18
1.625e-05
-1.95796e-18
1.625e-05
1.38917e-18
1.625e-05
-9.63549e-19
1.625e-05
6.20513e-19
1.625e-05
-5.83037e-19
1.625e-05
4.83612e-19
1.625e-05
2.11015e-20
1.625e-05
-1.36479e-19
1.625e-05
1.10236e-19
1.625e-05
-6.95694e-19
1.625e-05
4.53426e-19
1.625e-05
-4.59209e-18
1.625e-05
7.06527e-18
1.625e-05
-2.59447e-16
-2.80899e-16
1.875e-05
-3.46653e-16
1.875e-05
-3.57221e-16
1.875e-05
-2.89493e-17
1.875e-05
-7.93113e-18
1.875e-05
5.33025e-19
1.875e-05
-1.48111e-18
1.875e-05
9.95946e-19
1.875e-05
-6.36736e-19
1.875e-05
3.4345e-19
1.875e-05
-4.15733e-19
1.875e-05
4.04975e-19
1.875e-05
6.48219e-20
1.875e-05
-1.19047e-19
1.875e-05
2.75598e-20
1.875e-05
-5.96502e-19
1.875e-05
2.34878e-19
1.875e-05
-4.78777e-18
1.875e-05
7.54126e-18
1.875e-05
-2.8309e-16
-3.02436e-16
2.125e-05
-3.34387e-16
2.125e-05
-3.5323e-16
2.125e-05
-3.09429e-17
2.125e-05
-7.30056e-18
2.125e-05
-2.5525e-19
2.125e-05
-9.05853e-19
2.125e-05
5.31893e-19
2.125e-05
-2.62916e-19
2.125e-05
3.32707e-20
2.125e-05
-2.26964e-19
2.125e-05
3.20541e-19
2.125e-05
1.09411e-19
2.125e-05
-9.20705e-20
2.125e-05
-6.62662e-20
2.125e-05
-4.64362e-19
2.125e-05
-5.63256e-21
2.125e-05
-4.75529e-18
2.125e-05
7.65765e-18
2.125e-05
-2.92701e-16
-3.08852e-16
2.375e-05
-3.04103e-16
2.375e-05
-3.30288e-16
2.375e-05
-3.12475e-17
2.375e-05
-6.28091e-18
2.375e-05
-1.05025e-18
2.375e-05
-2.67057e-19
2.375e-05
2.94623e-20
2.375e-05
1.34135e-19
2.375e-05
-2.82561e-19
2.375e-05
-2.49298e-20
2.375e-05
2.05794e-19
2.375e-05
1.48113e-19
2.375e-05
-5.90628e-20
2.375e-05
-1.58207e-19
2.375e-05
-3.09508e-19
2.375e-05
-2.51264e-19
2.375e-05
-4.49402e-18
2.375e-05
7.38139e-18
2.375e-05
-2.87808e-16
-2.9988e-16
2.625e-05
-2.5939e-16
2.625e-05
-2.91555e-16
2.625e-05
-2.994e-17
2.625e-05
-4.9404e-18
2.625e-05
-1.79477e-18
2.625e-05
3.88731e-19
2.625e-05
-4.67792e-19
2.625e-05
5.20952e-19
2.625e-05
-5.90358e-19
2.625e-05
1.72283e-19
2.625e-05
8.73281e-20
2.625e-05
1.86151e-19
2.625e-05
-3.11297e-20
2.625e-05
-2.47966e-19
2.625e-05
-1.44192e-19
2.625e-05
-4.83924e-19
2.625e-05
-4.02179e-18
2.625e-05
6.71296e-18
2.625e-05
-2.69291e-16
-2.76685e-16
2.875e-05
-2.05156e-16
2.875e-05
-2.41646e-16
2.875e-05
-2.72493e-17
2.875e-05
-3.42086e-18
2.875e-05
-2.43672e-18
2.875e-05
1.0159e-18
2.875e-05
-9.25981e-19
2.875e-05
8.76701e-19
2.875e-05
-8.69592e-19
2.875e-05
3.65627e-19
2.875e-05
-3.33721e-20
2.875e-05
2.07973e-19
2.875e-05
-3.32005e-21
2.875e-05
-3.29021e-19
2.875e-05
3.63542e-20
2.875e-05
-6.91891e-19
2.875e-05
-3.38013e-18
2.875e-05
5.70412e-18
2.875e-05
-2.39272e-16
-2.4172e-16
3.125e-05
-1.47129e-16
3.125e-05
-1.86134e-16
3.125e-05
-2.35438e-17
3.125e-05
-1.82917e-18
3.125e-05
-2.94368e-18
3.125e-05
1.55922e-18
3.125e-05
-1.33184e-18
3.125e-05
1.18514e-18
3.125e-05
-1.09006e-18
3.125e-05
5.10054e-19
3.125e-05
-1.4613e-19
3.125e-05
2.25791e-19
3.125e-05
2.79355e-20
3.125e-05
-3.87894e-19
3.125e-05
2.05347e-19
3.125e-05
-8.52909e-19
3.125e-05
-2.63712e-18
3.125e-05
4.45374e-18
3.125e-05
-2.00876e-16
-1.98508e-16
3.375e-05
-9.12625e-17
3.375e-05
-1.30884e-16
3.375e-05
-1.92649e-17
3.375e-05
-3.25493e-19
3.375e-05
-3.26242e-18
3.375e-05
1.98512e-18
3.375e-05
-1.63516e-18
3.375e-05
1.40092e-18
3.375e-05
-1.23417e-18
3.375e-05
6.32438e-19
3.375e-05
-2.55778e-19
3.375e-05
2.41713e-19
3.375e-05
4.26622e-20
3.375e-05
-4.33845e-19
3.375e-05
3.54524e-19
3.375e-05
-9.55859e-19
3.375e-05
-1.83832e-18
3.375e-05
3.08837e-18
3.375e-05
-1.57901e-16
-1.51261e-16
3.625e-05
-4.31851e-17
3.625e-05
-8.14269e-17
3.625e-05
-1.48805e-17
3.625e-05
9.33805e-19
3.625e-05
-3.34903e-18
3.625e-05
2.22386e-18
3.625e-05
-1.80424e-18
3.625e-05
1.50079e-18
3.625e-05
-1.28062e-18
3.625e-05
7.08468e-19
3.625e-05
-3.37177e-19
3.625e-05
2.49728e-19
3.625e-05
5.07119e-20
3.625e-05
-4.50162e-19
3.625e-05
4.68791e-19
3.625e-05
-9.95061e-19
3.625e-05
-1.07738e-18
3.625e-05
1.7672e-18
3.625e-05
-1.14463e-16
-1.04588e-16
3.875e-05
-7.33629e-18
3.875e-05
-4.21334e-17
3.875e-05
-1.0771e-17
3.875e-05
1.80878e-18
3.875e-05
-3.19564e-18
3.875e-05
2.26415e-18
3.875e-05
-1.81354e-18
3.875e-05
1.4662e-18
3.875e-05
-1.2237e-18
3.875e-05
7.20169e-19
3.875e-05
-3.66152e-19
3.875e-05
2.26207e-19
3.875e-05
5.35571e-20
3.875e-05
-4.26139e-19
3.875e-05
5.11554e-19
3.875e-05
-9.4699e-19
3.875e-05
-4.17316e-19
3.875e-05
6.50433e-19
3.875e-05
-7.45107e-17
-6.28795e-17
4.125e-05
1.32873e-17
4.125e-05
-1.57545e-17
4.125e-05
-7.16257e-18
4.125e-05
2.14286e-18
4.125e-05
-2.75412e-18
4.125e-05
2.06159e-18
4.125e-05
-1.64084e-18
4.125e-05
1.28232e-18
4.125e-05
-1.06302e-18
4.125e-05
6.73527e-19
4.125e-05
-3.53692e-19
4.125e-05
1.9006e-19
4.125e-05
4.65404e-20
4.125e-05
-3.60641e-19
4.125e-05
4.95969e-19
4.125e-05
-8.26729e-19
4.125e-05
5.79026e-20
4.125e-05
-1.1642e-19
4.125e-05
-4.1528e-17
-3.00164e-17
4.375e-05
1.84922e-17
4.375e-05
-2.21155e-18
4.375e-05
-4.16005e-18
4.375e-05
1.8818e-18
4.375e-05
-2.001e-18
4.375e-05
1.56056e-18
4.375e-05
-1.22519e-18
4.375e-05
9.42511e-19
4.375e-05
-7.72764e-19
4.375e-05
5.11742e-19
4.375e-05
-2.75029e-19
4.375e-05
1.32007e-19
4.375e-05
4.03779e-20
4.375e-05
-2.50457e-19
4.375e-05
3.76146e-19
4.375e-05
-6.0778e-19
4.375e-05
2.90917e-19
4.375e-05
-4.35643e-19
4.375e-05
-1.77245e-17
-8.54729e-18
4.625e-05
1.03942e-17
4.625e-05
1.07636e-18
4.625e-05
-1.59878e-18
4.625e-05
9.60052e-19
4.625e-05
-9.01339e-19
4.625e-05
7.23706e-19
4.625e-05
-5.74776e-19
4.625e-05
4.4032e-19
4.625e-05
-3.50103e-19
4.625e-05
2.40144e-19
4.625e-05
-1.31952e-19
4.625e-05
5.74464e-20
4.625e-05
1.98903e-20
4.625e-05
-1.0852e-19
4.625e-05
1.74381e-19
4.625e-05
-2.7265e-19
4.625e-05
2.20678e-19
4.625e-05
-3.04381e-19
4.625e-05
-4.16078e-18
2.81177e-19
4.875e-05
4.875e-05
4.875e-05
4.875e-05
4.875e-05
4.875e-05
4.875e-05
4.875e-05
4.875e-05
4.875e-05
4.875e-05
4.875e-05
4.875e-05
4.875e-05
4.875e-05
4.875e-05
4.875e-05
4.875e-05
4.875e-05
)
;

boundaryField
{
    top
    {
        type            calculated;
        value           uniform 0;
    }
    bottom
    {
        type            calculated;
        value           uniform 0;
    }
    inlet
    {
        type            calculated;
        value           nonuniform List<scalar> 
20
(
-1.25e-06
-3.75e-06
-6.25e-06
-8.75e-06
-1.125e-05
-1.375e-05
-1.625e-05
-1.875e-05
-2.125e-05
-2.375e-05
-2.625e-05
-2.875e-05
-3.125e-05
-3.375e-05
-3.625e-05
-3.875e-05
-4.125e-05
-4.375e-05
-4.625e-05
-4.875e-05
)
;
    }
    outlet
    {
        type            calculated;
        value           nonuniform List<scalar> 
20
(
1.25e-06
3.75e-06
6.25e-06
8.75e-06
1.125e-05
1.375e-05
1.625e-05
1.875e-05
2.125e-05
2.375e-05
2.625e-05
2.875e-05
3.125e-05
3.375e-05
3.625e-05
3.875e-05
4.125e-05
4.375e-05
4.625e-05
4.875e-05
)
;
    }
    frontAndBack
    {
        type            empty;
        value           nonuniform 0();
    }
}


// ************************************************************************* //
