/*--------------------------------*- C++ -*----------------------------------*\
| =========                 |                                                 |
| \\      /  F ield         | OpenFOAM: The Open Source CFD Toolbox           |
|  \\    /   O peration     | Version:  4.1                                   |
|   \\  /    A nd           | Web:      www.OpenFOAM.org                      |
|    \\/     M anipulation  |                                                 |
\*---------------------------------------------------------------------------*/
FoamFile
{
    version     2.0;
    format      ascii;
    class       volVectorField;
    location    "3.8";
    object      U;
}
// * * * * * * * * * * * * * * * * * * * * * * * * * * * * * * * * * * * * * //

dimensions      [0 1 -1 0 0 0 0];

internalField   nonuniform List<vector> 
400
(
(0.025 -1.16316e-14 0)
(0.025 -7.25231e-15 0)
(0.025 2.66568e-16 0)
(0.025 -6.33631e-16 0)
(0.025 4.46839e-16 0)
(0.025 -3.76331e-16 0)
(0.025 2.98844e-16 0)
(0.025 -2.31334e-16 0)
(0.025 1.73493e-16 0)
(0.025 -1.23652e-16 0)
(0.025 7.68677e-17 0)
(0.025 -2.77766e-17 0)
(0.025 -1.31784e-17 0)
(0.025 5.02581e-17 0)
(0.025 -9.77585e-17 0)
(0.025 1.32449e-16 0)
(0.025 -2.29789e-16 0)
(0.025 2.97263e-16 0)
(0.025 -4.08753e-15 0)
(0.025 -6.66073e-15 0)
(0.075 -4.89441e-14 0)
(0.075 -3.61184e-14 0)
(0.075 -9.92666e-17 0)
(0.075 -2.14216e-15 0)
(0.075 1.35991e-15 0)
(0.075 -1.17389e-15 0)
(0.075 9.2586e-16 0)
(0.075 -7.1446e-16 0)
(0.075 5.32696e-16 0)
(0.075 -3.83184e-16 0)
(0.075 2.42488e-16 0)
(0.075 -7.94212e-17 0)
(0.075 -4.55598e-17 0)
(0.075 1.52898e-16 0)
(0.075 -3.12092e-16 0)
(0.075 4.05393e-16 0)
(0.075 -8.296e-16 0)
(0.075 1.19146e-15 0)
(0.075 -2.20355e-14 0)
(0.075 -3.04323e-14 0)
(0.125 -1.08569e-13 0)
(0.125 -9.0136e-14 0)
(0.125 -2.6882e-15 0)
(0.125 -3.91072e-15 0)
(0.125 2.10341e-15 0)
(0.125 -1.89598e-15 0)
(0.125 1.47959e-15 0)
(0.125 -1.13547e-15 0)
(0.125 8.39984e-16 0)
(0.125 -6.11959e-16 0)
(0.125 3.96445e-16 0)
(0.125 -1.11703e-16 0)
(0.125 -8.35298e-17 0)
(0.125 2.33841e-16 0)
(0.125 -5.2108e-16 0)
(0.125 6.3232e-16 0)
(0.125 -1.64031e-15 0)
(0.125 2.30919e-15 0)
(0.125 -5.78129e-14 0)
(0.125 -7.20161e-14 0)
(0.175 -1.75733e-13 0)
(0.175 -1.56435e-13 0)
(0.175 -7.01791e-15 0)
(0.175 -5.47443e-15 0)
(0.175 2.44821e-15 0)
(0.175 -2.33271e-15 0)
(0.175 1.79722e-15 0)
(0.175 -1.36786e-15 0)
(0.175 1.00016e-15 0)
(0.175 -7.43995e-16 0)
(0.175 4.96852e-16 0)
(0.175 -1.13838e-16 0)
(0.175 -1.16204e-16 0)
(0.175 2.68659e-16 0)
(0.175 -6.66166e-16 0)
(0.175 7.47202e-16 0)
(0.175 -2.46993e-15 0)
(0.175 3.55472e-15 0)
(0.175 -1.04395e-13 0)
(0.175 -1.22952e-13 0)
(0.225 -2.39655e-13 0)
(0.225 -2.23561e-13 0)
(0.225 -1.24129e-14 0)
(0.225 -6.72943e-15 0)
(0.225 2.42419e-15 0)
(0.225 -2.49224e-15 0)
(0.225 1.8893e-15 0)
(0.225 -1.41783e-15 0)
(0.225 1.01978e-15 0)
(0.225 -7.84514e-16 0)
(0.225 5.43895e-16 0)
(0.225 -9.04457e-17 0)
(0.225 -1.38598e-16 0)
(0.225 2.6055e-16 0)
(0.225 -7.44558e-16 0)
(0.225 7.58416e-16 0)
(0.225 -3.24927e-15 0)
(0.225 4.74604e-15 0)
(0.225 -1.54765e-13 0)
(0.225 -1.76004e-13 0)
(0.275 -2.92753e-13 0)
(0.275 -2.82666e-13 0)
(0.275 -1.80633e-14 0)
(0.275 -7.62055e-15 0)
(0.275 2.11672e-15 0)
(0.275 -2.42437e-15 0)
(0.275 1.79953e-15 0)
(0.275 -1.32257e-15 0)
(0.275 9.2632e-16 0)
(0.275 -7.48588e-16 0)
(0.275 5.46339e-16 0)
(0.275 -5.09839e-17 0)
(0.275 -1.48016e-16 0)
(0.275 2.1975e-16 0)
(0.275 -7.65884e-16 0)
(0.275 6.85837e-16 0)
(0.275 -3.92151e-15 0)
(0.275 5.83472e-15 0)
(0.275 -2.02959e-13 0)
(0.275 -2.25381e-13 0)
(0.325 -3.29865e-13 0)
(0.325 -3.27537e-13 0)
(0.325 -2.32956e-14 0)
(0.325 -8.10171e-15 0)
(0.325 1.59514e-15 0)
(0.325 -2.16583e-15 0)
(0.325 1.56324e-15 0)
(0.325 -1.11208e-15 0)
(0.325 7.44987e-16 0)
(0.325 -6.54257e-16 0)
(0.325 5.14344e-16 0)
(0.325 -3.49515e-18 0)
(0.325 -1.44407e-16 0)
(0.325 1.53051e-16 0)
(0.325 -7.34587e-16 0)
(0.325 5.47615e-16 0)
(0.325 -4.43499e-15 0)
(0.325 6.7381e-15 0)
(0.325 -2.44142e-13 0)
(0.325 -2.66352e-13 0)
(0.375 -3.47725e-13 0)
(0.375 -3.53985e-13 0)
(0.375 -2.75388e-14 0)
(0.375 -8.13691e-15 0)
(0.375 9.18594e-16 0)
(0.375 -1.74935e-15 0)
(0.375 1.21361e-15 0)
(0.375 -8.15184e-16 0)
(0.375 4.93223e-16 0)
(0.375 -5.08011e-16 0)
(0.375 4.50314e-16 0)
(0.375 4.30154e-17 0)
(0.375 -1.29756e-16 0)
(0.375 7.12256e-17 0)
(0.375 -6.55518e-16 0)
(0.375 3.52795e-16 0)
(0.375 -4.74468e-15 0)
(0.375 7.38009e-15 0)
(0.375 -2.74488e-13 0)
(0.375 -2.95182e-13 0)
(0.425 -3.45205e-13 0)
(0.425 -3.60072e-13 0)
(0.425 -3.03647e-14 0)
(0.425 -7.71995e-15 0)
(0.425 1.47552e-16 0)
(0.425 -1.21366e-15 0)
(0.425 7.7634e-16 0)
(0.425 -4.57701e-16 0)
(0.425 1.93889e-16 0)
(0.425 -3.26707e-16 0)
(0.425 3.67074e-16 0)
(0.425 8.84524e-17 0)
(0.425 -1.06558e-16 0)
(0.425 -1.86791e-17 0)
(0.425 -5.38099e-16 0)
(0.425 1.18978e-16 0)
(0.425 -4.82906e-15 0)
(0.425 7.69175e-15 0)
(0.425 -2.91408e-13 0)
(0.425 -3.0941e-13 0)
(0.475 -3.23254e-13 0)
(0.475 -3.46063e-13 0)
(0.475 -3.15263e-14 0)
(0.475 -6.87903e-15 0)
(0.475 -6.5838e-16 0)
(0.475 -5.96269e-16 0)
(0.475 2.84636e-16 0)
(0.475 -6.59916e-17 0)
(0.475 -1.24006e-16 0)
(0.475 -1.27413e-16 0)
(0.475 2.65952e-16 0)
(0.475 1.30279e-16 0)
(0.475 -7.66062e-17 0)
(0.475 -1.12362e-16 0)
(0.475 -3.92246e-16 0)
(0.475 -1.28421e-16 0)
(0.475 -4.67922e-15 0)
(0.475 7.61758e-15 0)
(0.475 -2.93716e-13 0)
(0.475 -3.08024e-13 0)
(0.525 -2.84708e-13 0)
(0.525 -3.1427e-13 0)
(0.525 -3.09879e-14 0)
(0.525 -5.67591e-15 0)
(0.525 -1.4408e-15 0)
(0.525 6.3049e-17 0)
(0.525 -2.22405e-16 0)
(0.525 3.31673e-16 0)
(0.525 -4.42682e-16 0)
(0.525 7.65683e-17 0)
(0.525 1.48355e-16 0)
(0.525 1.68259e-16 0)
(0.525 -4.51615e-17 0)
(0.525 -2.04381e-16 0)
(0.525 -2.29286e-16 0)
(0.525 -3.72796e-16 0)
(0.525 -4.30506e-15 0)
(0.525 7.14202e-15 0)
(0.525 -2.81641e-13 0)
(0.525 -2.91494e-13 0)
(0.575 -2.33919e-13 0)
(0.575 -2.68691e-13 0)
(0.575 -2.891e-14 0)
(0.575 -4.21518e-15 0)
(0.575 -2.14623e-15 0)
(0.575 7.15564e-16 0)
(0.575 -7.09515e-16 0)
(0.575 7.10435e-16 0)
(0.575 -7.40819e-16 0)
(0.575 2.73902e-16 0)
(0.575 2.63647e-17 0)
(0.575 1.9831e-16 0)
(0.575 -1.57899e-17 0)
(0.575 -2.91071e-16 0)
(0.575 -5.44438e-17 0)
(0.575 -5.96596e-16 0)
(0.575 -3.73572e-15 0)
(0.575 6.28649e-15 0)
(0.575 -2.56725e-13 0)
(0.575 -2.61676e-13 0)
(0.625 -1.76348e-13 0)
(0.625 -2.14571e-13 0)
(0.625 -2.56059e-14 0)
(0.625 -2.62383e-15 0)
(0.625 -2.73185e-15 0)
(0.625 1.31322e-15 0)
(0.625 -1.14903e-15 0)
(0.625 1.0483e-15 0)
(0.625 -9.95451e-16 0)
(0.625 4.46685e-16 0)
(0.625 -9.25658e-17 0)
(0.625 2.18284e-16 0)
(0.625 1.35823e-17 0)
(0.625 -3.62935e-16 0)
(0.625 1.24828e-16 0)
(0.625 -7.85427e-16 0)
(0.625 -3.02843e-15 0)
(0.625 5.12948e-15 0)
(0.625 -2.21665e-13 0)
(0.625 -2.2163e-13 0)
(0.675 -1.17973e-13 0)
(0.675 -1.57778e-13 0)
(0.675 -2.14967e-14 0)
(0.675 -1.03814e-15 0)
(0.675 -3.1536e-15 0)
(0.675 1.80975e-15 0)
(0.675 -1.51141e-15 0)
(0.675 1.31728e-15 0)
(0.675 -1.1834e-15 0)
(0.675 5.82102e-16 0)
(0.675 -2.06752e-16 0)
(0.675 2.36416e-16 0)
(0.675 3.78235e-17 0)
(0.675 -4.179e-16 0)
(0.675 2.87507e-16 0)
(0.675 -9.20103e-16 0)
(0.675 -2.24019e-15 0)
(0.675 3.78548e-15 0)
(0.675 -1.80005e-13 0)
(0.675 -1.75311e-13 0)
(0.725 -6.47548e-14 0)
(0.725 -1.04207e-13 0)
(0.725 -1.70562e-14 0)
(0.725 3.83597e-16 0)
(0.725 -3.36672e-15 0)
(0.725 2.15232e-15 0)
(0.725 -1.75689e-15 0)
(0.725 1.48165e-15 0)
(0.725 -1.28143e-15 0)
(0.725 6.83441e-16 0)
(0.725 -3.04425e-16 0)
(0.725 2.49812e-16 0)
(0.725 4.78889e-17 0)
(0.725 -4.50488e-16 0)
(0.725 4.24024e-16 0)
(0.725 -9.93662e-16 0)
(0.725 -1.44062e-15 0)
(0.725 2.40034e-15 0)
(0.725 -1.35814e-13 0)
(0.725 -1.27245e-13 0)
(0.775 -2.18694e-14 0)
(0.775 -5.8976e-14 0)
(0.775 -1.27291e-14 0)
(0.775 1.48792e-15 0)
(0.775 -3.34353e-15 0)
(0.775 2.30536e-15 0)
(0.775 -1.85598e-15 0)
(0.775 1.51975e-15 0)
(0.775 -1.28057e-15 0)
(0.775 7.32557e-16 0)
(0.775 -3.63489e-16 0)
(0.775 2.44105e-16 0)
(0.775 5.25928e-17 0)
(0.775 -4.49294e-16 0)
(0.775 5.08305e-16 0)
(0.775 -9.92573e-16 0)
(0.775 -7.11318e-16 0)
(0.775 1.14104e-15 0)
(0.775 -9.32134e-14 0)
(0.775 -8.20212e-14 0)
(0.825 6.65224e-15 0)
(0.825 -2.58782e-14 0)
(0.825 -8.81976e-15 0)
(0.825 2.11792e-15 0)
(0.825 -3.04887e-15 0)
(0.825 2.23083e-15 0)
(0.825 -1.77878e-15 0)
(0.825 1.41275e-15 0)
(0.825 -1.17385e-15 0)
(0.825 7.17994e-16 0)
(0.825 -3.7313e-16 0)
(0.825 2.12638e-16 0)
(0.825 5.19543e-17 0)
(0.825 -4.0369e-16 0)
(0.825 5.23675e-16 0)
(0.825 -9.09227e-16 0)
(0.825 -1.24515e-16 0)
(0.825 1.70289e-16 0)
(0.825 -5.60276e-14 0)
(0.825 -4.39371e-14 0)
(0.875 1.90418e-14 0)
(0.875 -6.21244e-15 0)
(0.875 -5.4768e-15 0)
(0.875 2.13504e-15 0)
(0.875 -2.428e-15 0)
(0.875 1.86202e-15 0)
(0.875 -1.47214e-15 0)
(0.875 1.13904e-15 0)
(0.875 -9.37018e-16 0)
(0.875 6.09862e-16 0)
(0.875 -3.25354e-16 0)
(0.875 1.64086e-16 0)
(0.875 4.40329e-17 0)
(0.875 -3.11397e-16 0)
(0.875 4.52329e-16 0)
(0.875 -7.3337e-16 0)
(0.875 2.34107e-16 0)
(0.875 -3.86185e-16 0)
(0.875 -2.71922e-14 0)
(0.875 -1.64079e-14 0)
(0.925 1.64879e-14 0)
(0.925 1.31269e-15 0)
(0.925 -2.69636e-15 0)
(0.925 1.51457e-15 0)
(0.925 -1.47414e-15 0)
(0.925 1.17272e-15 0)
(0.925 -9.23675e-16 0)
(0.925 7.07029e-16 0)
(0.925 -5.72287e-16 0)
(0.925 3.86824e-16 0)
(0.925 -2.10414e-16 0)
(0.925 9.47652e-17 0)
(0.925 3.24326e-17 0)
(0.925 -1.81145e-16 0)
(0.925 2.84011e-16 0)
(0.925 -4.48317e-16 0)
(0.925 3.08714e-16 0)
(0.925 -4.41352e-16 0)
(0.925 -8.77224e-15 0)
(0.925 -1.67538e-15 0)
(0.975 6.15783e-15 0)
(0.975 1.36952e-15 0)
(0.975 -7.4701e-16 0)
(0.975 5.20276e-16 0)
(0.975 -4.66845e-16 0)
(0.975 3.79261e-16 0)
(0.975 -2.99589e-16 0)
(0.975 2.27805e-16 0)
(0.975 -1.81064e-16 0)
(0.975 1.26781e-16 0)
(0.975 -6.97762e-17 0)
(0.975 2.90411e-17 0)
(0.975 1.03884e-17 0)
(0.975 -5.55665e-17 0)
(0.975 9.28894e-17 0)
(0.975 -1.41784e-16 0)
(0.975 1.32538e-16 0)
(0.975 -2.04246e-16 0)
(0.975 -1.15221e-15 0)
(0.975 1.22702e-15 0)
)
;

boundaryField
{
    top
    {
        type            fixedValue;
        value           uniform (1 0 0);
    }
    bottom
    {
        type            fixedValue;
        value           uniform (0 0 0);
    }
    inlet
    {
        type            zeroGradient;
    }
    outlet
    {
        type            zeroGradient;
    }
    frontAndBack
    {
        type            empty;
    }
}


// ************************************************************************* //
