/*--------------------------------*- C++ -*----------------------------------*\
| =========                 |                                                 |
| \\      /  F ield         | OpenFOAM: The Open Source CFD Toolbox           |
|  \\    /   O peration     | Version:  4.1                                   |
|   \\  /    A nd           | Web:      www.OpenFOAM.org                      |
|    \\/     M anipulation  |                                                 |
\*---------------------------------------------------------------------------*/
FoamFile
{
    version     2.0;
    format      ascii;
    class       surfaceScalarField;
    location    "1.9";
    object      phi;
}
// * * * * * * * * * * * * * * * * * * * * * * * * * * * * * * * * * * * * * //

dimensions      [0 3 -1 0 0 0 0];

internalField   nonuniform List<scalar> 
760
(
-1.9164e-05
1.57485e-12
-1.9164e-05
9.25185e-13
-1.9164e-05
7.31448e-12
-1.9164e-05
2.6741e-12
-1.9164e-05
1.11968e-11
-1.9164e-05
3.81242e-12
-1.9164e-05
1.43841e-11
-1.9164e-05
4.35833e-12
-1.9164e-05
1.60041e-11
-1.9164e-05
4.71227e-12
-1.9164e-05
1.55397e-11
-1.9164e-05
5.10604e-12
-1.9164e-05
1.35817e-11
-1.9164e-05
5.05691e-12
-1.9164e-05
1.01469e-11
-1.9164e-05
5.22714e-12
-1.9164e-05
6.50239e-12
-1.9164e-05
3.28987e-12
-1.9164e-05
3.03169e-12
3.37233e-12
-5.11592e-05
3.25967e-12
-5.11592e-05
3.0329e-12
-5.11592e-05
1.38606e-11
-5.11592e-05
6.2877e-12
-5.11592e-05
2.08218e-11
-5.11592e-05
8.77238e-12
-5.11592e-05
2.64685e-11
-5.11592e-05
1.01758e-11
-5.11592e-05
2.92734e-11
-5.11592e-05
1.09333e-11
-5.11592e-05
2.83841e-11
-5.11592e-05
1.14269e-11
-5.11592e-05
2.48738e-11
-5.11592e-05
1.09479e-11
-5.11592e-05
1.85945e-11
-5.11592e-05
1.06525e-11
-5.11592e-05
1.2251e-11
-5.11592e-05
6.29521e-12
-5.11592e-05
5.62602e-12
6.63617e-12
-7.68215e-05
5.62909e-12
-7.68215e-05
6.79426e-12
-7.68215e-05
2.07461e-11
-7.68215e-05
1.19588e-11
-7.68215e-05
3.07001e-11
-7.68215e-05
1.6327e-11
-7.68215e-05
3.85689e-11
-7.68215e-05
1.90611e-11
-7.68215e-05
4.23293e-11
-7.68215e-05
2.03044e-11
-7.68215e-05
4.09738e-11
-7.68215e-05
2.05233e-11
-7.68215e-05
3.60219e-11
-7.68215e-05
1.90122e-11
-7.68215e-05
2.6996e-11
-7.68215e-05
1.73776e-11
-7.68215e-05
1.83019e-11
-7.68215e-05
9.67232e-12
-7.68215e-05
8.4077e-12
1.01388e-11
-9.61511e-05
8.64651e-12
-9.61511e-05
1.20449e-11
-9.61511e-05
2.75261e-11
-9.61511e-05
1.93134e-11
-9.61511e-05
4.02222e-11
-9.61511e-05
2.58784e-11
-9.61511e-05
4.99002e-11
-9.61511e-05
3.02591e-11
-9.61511e-05
5.42839e-11
-9.61511e-05
3.1991e-11
-9.61511e-05
5.24205e-11
-9.61511e-05
3.15593e-11
-9.61511e-05
4.6203e-11
-9.61511e-05
2.84772e-11
-9.61511e-05
3.47089e-11
-9.61511e-05
2.47338e-11
-9.61511e-05
2.41377e-11
-9.61511e-05
1.30584e-11
-9.61511e-05
1.11473e-11
1.34581e-11
-0.000109148
1.2047e-11
-0.000109148
1.79737e-11
-0.000109148
3.40012e-11
-0.000109148
2.73443e-11
-0.000109148
4.92856e-11
-0.000109148
3.61975e-11
-0.000109148
6.05084e-11
-0.000109148
4.23789e-11
-0.000109148
6.53085e-11
-0.000109148
4.46197e-11
-0.000109148
6.29233e-11
-0.000109148
4.33735e-11
-0.000109148
5.55759e-11
-0.000109148
3.84866e-11
-0.000109148
4.18329e-11
-0.000109148
3.22743e-11
-0.000109148
2.97261e-11
-0.000109148
1.63916e-11
-0.000109148
1.38818e-11
1.66787e-11
-0.000115812
1.5467e-11
-0.000115812
2.3854e-11
-0.000115812
3.95042e-11
-0.000115812
3.50103e-11
-0.000115812
5.69524e-11
-0.000115812
4.5974e-11
-0.000115812
6.93132e-11
-0.000115812
5.39121e-11
-0.000115812
7.42957e-11
-0.000115812
5.66512e-11
-0.000115812
7.14263e-11
-0.000115812
5.45563e-11
-0.000115812
6.31879e-11
-0.000115812
4.78952e-11
-0.000115812
4.76226e-11
-0.000115812
3.91649e-11
-0.000115812
3.44998e-11
-0.000115812
1.93499e-11
-0.000115812
1.63083e-11
1.95096e-11
-0.000116143
1.86525e-11
-0.000116143
2.9142e-11
-0.000116143
4.37499e-11
-0.000116143
4.1645e-11
-0.000116143
6.28139e-11
-0.000116143
5.44017e-11
-0.000116143
7.58732e-11
-0.000116143
6.39136e-11
-0.000116143
8.08234e-11
-0.000116143
6.71185e-11
-0.000116143
7.75338e-11
-0.000116143
6.42374e-11
-0.000116143
6.8664e-11
-0.000116143
5.60202e-11
-0.000116143
5.17751e-11
-0.000116143
4.49332e-11
-0.000116143
3.81738e-11
-0.000116143
2.18207e-11
-0.000116143
1.82213e-11
2.17532e-11
-0.000110141
2.14314e-11
-0.000110141
3.35108e-11
-0.000110141
4.66663e-11
-0.000110141
4.69397e-11
-0.000110141
6.6769e-11
-0.000110141
6.11308e-11
-0.000110141
8.01061e-11
-0.000110141
7.19575e-11
-0.000110141
8.48433e-11
-0.000110141
7.55766e-11
-0.000110141
8.1212e-11
-0.000110141
7.20191e-11
-0.000110141
7.19533e-11
-0.000110141
6.25562e-11
-0.000110141
5.42527e-11
-0.000110141
4.93776e-11
-0.000110141
4.06415e-11
-0.000110141
2.38128e-11
-0.000110141
1.95063e-11
2.32517e-11
-9.7807e-05
2.36545e-11
-9.7807e-05
3.67162e-11
-9.7807e-05
4.82327e-11
-9.7807e-05
5.06897e-11
-9.7807e-05
6.87879e-11
-9.7807e-05
6.59286e-11
-9.7807e-05
8.20056e-11
-9.7807e-05
7.77523e-11
-9.7807e-05
8.63801e-11
-9.7807e-05
8.17122e-11
-9.7807e-05
8.24952e-11
-9.7807e-05
7.76217e-11
-9.7807e-05
7.30697e-11
-9.7807e-05
6.72796e-11
-9.7807e-05
5.50702e-11
-9.7807e-05
5.23628e-11
-9.7807e-05
4.18302e-11
-9.7807e-05
2.53225e-11
-9.7807e-05
2.00894e-11
2.38911e-11
-7.91398e-05
2.51863e-11
-7.91398e-05
3.85898e-11
-7.91398e-05
4.84555e-11
-7.91398e-05
5.27765e-11
-7.91398e-05
6.88916e-11
-7.91398e-05
6.86611e-11
-7.91398e-05
8.16241e-11
-7.91398e-05
8.11271e-11
-7.91398e-05
8.55173e-11
-7.91398e-05
8.53359e-11
-7.91398e-05
8.1475e-11
-7.91398e-05
8.08781e-11
-7.91398e-05
7.20886e-11
-7.91398e-05
7.00468e-11
-7.91398e-05
5.42968e-11
-7.91398e-05
5.38204e-11
-7.91398e-05
4.17163e-11
-7.91398e-05
2.63345e-11
-7.91398e-05
1.99517e-11
2.3619e-11
-5.41398e-05
2.59054e-11
-5.41398e-05
3.90257e-11
-5.41398e-05
4.73526e-11
-5.41398e-05
5.31355e-11
-5.41398e-05
6.71252e-11
-5.41398e-05
6.92521e-11
-5.41398e-05
7.90418e-11
-5.41398e-05
8.19841e-11
-5.41398e-05
8.23643e-11
-5.41398e-05
8.63347e-11
-5.41398e-05
7.8269e-11
-5.41398e-05
8.16913e-11
-5.41398e-05
6.91194e-11
-5.41398e-05
7.07624e-11
-5.41398e-05
5.20295e-11
-5.41398e-05
5.37236e-11
-5.41398e-05
4.03179e-11
-5.41398e-05
2.68091e-11
-5.41398e-05
1.9118e-11
2.24509e-11
-2.2807e-05
2.57171e-11
-2.2807e-05
3.79831e-11
-2.2807e-05
4.49585e-11
-2.2807e-05
5.17517e-11
-2.2807e-05
6.35558e-11
-2.2807e-05
6.76754e-11
-2.2807e-05
7.43626e-11
-2.2807e-05
8.02868e-11
-2.2807e-05
7.70525e-11
-2.2807e-05
8.46613e-11
-2.2807e-05
7.30147e-11
-2.2807e-05
8.00211e-11
-2.2807e-05
6.42992e-11
-2.2807e-05
6.93727e-11
-2.2807e-05
4.83835e-11
-2.2807e-05
5.2076e-11
-2.2807e-05
3.76966e-11
-2.2807e-05
2.66844e-11
-2.2807e-05
1.76445e-11
2.04675e-11
1.48586e-05
2.45729e-11
1.48586e-05
3.54981e-11
1.48586e-05
4.13359e-11
1.48586e-05
4.86668e-11
1.48586e-05
5.82806e-11
1.48586e-05
6.39589e-11
1.48586e-05
6.77223e-11
1.48586e-05
7.60607e-11
1.48586e-05
6.97418e-11
1.48586e-05
8.0332e-11
1.48586e-05
6.58744e-11
1.48586e-05
7.58814e-11
1.48586e-05
5.77935e-11
1.48586e-05
6.58653e-11
1.48586e-05
4.34883e-11
1.48586e-05
4.89062e-11
1.48586e-05
3.3955e-11
1.48586e-05
2.58802e-11
1.48586e-05
1.56074e-11
1.78039e-11
5.8857e-05
2.24963e-11
5.8857e-05
3.17051e-11
5.8857e-05
3.65986e-11
5.8857e-05
4.40014e-11
5.8857e-05
5.14552e-11
5.8857e-05
5.82094e-11
5.8857e-05
5.93215e-11
5.8857e-05
6.94153e-11
5.8857e-05
6.06559e-11
5.8857e-05
7.34468e-11
5.8857e-05
5.70683e-11
5.8857e-05
6.9357e-11
5.8857e-05
4.98211e-11
5.8857e-05
6.02858e-11
5.8857e-05
3.75041e-11
5.8857e-05
4.42786e-11
5.8857e-05
2.9244e-11
5.8857e-05
2.4309e-11
5.8857e-05
1.31059e-11
1.46393e-11
0.000109188
1.95875e-11
0.000109188
2.68265e-11
0.000109188
3.08947e-11
0.000109188
3.7927e-11
0.000109188
4.32677e-11
0.000109188
5.05779e-11
0.000109188
4.93914e-11
0.000109188
6.05077e-11
0.000109188
5.00471e-11
0.000109188
6.41522e-11
0.000109188
4.68389e-11
0.000109188
6.05732e-11
0.000109188
4.06199e-11
0.000109188
5.27147e-11
0.000109188
3.05933e-11
0.000109188
3.82808e-11
0.000109188
2.37352e-11
0.000109188
2.18741e-11
0.000109188
1.02529e-11
1.11834e-11
0.000165852
1.60571e-11
0.000165852
2.12535e-11
0.000165852
2.45528e-11
0.000165852
3.08402e-11
0.000165852
3.41838e-11
0.000165852
4.15048e-11
0.000165852
3.85145e-11
0.000165852
4.98222e-11
0.000165852
3.85567e-11
0.000165852
5.29306e-11
0.000165852
3.58134e-11
0.000165852
4.99706e-11
0.000165852
3.07742e-11
0.000165852
4.35089e-11
0.000165852
2.31862e-11
0.000165852
3.12141e-11
0.000165852
1.78045e-11
0.000165852
1.85942e-11
0.000165852
7.28302e-12
7.7166e-12
0.000228849
1.22838e-11
0.000228849
1.55741e-11
0.000228849
1.81489e-11
0.000228849
2.34567e-11
0.000228849
2.5046e-11
0.000228849
3.18873e-11
0.000228849
2.77175e-11
0.000228849
3.84016e-11
0.000228849
2.72912e-11
0.000228849
4.08679e-11
0.000228849
2.50641e-11
0.000228849
3.85723e-11
0.000228849
2.12565e-11
0.000228849
3.35452e-11
0.000228849
1.60137e-11
0.000228849
2.37671e-11
0.000228849
1.20588e-11
0.000228849
1.47436e-11
0.000228849
4.52037e-12
4.59956e-12
0.000298178
8.08876e-12
0.000298178
9.85894e-12
0.000298178
1.16567e-11
0.000298178
1.56436e-11
0.000298178
1.59692e-11
0.000298178
2.15174e-11
0.000298178
1.73377e-11
0.000298178
2.6e-11
0.000298178
1.67696e-11
0.000298178
2.77123e-11
0.000298178
1.52079e-11
0.000298178
2.6162e-11
0.000298178
1.27161e-11
0.000298178
2.26952e-11
0.000298178
9.60977e-12
0.000298178
1.59323e-11
0.000298178
7.02992e-12
0.000298178
1.02432e-11
0.000298178
2.37393e-12
2.20351e-12
0.000373841
4.11218e-12
0.000373841
4.89125e-12
0.000373841
5.95661e-12
0.000373841
8.41673e-12
0.000373841
8.14958e-12
0.000373841
1.17429e-11
0.000373841
8.70193e-12
0.000373841
1.42352e-11
0.000373841
8.29087e-12
0.000373841
1.51921e-11
0.000373841
7.42991e-12
0.000373841
1.43646e-11
0.000373841
6.14127e-12
0.000373841
1.24098e-11
0.000373841
4.68529e-12
0.000373841
8.69943e-12
0.000373841
3.29727e-12
0.000373841
5.74102e-12
0.000373841
9.80733e-13
8.22521e-13
0.000455836
0.000455836
0.000455836
0.000455836
0.000455836
0.000455836
0.000455836
0.000455836
0.000455836
0.000455836
0.000455836
0.000455836
0.000455836
0.000455836
0.000455836
0.000455836
0.000455836
0.000455836
0.000455836
)
;

boundaryField
{
    top
    {
        type            calculated;
        value           uniform 0;
    }
    bottom
    {
        type            calculated;
        value           uniform 0;
    }
    inlet
    {
        type            calculated;
        value           nonuniform List<scalar> 
20
(
1.9164e-05
5.11592e-05
7.68215e-05
9.61511e-05
0.000109148
0.000115812
0.000116143
0.000110141
9.7807e-05
7.91398e-05
5.41398e-05
2.2807e-05
-1.48586e-05
-5.8857e-05
-0.000109188
-0.000165852
-0.000228849
-0.000298178
-0.000373841
-0.000455836
)
;
    }
    outlet
    {
        type            calculated;
        value           nonuniform List<scalar> 
20
(
-1.9164e-05
-5.11592e-05
-7.68215e-05
-9.61511e-05
-0.000109148
-0.000115812
-0.000116143
-0.000110141
-9.7807e-05
-7.91398e-05
-5.41398e-05
-2.2807e-05
1.48586e-05
5.8857e-05
0.000109188
0.000165852
0.000228849
0.000298178
0.000373841
0.000455836
)
;
    }
    frontAndBack
    {
        type            empty;
        value           nonuniform 0();
    }
}


// ************************************************************************* //
