/*--------------------------------*- C++ -*----------------------------------*\
| =========                 |                                                 |
| \\      /  F ield         | OpenFOAM: The Open Source CFD Toolbox           |
|  \\    /   O peration     | Version:  4.1                                   |
|   \\  /    A nd           | Web:      www.OpenFOAM.org                      |
|    \\/     M anipulation  |                                                 |
\*---------------------------------------------------------------------------*/
FoamFile
{
    version     2.0;
    format      ascii;
    class       volVectorField;
    location    "1.9";
    object      U;
}
// * * * * * * * * * * * * * * * * * * * * * * * * * * * * * * * * * * * * * //

dimensions      [0 1 -1 0 0 0 0];

internalField   nonuniform List<vector> 
400
(
(-0.38328 6.78448e-10 0)
(-0.38328 3.34131e-10 0)
(-0.38328 3.29616e-09 0)
(-0.38328 1.09638e-09 0)
(-0.38328 5.04342e-09 0)
(-0.38328 1.55726e-09 0)
(-0.38328 6.48318e-09 0)
(-0.38328 1.75585e-09 0)
(-0.38328 7.21503e-09 0)
(-0.38328 1.89802e-09 0)
(-0.38328 7.00001e-09 0)
(-0.38328 2.0933e-09 0)
(-0.38328 6.10454e-09 0)
(-0.38328 2.10705e-09 0)
(-0.38328 4.55046e-09 0)
(-0.38328 2.23886e-09 0)
(-0.38328 2.88824e-09 0)
(-0.38328 1.42828e-09 0)
(-0.38328 1.31581e-09 0)
(-0.38328 1.45041e-09 0)
(-1.02318 2.48649e-09 0)
(-1.02318 2.08781e-09 0)
(-1.02318 1.10881e-08 0)
(-1.02318 4.93126e-09 0)
(-1.02318 1.68035e-08 0)
(-1.02318 6.91545e-09 0)
(-1.02318 2.14348e-08 0)
(-1.02318 7.95292e-09 0)
(-1.02318 2.37558e-08 0)
(-1.02318 8.51583e-09 0)
(-1.02318 2.30514e-08 0)
(-1.02318 8.92828e-09 0)
(-1.02318 2.01898e-08 0)
(-1.02318 8.57949e-09 0)
(-1.02318 1.5117e-08 0)
(-1.02318 8.42549e-09 0)
(-1.02318 9.85157e-09 0)
(-1.02318 5.12182e-09 0)
(-1.02318 4.51277e-09 0)
(-1.02318 5.12309e-09 0)
(-1.53643 4.41987e-09 0)
(-1.53643 4.80898e-09 0)
(-1.53643 1.75221e-08 0)
(-1.53643 9.16735e-09 0)
(-1.53643 2.61165e-08 0)
(-1.53643 1.26185e-08 0)
(-1.53643 3.29947e-08 0)
(-1.53643 1.4675e-08 0)
(-1.53643 3.63442e-08 0)
(-1.53643 1.56711e-08 0)
(-1.53643 3.5207e-08 0)
(-1.53643 1.60393e-08 0)
(-1.53643 3.09028e-08 0)
(-1.53643 1.50572e-08 0)
(-1.53643 2.31342e-08 0)
(-1.53643 1.41182e-08 0)
(-1.53643 1.54648e-08 0)
(-1.53643 8.10092e-09 0)
(-1.53643 7.05019e-09 0)
(-1.53643 8.42662e-09 0)
(-1.92302 7.06017e-09 0)
(-1.92302 9.37034e-09 0)
(-1.92302 2.40728e-08 0)
(-1.92302 1.56193e-08 0)
(-1.92302 3.53582e-08 0)
(-1.92302 2.10811e-08 0)
(-1.92302 4.41027e-08 0)
(-1.92302 2.46216e-08 0)
(-1.92302 4.81615e-08 0)
(-1.92302 2.6097e-08 0)
(-1.92302 4.65556e-08 0)
(-1.92302 2.59767e-08 0)
(-1.92302 4.09865e-08 0)
(-1.92302 2.36785e-08 0)
(-1.92302 3.07573e-08 0)
(-1.92302 2.09763e-08 0)
(-1.92302 2.1154e-08 0)
(-1.92302 1.1339e-08 0)
(-1.92302 9.67834e-09 0)
(-1.92302 1.16982e-08 0)
(-2.18296 1.02878e-08 0)
(-2.18296 1.49572e-08 0)
(-2.18296 3.07319e-08 0)
(-2.18296 2.32776e-08 0)
(-2.18296 4.4694e-08 0)
(-2.18296 3.09715e-08 0)
(-2.18296 5.51308e-08 0)
(-2.18296 3.62402e-08 0)
(-2.18296 5.9715e-08 0)
(-2.18296 3.82251e-08 0)
(-2.18296 5.75925e-08 0)
(-2.18296 3.7388e-08 0)
(-2.18296 5.08192e-08 0)
(-2.18296 3.34175e-08 0)
(-2.18296 3.82137e-08 0)
(-2.18296 2.84463e-08 0)
(-2.18296 2.68987e-08 0)
(-2.18296 1.46996e-08 0)
(-2.18296 1.24396e-08 0)
(-2.18296 1.50196e-08 0)
(-2.31624 1.37245e-08 0)
(-2.31624 2.08908e-08 0)
(-2.31624 3.67181e-08 0)
(-2.31624 3.11219e-08 0)
(-2.31624 5.30531e-08 0)
(-2.31624 4.10022e-08 0)
(-2.31624 6.48259e-08 0)
(-2.31624 4.80565e-08 0)
(-2.31624 6.97031e-08 0)
(-2.31624 5.0549e-08 0)
(-2.31624 6.70777e-08 0)
(-2.31624 4.88825e-08 0)
(-2.31624 5.92965e-08 0)
(-2.31624 4.31238e-08 0)
(-2.31624 4.46592e-08 0)
(-2.31624 3.56621e-08 0)
(-2.31624 3.20772e-08 0)
(-2.31624 1.78302e-08 0)
(-2.31624 1.50384e-08 0)
(-2.31624 1.80622e-08 0)
(-2.32286 1.70573e-08 0)
(-2.32286 2.65024e-08 0)
(-2.32286 4.15899e-08 0)
(-2.32286 3.82632e-08 0)
(-2.32286 5.98121e-08 0)
(-2.32286 5.00826e-08 0)
(-2.32286 7.24973e-08 0)
(-2.32286 5.8806e-08 0)
(-2.32286 7.74443e-08 0)
(-2.32286 6.17824e-08 0)
(-2.32286 7.43666e-08 0)
(-2.32286 5.93015e-08 0)
(-2.32286 6.58253e-08 0)
(-2.32286 5.18796e-08 0)
(-2.32286 4.96186e-08 0)
(-2.32286 4.19863e-08 0)
(-2.32286 3.62935e-08 0)
(-2.32286 2.05302e-08 0)
(-2.32286 1.72307e-08 0)
(-2.32286 2.06213e-08 0)
(-2.20283 2.00713e-08 0)
(-2.20283 3.13677e-08 0)
(-2.20283 4.51765e-08 0)
(-2.20283 4.42354e-08 0)
(-2.20283 6.47296e-08 0)
(-2.20283 5.76655e-08 0)
(-2.20283 7.79002e-08 0)
(-2.20283 6.78394e-08 0)
(-2.20283 8.27229e-08 0)
(-2.20283 7.12568e-08 0)
(-2.20283 7.92648e-08 0)
(-2.20283 6.80454e-08 0)
(-2.20283 7.02129e-08 0)
(-2.20283 5.92196e-08 0)
(-2.20283 5.29393e-08 0)
(-2.20283 4.71027e-08 0)
(-2.20283 3.9368e-08 0)
(-2.20283 2.27579e-08 0)
(-2.20283 1.88623e-08 0)
(-2.20283 2.25201e-08 0)
(-1.95614 2.25994e-08 0)
(-1.95614 3.51853e-08 0)
(-1.95614 4.74201e-08 0)
(-1.95614 4.87578e-08 0)
(-1.95614 6.77187e-08 0)
(-1.95614 6.34265e-08 0)
(-1.95614 8.09644e-08 0)
(-1.95614 7.47588e-08 0)
(-1.95614 8.54993e-08 0)
(-1.95614 7.85528e-08 0)
(-1.95614 8.17438e-08 0)
(-1.95614 7.47383e-08 0)
(-1.95614 7.24144e-08 0)
(-1.95614 6.48484e-08 0)
(-1.95614 5.45864e-08 0)
(-1.95614 5.08211e-08 0)
(-1.95614 4.11948e-08 0)
(-1.95614 2.45019e-08 0)
(-1.95614 1.98265e-08 0)
(-1.95614 2.36162e-08 0)
(-1.5828 2.44979e-08 0)
(-1.5828 3.77499e-08 0)
(-1.5828 4.8318e-08 0)
(-1.5828 5.16755e-08 0)
(-1.5828 6.87816e-08 0)
(-1.5828 6.71914e-08 0)
(-1.5828 8.17215e-08 0)
(-1.5828 7.93433e-08 0)
(-1.5828 8.58364e-08 0)
(-1.5828 8.34303e-08 0)
(-1.5828 8.18751e-08 0)
(-1.5828 7.91673e-08 0)
(-1.5828 7.24821e-08 0)
(-1.5828 6.85915e-08 0)
(-1.5828 5.46074e-08 0)
(-1.5828 5.30465e-08 0)
(-1.5828 4.17304e-08 0)
(-1.5828 2.57556e-08 0)
(-1.5828 2.00742e-08 0)
(-1.5828 2.38244e-08 0)
(-1.0828 2.56362e-08 0)
(-1.0828 3.89211e-08 0)
(-1.0828 4.78829e-08 0)
(-1.0828 5.28974e-08 0)
(-1.0828 6.7952e-08 0)
(-1.0828 6.88554e-08 0)
(-1.0828 8.02396e-08 0)
(-1.0828 8.14589e-08 0)
(-1.0828 8.38316e-08 0)
(-1.0828 8.57395e-08 0)
(-1.0828 7.97638e-08 0)
(-1.0828 8.12017e-08 0)
(-1.0828 7.05086e-08 0)
(-1.0828 7.03316e-08 0)
(-1.0828 5.30851e-08 0)
(-1.0828 5.37319e-08 0)
(-1.0828 4.09732e-08 0)
(-1.0828 2.64924e-08 0)
(-1.0828 1.96036e-08 0)
(-1.0828 2.3123e-08 0)
(-0.456139 2.59034e-08 0)
(-0.456139 3.86217e-08 0)
(-0.456139 4.61406e-08 0)
(-0.456139 5.23838e-08 0)
(-0.456139 6.52859e-08 0)
(-0.456139 6.83665e-08 0)
(-0.456139 7.66114e-08 0)
(-0.456139 8.10386e-08 0)
(-0.456139 7.96054e-08 0)
(-0.456139 8.54013e-08 0)
(-0.456139 7.55374e-08 0)
(-0.456139 8.07737e-08 0)
(-0.456139 6.66173e-08 0)
(-0.456139 6.99954e-08 0)
(-0.456139 5.01257e-08 0)
(-0.456139 5.28656e-08 0)
(-0.456139 3.89642e-08 0)
(-0.456139 2.66633e-08 0)
(-0.456139 1.84524e-08 0)
(-0.456139 2.15573e-08 0)
(0.297172 2.52257e-08 0)
(0.297172 3.68452e-08 0)
(0.297172 4.31373e-08 0)
(0.297172 5.01474e-08 0)
(0.297172 6.08647e-08 0)
(0.297172 6.5724e-08 0)
(0.297172 7.09564e-08 0)
(0.297172 7.80762e-08 0)
(0.297172 7.3302e-08 0)
(0.297172 8.24003e-08 0)
(0.297172 6.93451e-08 0)
(0.297172 7.787e-08 0)
(0.297172 6.09587e-08 0)
(0.297172 6.75508e-08 0)
(0.297172 4.58521e-08 0)
(0.297172 5.04619e-08 0)
(0.297172 3.57862e-08 0)
(0.297172 2.62003e-08 0)
(0.297172 1.66854e-08 0)
(0.297172 1.92319e-08 0)
(1.17714 2.35881e-08 0)
(1.17714 3.36709e-08 0)
(1.17714 3.89533e-08 0)
(1.17714 4.62624e-08 0)
(1.17714 5.48056e-08 0)
(1.17714 6.09856e-08 0)
(1.17714 6.34313e-08 0)
(1.17714 7.26298e-08 0)
(1.17714 6.50999e-08 0)
(1.17714 7.67851e-08 0)
(1.17714 6.13658e-08 0)
(1.17714 7.25305e-08 0)
(1.17714 5.37135e-08 0)
(1.17714 6.30065e-08 0)
(1.17714 4.04022e-08 0)
(1.17714 4.65591e-08 0)
(1.17714 3.15596e-08 0)
(1.17714 2.50197e-08 0)
(1.17714 1.43876e-08 0)
(1.17714 1.63005e-08 0)
(2.18376 2.10618e-08 0)
(2.18376 2.92891e-08 0)
(2.18376 3.37368e-08 0)
(2.18376 4.08988e-08 0)
(2.18376 4.731e-08 0)
(2.18376 5.43108e-08 0)
(2.18376 5.42887e-08 0)
(2.18376 6.48676e-08 0)
(2.18376 5.5277e-08 0)
(2.18376 6.87131e-08 0)
(2.18376 5.18717e-08 0)
(2.18376 6.48914e-08 0)
(2.18376 4.51459e-08 0)
(2.18376 5.64507e-08 0)
(2.18376 3.39691e-08 0)
(2.18376 4.12509e-08 0)
(2.18376 2.64629e-08 0)
(2.18376 2.30439e-08 0)
(2.18376 1.16802e-08 0)
(2.18376 1.29599e-08 0)
(3.31704 1.78014e-08 0)
(3.31704 2.39982e-08 0)
(3.31704 2.77016e-08 0)
(3.31704 3.43168e-08 0)
(3.31704 3.86696e-08 0)
(3.31704 4.59637e-08 0)
(3.31704 4.38881e-08 0)
(3.31704 5.50759e-08 0)
(3.31704 4.42285e-08 0)
(3.31704 5.84627e-08 0)
(3.31704 4.12464e-08 0)
(3.31704 5.52033e-08 0)
(3.31704 3.56215e-08 0)
(3.31704 4.80715e-08 0)
(3.31704 2.68137e-08 0)
(3.31704 3.47121e-08 0)
(3.31704 2.07422e-08 0)
(3.31704 2.02174e-08 0)
(3.31704 8.73036e-09 0)
(3.31704 9.45339e-09 0)
(4.57698 1.40529e-08 0)
(4.57698 1.82632e-08 0)
(4.57698 2.12633e-08 0)
(4.57698 2.7026e-08 0)
(4.57698 2.95017e-08 0)
(4.57698 3.65471e-08 0)
(4.57698 3.30131e-08 0)
(4.57698 4.3932e-08 0)
(4.57698 3.28283e-08 0)
(4.57698 4.67193e-08 0)
(4.57698 3.03547e-08 0)
(4.57698 4.41041e-08 0)
(4.57698 2.59442e-08 0)
(4.57698 3.8402e-08 0)
(4.57698 1.95453e-08 0)
(4.57698 2.73892e-08 0)
(4.57698 1.49083e-08 0)
(4.57698 1.6647e-08 0)
(4.57698 5.85947e-09 0)
(4.57698 6.10994e-09 0)
(5.96357 1.02372e-08 0)
(5.96357 1.27168e-08 0)
(5.96357 1.50285e-08 0)
(5.96357 1.9791e-08 0)
(5.96357 2.06963e-08 0)
(5.96357 2.70607e-08 0)
(5.96357 2.27241e-08 0)
(5.96357 3.26312e-08 0)
(5.96357 2.22002e-08 0)
(5.96357 3.47532e-08 0)
(5.96357 2.02746e-08 0)
(5.96357 3.28014e-08 0)
(5.96357 1.70857e-08 0)
(5.96357 2.84967e-08 0)
(5.96357 1.28879e-08 0)
(5.96357 2.00924e-08 0)
(5.96357 9.57997e-09 0)
(5.96357 1.27139e-08 0)
(5.96357 3.3674e-09 0)
(5.96357 3.3249e-09 0)
(7.47682 6.20018e-09 0)
(7.47682 7.52023e-09 0)
(7.47682 9.16285e-09 0)
(7.47682 1.26225e-08 0)
(7.47682 1.26766e-08 0)
(7.47682 1.74916e-08 0)
(7.47682 1.37849e-08 0)
(7.47682 2.11371e-08 0)
(7.47682 1.33494e-08 0)
(7.47682 2.25229e-08 0)
(7.47682 1.21287e-08 0)
(7.47682 2.12661e-08 0)
(7.47682 1.01444e-08 0)
(7.47682 1.84104e-08 0)
(7.47682 7.75293e-09 0)
(7.47682 1.2928e-08 0)
(7.47682 5.53584e-09 0)
(7.47682 8.47901e-09 0)
(7.47682 1.80946e-09 0)
(7.47682 1.47989e-09 0)
(9.11672 1.78556e-09 0)
(9.11672 2.08073e-09 0)
(9.11672 2.56369e-09 0)
(9.11672 3.68935e-09 0)
(9.11672 3.52275e-09 0)
(9.11672 5.17832e-09 0)
(9.11672 3.74051e-09 0)
(9.11672 6.30445e-09 0)
(9.11672 3.53395e-09 0)
(9.11672 6.75502e-09 0)
(9.11672 3.14422e-09 0)
(9.11672 6.39593e-09 0)
(9.11672 2.57973e-09 0)
(9.11672 5.53261e-09 0)
(9.11672 1.95959e-09 0)
(9.11672 3.87538e-09 0)
(9.11672 1.36947e-09 0)
(9.11672 2.57678e-09 0)
(9.11672 3.66181e-10 0)
(9.11672 3.19527e-10 0)
)
;

boundaryField
{
    top
    {
        type            fixedValue;
        value           uniform (10 0 0);
    }
    bottom
    {
        type            fixedValue;
        value           uniform (0 0 0);
    }
    inlet
    {
        type            zeroGradient;
    }
    outlet
    {
        type            zeroGradient;
    }
    frontAndBack
    {
        type            empty;
    }
}


// ************************************************************************* //
