/*--------------------------------*- C++ -*----------------------------------*\
| =========                 |                                                 |
| \\      /  F ield         | OpenFOAM: The Open Source CFD Toolbox           |
|  \\    /   O peration     | Version:  4.1                                   |
|   \\  /    A nd           | Web:      www.OpenFOAM.org                      |
|    \\/     M anipulation  |                                                 |
\*---------------------------------------------------------------------------*/
FoamFile
{
    version     2.0;
    format      ascii;
    class       volScalarField;
    location    "1.9";
    object      p;
}
// * * * * * * * * * * * * * * * * * * * * * * * * * * * * * * * * * * * * * //

dimensions      [0 2 -2 0 0 0 0];

internalField   nonuniform List<scalar> 
400
(
1.42972e-08
1.59292e-08
1.3616e-08
1.45392e-08
1.28378e-08
1.33177e-08
1.20288e-08
1.21571e-08
1.11751e-08
1.10329e-08
1.02932e-08
9.93002e-09
9.39626e-09
8.83639e-09
8.49541e-09
7.74209e-09
7.60403e-09
6.65642e-09
6.78888e-09
6.42259e-09
1.42453e-08
1.58759e-08
1.3612e-08
1.45381e-08
1.28379e-08
1.33175e-08
1.20289e-08
1.2157e-08
1.11752e-08
1.10329e-08
1.02932e-08
9.93001e-09
9.39625e-09
8.83642e-09
8.49536e-09
7.7421e-09
7.60345e-09
6.65681e-09
6.75337e-09
6.38504e-09
1.4216e-08
1.58383e-08
1.36071e-08
1.4538e-08
1.28372e-08
1.33179e-08
1.20285e-08
1.21573e-08
1.1175e-08
1.1033e-08
1.02931e-08
9.93006e-09
9.39625e-09
8.83637e-09
8.49544e-09
7.74192e-09
7.6032e-09
6.65643e-09
6.72555e-09
6.35933e-09
1.42068e-08
1.58207e-08
1.36025e-08
1.45382e-08
1.28365e-08
1.33184e-08
1.20281e-08
1.21576e-08
1.11748e-08
1.10332e-08
1.0293e-08
9.93011e-09
9.39625e-09
8.83631e-09
8.49555e-09
7.74172e-09
7.60308e-09
6.65548e-09
6.70958e-09
6.34621e-09
1.42097e-08
1.5817e-08
1.35982e-08
1.45382e-08
1.28359e-08
1.33188e-08
1.20278e-08
1.21579e-08
1.11746e-08
1.10333e-08
1.02929e-08
9.93015e-09
9.39626e-09
8.83627e-09
8.49564e-09
7.74156e-09
7.60302e-09
6.65425e-09
6.70288e-09
6.34165e-09
1.42206e-08
1.58227e-08
1.35938e-08
1.45383e-08
1.28355e-08
1.33191e-08
1.20276e-08
1.21581e-08
1.11744e-08
1.10334e-08
1.02929e-08
9.93018e-09
9.39626e-09
8.83623e-09
8.49571e-09
7.74143e-09
7.60299e-09
6.65288e-09
6.70358e-09
6.34381e-09
1.42371e-08
1.58349e-08
1.35894e-08
1.45382e-08
1.28351e-08
1.33193e-08
1.20273e-08
1.21582e-08
1.11743e-08
1.10335e-08
1.02928e-08
9.9302e-09
9.39627e-09
8.8362e-09
8.49577e-09
7.74134e-09
7.603e-09
6.65146e-09
6.71049e-09
6.35151e-09
1.42565e-08
1.58508e-08
1.35849e-08
1.45381e-08
1.28348e-08
1.33195e-08
1.20272e-08
1.21583e-08
1.11742e-08
1.10336e-08
1.02928e-08
9.93022e-09
9.39627e-09
8.83617e-09
8.49582e-09
7.74127e-09
7.60303e-09
6.65013e-09
6.72213e-09
6.36325e-09
1.42761e-08
1.58675e-08
1.35802e-08
1.45379e-08
1.28345e-08
1.33196e-08
1.20271e-08
1.21584e-08
1.11742e-08
1.10336e-08
1.02927e-08
9.93023e-09
9.39628e-09
8.83615e-09
8.49586e-09
7.74123e-09
7.60307e-09
6.64897e-09
6.73671e-09
6.37721e-09
1.42934e-08
1.58824e-08
1.35753e-08
1.45376e-08
1.28343e-08
1.33197e-08
1.2027e-08
1.21584e-08
1.11741e-08
1.10336e-08
1.02927e-08
9.93023e-09
9.39628e-09
8.83614e-09
8.49589e-09
7.74122e-09
7.60309e-09
6.64808e-09
6.75231e-09
6.39149e-09
1.43063e-08
1.58933e-08
1.35704e-08
1.45371e-08
1.28342e-08
1.33197e-08
1.20271e-08
1.21584e-08
1.11741e-08
1.10336e-08
1.02927e-08
9.93022e-09
9.39629e-09
8.83614e-09
8.4959e-09
7.74123e-09
7.60308e-09
6.64748e-09
6.76704e-09
6.40426e-09
1.4313e-08
1.58986e-08
1.35656e-08
1.45365e-08
1.28342e-08
1.33196e-08
1.20271e-08
1.21584e-08
1.11742e-08
1.10336e-08
1.02928e-08
9.93021e-09
9.39629e-09
8.83615e-09
8.49589e-09
7.74127e-09
7.60301e-09
6.6472e-09
6.77917e-09
6.41389e-09
1.43126e-08
1.58972e-08
1.35609e-08
1.45357e-08
1.28343e-08
1.33194e-08
1.20272e-08
1.21583e-08
1.11742e-08
1.10336e-08
1.02928e-08
9.9302e-09
9.39629e-09
8.83616e-09
8.49587e-09
7.74134e-09
7.60286e-09
6.64723e-09
6.78723e-09
6.41903e-09
1.43048e-08
1.5889e-08
1.35565e-08
1.45348e-08
1.28344e-08
1.33192e-08
1.20274e-08
1.21582e-08
1.11743e-08
1.10335e-08
1.02928e-08
9.93017e-09
9.3963e-09
8.83618e-09
8.49584e-09
7.74142e-09
7.60263e-09
6.64751e-09
6.79019e-09
6.41873e-09
1.429e-08
1.58744e-08
1.35525e-08
1.45337e-08
1.28346e-08
1.33189e-08
1.20276e-08
1.2158e-08
1.11745e-08
1.10334e-08
1.02929e-08
9.93014e-09
9.3963e-09
8.83621e-09
8.49579e-09
7.74152e-09
7.60232e-09
6.648e-09
6.78746e-09
6.41253e-09
1.42695e-08
1.58549e-08
1.35491e-08
1.45326e-08
1.28349e-08
1.33186e-08
1.20278e-08
1.21578e-08
1.11746e-08
1.10333e-08
1.0293e-08
9.93011e-09
9.3963e-09
8.83624e-09
8.49572e-09
7.74163e-09
7.60193e-09
6.64862e-09
6.77919e-09
6.40064e-09
1.42451e-08
1.58329e-08
1.35464e-08
1.45313e-08
1.28352e-08
1.33182e-08
1.20282e-08
1.21575e-08
1.11748e-08
1.10331e-08
1.02931e-08
9.93006e-09
9.3963e-09
8.83629e-09
8.49563e-09
7.74176e-09
7.60145e-09
6.64932e-09
6.76607e-09
6.38366e-09
1.42204e-08
1.58123e-08
1.35445e-08
1.45299e-08
1.28357e-08
1.33177e-08
1.20286e-08
1.21572e-08
1.1175e-08
1.1033e-08
1.02932e-08
9.93001e-09
9.39629e-09
8.83634e-09
8.49552e-09
7.74191e-09
7.60087e-09
6.65003e-09
6.7496e-09
6.36298e-09
1.42013e-08
1.57969e-08
1.35431e-08
1.45287e-08
1.28362e-08
1.33172e-08
1.20289e-08
1.2157e-08
1.11753e-08
1.10328e-08
1.02933e-08
9.92997e-09
9.39629e-09
8.83639e-09
8.49542e-09
7.74201e-09
7.60028e-09
6.65065e-09
6.73091e-09
6.34069e-09
1.41978e-08
1.57902e-08
1.35413e-08
1.45284e-08
1.28359e-08
1.33173e-08
1.20288e-08
1.21571e-08
1.11752e-08
1.10329e-08
1.02932e-08
9.92998e-09
9.39629e-09
8.83637e-09
8.49545e-09
7.74191e-09
7.59993e-09
6.6509e-09
6.71329e-09
6.32341e-09
)
;

boundaryField
{
    top
    {
        type            zeroGradient;
    }
    bottom
    {
        type            zeroGradient;
    }
    inlet
    {
        type            fixedValue;
        value           uniform 0;
    }
    outlet
    {
        type            fixedValue;
        value           uniform 0;
    }
    frontAndBack
    {
        type            empty;
    }
}


// ************************************************************************* //
