/*--------------------------------*- C++ -*----------------------------------*\
| =========                 |                                                 |
| \\      /  F ield         | OpenFOAM: The Open Source CFD Toolbox           |
|  \\    /   O peration     | Version:  4.1                                   |
|   \\  /    A nd           | Web:      www.OpenFOAM.org                      |
|    \\/     M anipulation  |                                                 |
\*---------------------------------------------------------------------------*/
FoamFile
{
    version     2.0;
    format      ascii;
    class       surfaceScalarField;
    location    "1.9";
    object      phi;
}
// * * * * * * * * * * * * * * * * * * * * * * * * * * * * * * * * * * * * * //

dimensions      [0 3 -1 0 0 0 0];

internalField   nonuniform List<scalar> 
760
(
1.24997e-06
-2.22188e-14
1.24997e-06
-1.52299e-14
1.24997e-06
1.73398e-16
1.24997e-06
-1.06447e-15
1.24997e-06
7.06312e-16
1.24997e-06
-5.97778e-16
1.24997e-06
4.73153e-16
1.24997e-06
-3.71342e-16
1.24997e-06
2.80302e-16
1.24997e-06
-1.98967e-16
1.24997e-06
1.24704e-16
1.24997e-06
-5.54121e-17
1.24997e-06
-1.08254e-17
1.24997e-06
7.54984e-17
1.24997e-06
-1.43059e-16
1.24997e-06
1.98564e-16
1.24997e-06
-3.88981e-16
1.24997e-06
5.53465e-16
1.24997e-06
-9.12109e-15
-1.34798e-14
3.74992e-06
-6.71408e-14
3.74992e-06
-5.33148e-14
3.74992e-06
-1.14345e-15
3.74992e-06
-2.59413e-15
3.74992e-06
1.47928e-15
3.74992e-06
-1.29515e-15
3.74992e-06
1.01567e-15
3.74992e-06
-7.98281e-16
3.74992e-06
6.01722e-16
3.74992e-06
-4.26425e-16
3.74992e-06
2.66249e-16
3.74992e-06
-1.16695e-16
3.74992e-06
-2.63649e-17
3.74992e-06
1.65626e-16
3.74992e-06
-3.15432e-16
3.74992e-06
4.14564e-16
3.74992e-06
-1.02788e-15
3.74992e-06
1.46682e-15
3.74992e-06
-3.36156e-14
-4.35094e-14
6.24987e-06
-1.21451e-13
6.24987e-06
-1.05144e-13
6.24987e-06
-4.15791e-15
6.24987e-06
-3.98578e-15
6.24987e-06
1.90146e-15
6.24987e-06
-1.74145e-15
6.24987e-06
1.34936e-15
6.24987e-06
-1.06261e-15
6.24987e-06
7.99514e-16
6.24987e-06
-5.6542e-16
6.24987e-06
3.51314e-16
6.24987e-06
-1.51239e-16
6.24987e-06
-4.03087e-17
6.24987e-06
2.26045e-16
6.24987e-06
-4.33194e-16
6.24987e-06
5.31594e-16
6.24987e-06
-1.70416e-15
6.24987e-06
2.47015e-15
6.24987e-06
-6.90583e-14
-8.31714e-14
8.74983e-06
-1.76958e-13
8.74983e-06
-1.6177e-13
8.74983e-06
-8.30453e-15
8.74983e-06
-5.18004e-15
8.74983e-06
2.01701e-15
8.74983e-06
-1.96031e-15
8.74983e-06
1.49599e-15
8.74983e-06
-1.18113e-15
8.74983e-06
8.86705e-16
8.74983e-06
-6.25528e-16
8.74983e-06
3.86364e-16
8.74983e-06
-1.62657e-16
8.74983e-06
-5.17231e-17
8.74983e-06
2.58558e-16
8.74983e-06
-4.99574e-16
8.74983e-06
5.62138e-16
8.74983e-06
-2.37144e-15
8.74983e-06
3.49408e-15
8.74983e-06
-1.10218e-13
-1.27247e-13
1.12498e-05
-2.26603e-13
1.12498e-05
-2.15312e-13
1.12498e-05
-1.29772e-14
1.12498e-05
-6.11318e-15
1.12498e-05
1.87445e-15
1.12498e-05
-1.97768e-15
1.12498e-05
1.47938e-15
1.12498e-05
-1.17217e-15
1.12498e-05
8.7745e-16
1.12498e-05
-6.17086e-16
1.12498e-05
3.78293e-16
1.12498e-05
-1.54663e-16
1.12498e-05
-5.98877e-17
1.12498e-05
2.65497e-16
1.12498e-05
-5.18598e-16
1.12498e-05
5.19575e-16
1.12498e-05
-2.98021e-15
1.12498e-05
4.47187e-15
1.12498e-05
-1.52071e-13
-1.70742e-13
1.37497e-05
-2.64975e-13
1.37497e-05
-2.59517e-13
1.37497e-05
-1.7581e-14
1.37497e-05
-6.72808e-15
1.37497e-05
1.52532e-15
1.37497e-05
-1.82189e-15
1.37497e-05
1.3252e-15
1.37497e-05
-1.05549e-15
1.37497e-05
7.86956e-16
1.37497e-05
-5.51125e-16
1.37497e-05
3.34361e-16
1.37497e-05
-1.31038e-16
1.37497e-05
-6.43172e-17
1.37497e-05
2.49746e-16
1.37497e-05
-4.95236e-16
1.37497e-05
4.17862e-16
1.37497e-05
-3.48342e-15
1.37497e-05
5.33384e-15
1.37497e-05
-1.90079e-13
-2.09165e-13
1.62497e-05
-2.88342e-13
1.62497e-05
-2.89835e-13
1.62497e-05
-2.15829e-14
1.62497e-05
-6.98232e-15
1.62497e-05
1.02265e-15
1.62497e-05
-1.52353e-15
1.62497e-05
1.06068e-15
1.62497e-05
-8.52042e-16
1.62497e-05
6.31286e-16
1.62497e-05
-4.39223e-16
1.62497e-05
2.62095e-16
1.62497e-05
-9.55594e-17
1.62497e-05
-6.47999e-17
1.62497e-05
2.14699e-16
1.62497e-05
-4.35381e-16
1.62497e-05
2.71329e-16
1.62497e-05
-3.84073e-15
1.62497e-05
6.00854e-15
1.62497e-05
-2.20502e-13
-2.38845e-13
1.87497e-05
-2.94841e-13
1.87497e-05
-3.03656e-13
1.87497e-05
-2.45583e-14
1.87497e-05
-6.85546e-15
1.87497e-05
4.19254e-16
1.87497e-05
-1.115e-15
1.87497e-05
7.14089e-16
1.87497e-05
-5.83621e-16
1.87497e-05
4.27078e-16
1.87497e-05
-2.9332e-16
1.87497e-05
1.69171e-16
1.87497e-05
-5.19312e-17
1.87497e-05
-6.14168e-17
1.87497e-05
1.64233e-16
1.87497e-05
-3.4581e-16
1.87497e-05
9.43512e-17
1.87497e-05
-4.02234e-15
1.87497e-05
6.42859e-15
1.87497e-05
-2.40598e-13
-2.57136e-13
2.12497e-05
-2.84395e-13
2.12497e-05
-3.00262e-13
2.12497e-05
-2.62266e-14
2.12497e-05
-6.35413e-15
2.12497e-05
-2.33711e-16
2.12497e-05
-6.30286e-16
2.12497e-05
3.14351e-16
2.12497e-05
-2.7261e-16
2.12497e-05
1.91348e-16
2.12497e-05
-1.25554e-16
2.12497e-05
6.33083e-17
2.12497e-05
-3.74635e-18
2.12497e-05
-5.45093e-17
2.12497e-05
1.02621e-16
2.12497e-05
-2.34123e-16
2.12497e-05
-9.87867e-17
2.12497e-05
-4.01194e-15
2.12497e-05
6.53996e-15
2.12497e-05
-2.4877e-13
-2.62572e-13
2.37497e-05
-2.58622e-13
2.37497e-05
-2.80758e-13
2.37497e-05
-2.64718e-14
2.37497e-05
-5.51496e-15
2.37497e-05
-8.87966e-16
2.37497e-05
-1.04592e-16
2.37497e-05
-1.09363e-16
2.37497e-05
5.83461e-17
2.37497e-05
-5.87289e-17
2.37497e-05
5.18787e-17
2.37497e-05
-4.78571e-17
2.37497e-05
4.55775e-17
2.37497e-05
-4.46815e-17
2.37497e-05
3.44805e-17
2.37497e-05
-1.08628e-16
2.37497e-05
-2.94089e-16
2.37497e-05
-3.80865e-15
2.37497e-05
6.31248e-15
2.37497e-05
-2.44612e-13
-2.54929e-13
2.62497e-05
-2.20583e-13
2.62497e-05
-2.47831e-13
2.62497e-05
-2.53449e-14
2.62497e-05
-4.40454e-15
2.62497e-05
-1.49897e-15
2.62497e-05
4.26012e-16
2.62497e-05
-5.27957e-16
2.62497e-05
3.86584e-16
2.62497e-05
-3.06069e-16
2.62497e-05
2.26882e-16
2.62497e-05
-1.56771e-16
2.62497e-05
9.276e-17
2.62497e-05
-3.27641e-17
2.62497e-05
-3.53282e-17
2.62497e-05
2.17839e-17
2.62497e-05
-4.77987e-16
2.62497e-05
-3.42791e-15
2.62497e-05
5.7491e-15
2.62497e-05
-2.28884e-13
-2.35196e-13
2.87497e-05
-1.74444e-13
2.87497e-05
-2.05405e-13
2.87497e-05
-2.30475e-14
2.87497e-05
-3.11639e-15
2.87497e-05
-2.02642e-15
2.87497e-05
9.24997e-16
2.87497e-05
-9.12808e-16
2.87497e-05
6.89664e-16
2.87497e-05
-5.33807e-16
2.87497e-05
3.87584e-16
2.87497e-05
-2.56123e-16
2.87497e-05
1.34755e-16
2.87497e-05
-1.97769e-17
2.87497e-05
-1.01768e-16
2.87497e-05
1.47822e-16
2.87497e-05
-6.37514e-16
2.87497e-05
-2.90099e-15
2.87497e-05
4.89198e-15
2.87497e-05
-2.03381e-13
-2.05457e-13
3.12497e-05
-1.25089e-13
3.12497e-05
-1.58218e-13
3.12497e-05
-1.98955e-14
3.12497e-05
-1.76519e-15
3.12497e-05
-2.43426e-15
3.12497e-05
1.35585e-15
3.12497e-05
-1.23606e-15
3.12497e-05
9.45642e-16
3.12497e-05
-7.25477e-16
3.12497e-05
5.22398e-16
3.12497e-05
-3.38822e-16
3.12497e-05
1.68654e-16
3.12497e-05
-6.86675e-18
3.12497e-05
-1.59775e-16
3.12497e-05
2.59976e-16
3.12497e-05
-7.60466e-16
3.12497e-05
-2.27334e-15
3.12497e-05
3.8225e-15
3.12497e-05
-1.70757e-13
-1.68705e-13
3.37497e-05
-7.75709e-14
3.37497e-05
-1.11247e-13
3.37497e-05
-1.62705e-14
3.37497e-05
-4.78559e-16
3.37497e-05
-2.69036e-15
3.37497e-05
1.68255e-15
3.37497e-05
-1.47088e-15
3.37497e-05
1.13324e-15
3.37497e-05
-8.65179e-16
3.37497e-05
6.20196e-16
3.37497e-05
-3.98066e-16
3.37497e-05
1.91742e-16
3.37497e-05
4.78584e-18
3.37497e-05
-2.04374e-16
3.37497e-05
3.4872e-16
3.37497e-05
-8.35661e-16
3.37497e-05
-1.60156e-15
3.37497e-05
2.65609e-15
3.37497e-05
-1.34231e-13
-1.28533e-13
3.62497e-05
-3.66816e-14
3.62497e-05
-6.92221e-14
3.62497e-05
-1.25549e-14
3.62497e-05
6.12434e-16
3.62497e-05
-2.7658e-15
3.62497e-05
1.87007e-15
3.62497e-05
-1.59172e-15
3.62497e-05
1.23212e-15
3.62497e-05
-9.37742e-16
3.62497e-05
6.70309e-16
3.62497e-05
-4.27398e-16
3.62497e-05
2.01451e-16
3.62497e-05
1.40054e-17
3.62497e-05
-2.30762e-16
3.62497e-05
4.04755e-16
3.62497e-05
-8.53284e-16
3.62497e-05
-9.49638e-16
3.62497e-05
1.52813e-15
3.62497e-05
-9.73171e-14
-8.88515e-14
3.87498e-05
-6.19995e-15
3.87498e-05
-3.58285e-14
3.87498e-05
-9.07522e-15
3.87498e-05
1.38354e-15
3.87498e-05
-2.63409e-15
3.87498e-05
1.88491e-15
3.87498e-05
-1.57446e-15
3.87498e-05
1.22296e-15
3.87498e-05
-9.28781e-16
3.87498e-05
6.6268e-16
3.87498e-05
-4.20625e-16
3.87498e-05
1.95309e-16
3.87498e-05
1.9689e-17
3.87498e-05
-2.34522e-16
3.87498e-05
4.19259e-16
3.87498e-05
-8.05178e-16
3.87498e-05
-3.84265e-16
3.87498e-05
5.77828e-16
3.87498e-05
-6.33609e-14
-5.33915e-14
4.12498e-05
1.13499e-14
4.12498e-05
-1.34149e-14
4.12498e-05
-6.03635e-15
4.12498e-05
1.72593e-15
4.12498e-05
-2.27032e-15
4.12498e-05
1.6957e-15
4.12498e-05
-1.39672e-15
4.12498e-05
1.0878e-15
4.12498e-05
-8.24881e-16
4.12498e-05
5.87826e-16
4.12498e-05
-3.71963e-16
4.12498e-05
1.70931e-16
4.12498e-05
2.09844e-17
4.12498e-05
-2.11705e-16
4.12498e-05
3.84103e-16
4.12498e-05
-6.85299e-16
4.12498e-05
2.97637e-17
4.12498e-05
-7.76783e-17
4.12498e-05
-3.53289e-14
-2.5465e-14
4.37499e-05
1.5771e-14
4.37499e-05
-1.90176e-15
4.37499e-05
-3.49574e-15
4.37499e-05
1.55338e-15
4.37499e-05
-1.65022e-15
4.37499e-05
1.2736e-15
4.37499e-05
-1.03786e-15
4.37499e-05
8.10051e-16
4.37499e-05
-6.13586e-16
4.37499e-05
4.36904e-16
4.37499e-05
-2.75895e-16
4.37499e-05
1.25904e-16
4.37499e-05
1.73225e-17
4.37499e-05
-1.59002e-16
4.37499e-05
2.92058e-16
4.37499e-05
-4.90043e-16
4.37499e-05
2.34125e-16
4.37499e-05
-3.60511e-16
4.37499e-05
-1.50964e-14
-7.22671e-15
4.62499e-05
8.8538e-15
4.62499e-05
9.0444e-16
4.62499e-05
-1.337e-15
4.62499e-05
8.03743e-16
4.62499e-05
-7.49123e-16
4.62499e-05
5.92328e-16
4.62499e-05
-4.78876e-16
4.62499e-05
3.7438e-16
4.62499e-05
-2.83358e-16
4.62499e-05
2.01669e-16
4.62499e-05
-1.27181e-16
4.62499e-05
5.77897e-17
4.62499e-05
8.49304e-18
4.62499e-05
-7.38141e-17
4.62499e-05
1.36956e-16
4.62499e-05
-2.18491e-16
4.62499e-05
1.80214e-16
4.62499e-05
-2.59218e-16
4.62499e-05
-3.5418e-15
2.62724e-16
4.875e-05
4.875e-05
4.875e-05
4.875e-05
4.875e-05
4.875e-05
4.875e-05
4.875e-05
4.875e-05
4.875e-05
4.875e-05
4.875e-05
4.875e-05
4.875e-05
4.875e-05
4.875e-05
4.875e-05
4.875e-05
4.875e-05
)
;

boundaryField
{
    top
    {
        type            calculated;
        value           uniform 0;
    }
    bottom
    {
        type            calculated;
        value           uniform 0;
    }
    inlet
    {
        type            calculated;
        value           nonuniform List<scalar> 
20
(
-1.24997e-06
-3.74992e-06
-6.24987e-06
-8.74983e-06
-1.12498e-05
-1.37497e-05
-1.62497e-05
-1.87497e-05
-2.12497e-05
-2.37497e-05
-2.62497e-05
-2.87497e-05
-3.12497e-05
-3.37497e-05
-3.62497e-05
-3.87498e-05
-4.12498e-05
-4.37499e-05
-4.62499e-05
-4.875e-05
)
;
    }
    outlet
    {
        type            calculated;
        value           nonuniform List<scalar> 
20
(
1.24997e-06
3.74992e-06
6.24987e-06
8.74983e-06
1.12498e-05
1.37497e-05
1.62497e-05
1.87497e-05
2.12497e-05
2.37497e-05
2.62497e-05
2.87497e-05
3.12497e-05
3.37497e-05
3.62497e-05
3.87498e-05
4.12498e-05
4.37499e-05
4.62499e-05
4.875e-05
)
;
    }
    frontAndBack
    {
        type            empty;
        value           nonuniform 0();
    }
}


// ************************************************************************* //
