/*--------------------------------*- C++ -*----------------------------------*\
| =========                 |                                                 |
| \\      /  F ield         | OpenFOAM: The Open Source CFD Toolbox           |
|  \\    /   O peration     | Version:  4.1                                   |
|   \\  /    A nd           | Web:      www.OpenFOAM.org                      |
|    \\/     M anipulation  |                                                 |
\*---------------------------------------------------------------------------*/
FoamFile
{
    version     2.0;
    format      ascii;
    class       volVectorField;
    location    "1.9";
    object      U;
}
// * * * * * * * * * * * * * * * * * * * * * * * * * * * * * * * * * * * * * //

dimensions      [0 1 -1 0 0 0 0];

internalField   nonuniform List<vector> 
400
(
(0.0249995 -9.84764e-12 0)
(0.0249995 -6.09323e-12 0)
(0.0249995 2.19674e-13 0)
(0.0249995 -5.30816e-13 0)
(0.0249995 3.71935e-13 0)
(0.0249995 -3.11427e-13 0)
(0.0249995 2.47321e-13 0)
(0.0249995 -1.94014e-13 0)
(0.0249995 1.4654e-13 0)
(0.0249995 -1.04096e-13 0)
(0.0249995 6.53506e-14 0)
(0.0249995 -2.92048e-14 0)
(0.0249995 -5.34147e-15 0)
(0.0249995 3.9111e-14 0)
(0.0249995 -7.40163e-14 0)
(0.0249995 1.04417e-13 0)
(0.0249995 -1.87505e-13 0)
(0.0249995 2.43826e-13 0)
(0.0249995 -3.42677e-12 0)
(0.0249995 -5.63336e-12 0)
(0.0749984 -4.15913e-11 0)
(0.0749984 -3.06025e-11 0)
(0.0749984 -1.06735e-13 0)
(0.0749984 -1.80037e-12 0)
(0.0749984 1.13126e-12 0)
(0.0749984 -9.68672e-13 0)
(0.0749984 7.64187e-13 0)
(0.0749984 -6.0006e-13 0)
(0.0749984 4.5271e-13 0)
(0.0749984 -3.21147e-13 0)
(0.0749984 2.00986e-13 0)
(0.0749984 -8.88377e-14 0)
(0.0749984 -1.84003e-14 0)
(0.0749984 1.2298e-13 0)
(0.0749984 -2.33461e-13 0)
(0.0749984 3.17567e-13 0)
(0.0749984 -6.7967e-13 0)
(0.0749984 9.87221e-13 0)
(0.0749984 -1.86574e-11 0)
(0.0749984 -2.58531e-11 0)
(0.124997 -9.2377e-11 0)
(0.124997 -7.65776e-11 0)
(0.124997 -2.31924e-12 0)
(0.124997 -3.29943e-12 0)
(0.124997 1.74723e-12 0)
(0.124997 -1.55732e-12 0)
(0.124997 1.21543e-12 0)
(0.124997 -9.56e-13 0)
(0.124997 7.20079e-13 0)
(0.124997 -5.09868e-13 0)
(0.124997 3.1772e-13 0)
(0.124997 -1.38251e-13 0)
(0.124997 -3.34813e-14 0)
(0.124997 2.00397e-13 0)
(0.124997 -3.82614e-13 0)
(0.124997 4.88952e-13 0)
(0.124997 -1.35232e-12 0)
(0.124997 1.92383e-12 0)
(0.124997 -4.90958e-11 0)
(0.124997 -6.12602e-11 0)
(0.174997 -1.4952e-10 0)
(0.174997 -1.32949e-10 0)
(0.174997 -6.00001e-12 0)
(0.174997 -4.63701e-12 0)
(0.174997 2.03095e-12 0)
(0.174997 -1.90482e-12 0)
(0.174997 1.46683e-12 0)
(0.174997 -1.15631e-12 0)
(0.174997 8.69207e-13 0)
(0.174997 -6.14067e-13 0)
(0.174997 3.80597e-13 0)
(0.174997 -1.62338e-13 0)
(0.174997 -4.67038e-14 0)
(0.174997 2.48991e-13 0)
(0.174997 -4.78738e-13 0)
(0.174997 5.67043e-13 0)
(0.174997 -2.04453e-12 0)
(0.174997 2.97789e-12 0)
(0.174997 -8.86944e-11 0)
(0.174997 -1.04579e-10 0)
(0.224996 -2.0388e-10 0)
(0.224996 -1.90012e-10 0)
(0.224996 -1.05765e-11 0)
(0.224996 -5.72182e-12 0)
(0.224996 2.00686e-12 0)
(0.224996 -2.01818e-12 0)
(0.224996 1.52719e-12 0)
(0.224996 -1.20754e-12 0)
(0.224996 9.05416e-13 0)
(0.224996 -6.37871e-13 0)
(0.224996 3.92711e-13 0)
(0.224996 -1.63274e-13 0)
(0.224996 -5.67077e-14 0)
(0.224996 2.68347e-13 0)
(0.224996 -5.2085e-13 0)
(0.224996 5.58133e-13 0)
(0.224996 -2.69727e-12 0)
(0.224996 3.99568e-12 0)
(0.224996 -1.3151e-10 0)
(0.224996 -1.49681e-10 0)
(0.274995 -2.4903e-10 0)
(0.274995 -2.40263e-10 0)
(0.274995 -1.53646e-11 0)
(0.274995 -6.5057e-12 0)
(0.274995 1.74546e-12 0)
(0.274995 -1.93964e-12 0)
(0.274995 1.43361e-12 0)
(0.274995 -1.1384e-12 0)
(0.274995 8.50697e-13 0)
(0.274995 -5.97174e-13 0)
(0.274995 3.64435e-13 0)
(0.274995 -1.46322e-13 0)
(0.274995 -6.30722e-14 0)
(0.274995 2.62927e-13 0)
(0.274995 -5.16881e-13 0)
(0.274995 4.81794e-13 0)
(0.274995 -3.26327e-12 0)
(0.274995 4.93327e-12 0)
(0.274995 -1.72481e-10 0)
(0.274995 -1.91657e-10 0)
(0.324994 -2.80583e-10 0)
(0.324994 -2.78413e-10 0)
(0.324994 -1.9792e-11 0)
(0.324994 -6.94746e-12 0)
(0.324994 1.30557e-12 0)
(0.324994 -1.70413e-12 0)
(0.324994 1.21687e-12 0)
(0.324994 -9.72628e-13 0)
(0.324994 7.23254e-13 0)
(0.324994 -5.05107e-13 0)
(0.324994 3.04311e-13 0)
(0.324994 -1.15777e-13 0)
(0.324994 -6.55401e-14 0)
(0.324994 2.36552e-13 0)
(0.324994 -4.73553e-13 0)
(0.324994 3.53916e-13 0)
(0.324994 -3.70187e-12 0)
(0.324994 5.71981e-12 0)
(0.324994 -2.07492e-10 0)
(0.324994 -2.26483e-10 0)
(0.374994 -2.9576e-10 0)
(0.374994 -3.00902e-10 0)
(0.374994 -2.33725e-11 0)
(0.374994 -7.01332e-12 0)
(0.374994 7.39566e-13 0)
(0.374994 -1.34247e-12 0)
(0.374994 9.04223e-13 0)
(0.374994 -7.31222e-13 0)
(0.374994 5.39146e-13 0)
(0.374994 -3.73221e-13 0)
(0.374994 2.1981e-13 0)
(0.374994 -7.53184e-14 0)
(0.374994 -6.40412e-14 0)
(0.374994 1.92791e-13 0)
(0.374994 -3.97061e-13 0)
(0.374994 1.88644e-13 0)
(0.374994 -3.97706e-12 0)
(0.374994 6.28455e-12 0)
(0.374994 -2.33286e-10 0)
(0.374994 -2.50979e-10 0)
(0.424994 -2.93603e-10 0)
(0.424994 -3.06079e-10 0)
(0.424994 -2.57471e-11 0)
(0.424994 -6.69437e-12 0)
(0.424994 9.89596e-14 0)
(0.424994 -8.87281e-13 0)
(0.424994 5.23847e-13 0)
(0.424994 -4.35923e-13 0)
(0.424994 3.14938e-13 0)
(0.424994 -2.13369e-13 0)
(0.424994 1.18509e-13 0)
(0.424994 -2.85398e-14 0)
(0.424994 -5.87791e-14 0)
(0.424994 1.35651e-13 0)
(0.424994 -2.94458e-13 0)
(0.424994 1.11621e-16 0)
(0.424994 -4.06489e-12 0)
(0.424994 6.56327e-12 0)
(0.424994 -2.47669e-10 0)
(0.424994 -2.63056e-10 0)
(0.474993 -2.74919e-10 0)
(0.474993 -2.94169e-10 0)
(0.474993 -2.67139e-11 0)
(0.474993 -6.01163e-12 0)
(0.474993 -5.66325e-13 0)
(0.474993 -3.7318e-13 0)
(0.474993 1.04837e-13 0)
(0.474993 -1.09276e-13 0)
(0.474993 6.77528e-14 0)
(0.474993 -3.77347e-14 0)
(0.474993 8.09754e-15 0)
(0.474993 2.10509e-14 0)
(0.474993 -5.02311e-14 0)
(0.474993 6.95892e-14 0)
(0.474993 -1.73714e-13 0)
(0.474993 -1.9752e-13 0)
(0.474993 -3.95632e-12 0)
(0.474993 6.51106e-12 0)
(0.474993 -2.49633e-10 0)
(0.474993 -2.6186e-10 0)
(0.524993 -2.4212e-10 0)
(0.524993 -2.67141e-10 0)
(0.524993 -2.62416e-11 0)
(0.524993 -5.01711e-12 0)
(0.524993 -1.20963e-12 0)
(0.524993 1.64046e-13 0)
(0.524993 -3.2354e-13 0)
(0.524993 2.25964e-13 0)
(0.524993 -1.85207e-13 0)
(0.524993 1.41486e-13 0)
(0.524993 -1.03801e-13 0)
(0.524993 7.00935e-14 0)
(0.524993 -3.91249e-14 0)
(0.524993 -6.26721e-16 0)
(0.524993 -4.34787e-14 0)
(0.524993 -3.90414e-13 0)
(0.524993 -3.65858e-12 0)
(0.524993 6.11211e-12 0)
(0.524993 -2.39375e-10 0)
(0.524993 -2.47793e-10 0)
(0.574994 -1.98912e-10 0)
(0.574994 -2.28395e-10 0)
(0.574994 -2.44633e-11 0)
(0.574994 -3.79197e-12 0)
(0.574994 -1.78842e-12 0)
(0.574994 6.87957e-13 0)
(0.574994 -7.32318e-13 0)
(0.574994 5.47165e-13 0)
(0.574994 -4.26905e-13 0)
(0.574994 3.12263e-13 0)
(0.574994 -2.0973e-13 0)
(0.574994 1.15423e-13 0)
(0.574994 -2.63979e-14 0)
(0.574994 -7.0017e-14 0)
(0.574994 8.7104e-14 0)
(0.574994 -5.65252e-13 0)
(0.574994 -3.19531e-12 0)
(0.574994 5.38797e-12 0)
(0.574994 -2.18209e-10 0)
(0.574994 -2.22429e-10 0)
(0.624994 -1.4994e-10 0)
(0.624994 -1.82389e-10 0)
(0.624994 -2.16482e-11 0)
(0.624994 -2.44213e-12 0)
(0.624994 -2.26448e-12 0)
(0.624994 1.16186e-12 0)
(0.624994 -1.09314e-12 0)
(0.624994 8.3204e-13 0)
(0.624994 -6.40609e-13 0)
(0.624994 4.62827e-13 0)
(0.624994 -3.02467e-13 0)
(0.624994 1.54057e-13 0)
(0.624994 -1.31512e-14 0)
(0.624994 -1.33495e-13 0)
(0.624994 2.08569e-13 0)
(0.624994 -7.09378e-13 0)
(0.624994 -2.60544e-12 0)
(0.624994 4.40088e-12 0)
(0.624994 -1.88422e-10 0)
(0.624994 -1.8837e-10 0)
(0.674994 -1.00289e-10 0)
(0.674994 -1.34111e-10 0)
(0.674994 -1.81598e-11 0)
(0.674994 -1.09094e-12 0)
(0.674994 -2.60393e-12 0)
(0.674994 1.54942e-12 0)
(0.674994 -1.37864e-12 0)
(0.674994 1.05897e-12 0)
(0.674994 -8.1013e-13 0)
(0.674994 5.8182e-13 0)
(0.674994 -3.75072e-13 0)
(0.674994 1.83195e-13 0)
(0.674994 -5.6705e-16 0)
(0.674994 -1.86016e-13 0)
(0.674994 3.11356e-13 0)
(0.674994 -8.1106e-13 0)
(0.674994 -1.94085e-12 0)
(0.674994 3.2515e-12 0)
(0.674994 -1.53019e-10 0)
(0.674994 -1.48981e-10 0)
(0.724995 -5.50259e-11 0)
(0.724995 -8.85782e-11 0)
(0.724995 -1.43971e-11 0)
(0.724995 1.30818e-13 0)
(0.724995 -2.77725e-12 0)
(0.724995 1.81564e-12 0)
(0.724995 -1.56311e-12 0)
(0.724995 1.2075e-12 0)
(0.724995 -9.20214e-13 0)
(0.724995 6.58547e-13 0)
(0.724995 -4.21049e-13 0)
(0.724995 2.0027e-13 0)
(0.724995 1.01681e-14 0)
(0.724995 -2.22741e-13 0)
(0.724995 3.8615e-13 0)
(0.724995 -8.59942e-13 0)
(0.724995 -1.26257e-12 0)
(0.724995 2.06888e-12 0)
(0.724995 -1.15462e-10 0)
(0.724995 -1.08113e-10 0)
(0.774996 -1.85551e-11 0)
(0.774996 -5.01409e-11 0)
(0.774996 -1.07324e-11 0)
(0.774996 1.09427e-12 0)
(0.774996 -2.75783e-12 0)
(0.774996 1.92686e-12 0)
(0.774996 -1.62224e-12 0)
(0.774996 1.25822e-12 0)
(0.774996 -9.56394e-13 0)
(0.774996 6.82875e-13 0)
(0.774996 -4.34224e-13 0)
(0.774996 2.02834e-13 0)
(0.774996 1.79049e-14 0)
(0.774996 -2.39115e-13 0)
(0.774996 4.24006e-13 0)
(0.774996 -8.47164e-13 0)
(0.774996 -6.3656e-13 0)
(0.774996 9.95174e-13 0)
(0.774996 -7.92578e-11 0)
(0.774996 -6.96647e-11 0)
(0.824997 5.70732e-12 0)
(0.824997 -2.2016e-11 0)
(0.824997 -7.43031e-12 0)
(0.824997 1.67442e-12 0)
(0.824997 -2.51332e-12 0)
(0.824997 1.84524e-12 0)
(0.824997 -1.52846e-12 0)
(0.824997 1.18909e-12 0)
(0.824997 -9.02211e-13 0)
(0.824997 6.43209e-13 0)
(0.824997 -4.07463e-13 0)
(0.824997 1.87951e-13 0)
(0.824997 2.15706e-14 0)
(0.824997 -2.30265e-13 0)
(0.824997 4.15172e-13 0)
(0.824997 -7.63506e-13 0)
(0.824997 -1.30894e-13 0)
(0.824997 1.6843e-13 0)
(0.824997 -4.76541e-11 0)
(0.824997 -3.72926e-11 0)
(0.874997 1.62458e-11 0)
(0.874997 -5.30246e-12 0)
(0.874997 -4.60867e-12 0)
(0.874997 1.74491e-12 0)
(0.874997 -2.00164e-12 0)
(0.874997 1.52522e-12 0)
(0.874997 -1.24812e-12 0)
(0.874997 9.73311e-13 0)
(0.874997 -7.37532e-13 0)
(0.874997 5.25283e-13 0)
(0.874997 -3.31916e-13 0)
(0.874997 1.51799e-13 0)
(0.874997 2.01817e-14 0)
(0.874997 -1.90629e-13 0)
(0.874997 3.483e-13 0)
(0.874997 -5.99399e-13 0)
(0.874997 1.8144e-13 0)
(0.874997 -3.11839e-13 0)
(0.874997 -2.31426e-11 0)
(0.874997 -1.38968e-11 0)
(0.924998 1.40466e-11 0)
(0.924998 1.09633e-12 0)
(0.924998 -2.26019e-12 0)
(0.924998 1.26151e-12 0)
(0.924998 -1.21969e-12 0)
(0.924998 9.57339e-13 0)
(0.924998 -7.76035e-13 0)
(0.924998 6.06349e-13 0)
(0.924998 -4.59049e-13 0)
(0.924998 3.26748e-13 0)
(0.924998 -2.06135e-13 0)
(0.924998 9.37628e-14 0)
(0.924998 1.35612e-14 0)
(0.924998 -1.19496e-13 0)
(0.924998 2.2077e-13 0)
(0.924998 -3.59161e-13 0)
(0.924998 2.5306e-13 0)
(0.924998 -3.71758e-13 0)
(0.924998 -7.46186e-12 0)
(0.924998 -1.37197e-12 0)
(0.974999 5.23836e-12 0)
(0.974999 1.15483e-12 0)
(0.974999 -6.21651e-13 0)
(0.974999 4.36446e-13 0)
(0.974999 -3.8773e-13 0)
(0.974999 3.09342e-13 0)
(0.974999 -2.49345e-13 0)
(0.974999 1.95078e-13 0)
(0.974999 -1.47613e-13 0)
(0.974999 1.05044e-13 0)
(0.974999 -6.62167e-14 0)
(0.974999 3.00405e-14 0)
(0.974999 4.52184e-15 0)
(0.974999 -3.85343e-14 0)
(0.974999 7.17373e-14 0)
(0.974999 -1.12758e-13 0)
(0.974999 1.07664e-13 0)
(0.974999 -1.72125e-13 0)
(0.974999 -9.71959e-13 0)
(0.974999 1.07049e-12 0)
)
;

boundaryField
{
    top
    {
        type            fixedValue;
        value           uniform (1 0 0);
    }
    bottom
    {
        type            fixedValue;
        value           uniform (0 0 0);
    }
    inlet
    {
        type            zeroGradient;
    }
    outlet
    {
        type            zeroGradient;
    }
    frontAndBack
    {
        type            empty;
    }
}


// ************************************************************************* //
