/*--------------------------------*- C++ -*----------------------------------*\
| =========                 |                                                 |
| \\      /  F ield         | OpenFOAM: The Open Source CFD Toolbox           |
|  \\    /   O peration     | Version:  4.1                                   |
|   \\  /    A nd           | Web:      www.OpenFOAM.org                      |
|    \\/     M anipulation  |                                                 |
\*---------------------------------------------------------------------------*/
FoamFile
{
    version     2.0;
    format      ascii;
    class       surfaceScalarField;
    location    "3.5";
    object      phi;
}
// * * * * * * * * * * * * * * * * * * * * * * * * * * * * * * * * * * * * * //

dimensions      [0 3 -1 0 0 0 0];

internalField   nonuniform List<scalar> 
760
(
-1.91641e-05
2.01001e-12
-1.91641e-05
2.43588e-12
-1.91641e-05
7.98115e-12
-1.91641e-05
4.84437e-12
-1.91641e-05
1.26983e-11
-1.91641e-05
6.75418e-12
-1.91641e-05
1.58503e-11
-1.91641e-05
7.84754e-12
-1.91641e-05
1.73225e-11
-1.91641e-05
8.19929e-12
-1.91641e-05
1.70463e-11
-1.91641e-05
7.88261e-12
-1.91641e-05
1.51516e-11
-1.91641e-05
7.04794e-12
-1.91641e-05
1.19339e-11
-1.91641e-05
5.81606e-12
-1.91641e-05
7.79659e-12
-1.91641e-05
4.33396e-12
-1.91641e-05
3.27039e-12
2.04619e-12
-5.11594e-05
3.86233e-12
-5.11594e-05
5.36133e-12
-5.11594e-05
1.505e-11
-5.11594e-05
1.03221e-11
-5.11594e-05
2.35599e-11
-5.11594e-05
1.42958e-11
-5.11594e-05
2.92021e-11
-5.11594e-05
1.65811e-11
-5.11594e-05
3.1763e-11
-5.11594e-05
1.72844e-11
-5.11594e-05
3.11396e-11
-5.11594e-05
1.65417e-11
-5.11594e-05
2.7594e-11
-5.11594e-05
1.46462e-11
-5.11594e-05
2.16858e-11
-5.11594e-05
1.18609e-11
-5.11594e-05
1.4149e-11
-5.11594e-05
8.50154e-12
-5.11594e-05
6.02747e-12
3.81401e-12
-7.68219e-05
6.11479e-12
-7.68219e-05
9.4067e-12
-7.68219e-05
2.25497e-11
-7.68219e-05
1.76483e-11
-7.68219e-05
3.46779e-11
-7.68219e-05
2.42453e-11
-7.68219e-05
4.26402e-11
-7.68219e-05
2.80415e-11
-7.68219e-05
4.61235e-11
-7.68219e-05
2.91378e-11
-7.68219e-05
4.50231e-11
-7.68219e-05
2.77391e-11
-7.68219e-05
3.97604e-11
-7.68219e-05
2.43061e-11
-7.68219e-05
3.11747e-11
-7.68219e-05
1.93017e-11
-7.68219e-05
2.03207e-11
-7.68219e-05
1.32742e-11
-7.68219e-05
8.82686e-12
5.60192e-12
-9.61516e-05
8.73944e-12
-9.61516e-05
1.43229e-11
-9.61516e-05
3.01155e-11
-9.61516e-05
2.62718e-11
-9.61516e-05
4.54592e-11
-9.61516e-05
3.57837e-11
-9.61516e-05
5.54155e-11
-9.61516e-05
4.12383e-11
-9.61516e-05
5.95789e-11
-9.61516e-05
4.26982e-11
-9.61516e-05
5.7877e-11
-9.61516e-05
4.04439e-11
-9.61516e-05
5.09078e-11
-9.61516e-05
3.51165e-11
-9.61516e-05
3.9789e-11
-9.61516e-05
2.74235e-11
-9.61516e-05
2.58703e-11
-9.61516e-05
1.81882e-11
-9.61516e-05
1.13938e-11
7.17035e-12
-0.000109148
1.15224e-11
-0.000109148
1.94985e-11
-0.000109148
3.7561e-11
-0.000109148
3.52837e-11
-0.000109148
5.58681e-11
-0.000109148
4.78039e-11
-0.000109148
6.76257e-11
-0.000109148
5.49723e-11
-0.000109148
7.23405e-11
-0.000109148
5.6795e-11
-0.000109148
6.9989e-11
-0.000109148
5.36268e-11
-0.000109148
6.13503e-11
-0.000109148
4.62895e-11
-0.000109148
4.78152e-11
-0.000109148
3.57537e-11
-0.000109148
3.10084e-11
-0.000109148
2.31258e-11
-0.000109148
1.3806e-11
8.64322e-12
-0.000115812
1.41204e-11
-0.000115812
2.42686e-11
-0.000115812
4.4105e-11
-0.000115812
4.35798e-11
-0.000115813
6.48636e-11
-0.000115812
5.88776e-11
-0.000115813
7.8086e-11
-0.000115812
6.76417e-11
-0.000115813
8.31973e-11
-0.000115812
6.98103e-11
-0.000115813
8.02304e-11
-0.000115812
6.58022e-11
-0.000115813
7.01301e-11
-0.000115812
5.65972e-11
-0.000115813
5.4528e-11
-0.000115812
4.34155e-11
-0.000115813
3.52778e-11
-0.000115812
2.76148e-11
-0.000115813
1.58561e-11
9.9145e-12
-0.000116144
1.63112e-11
-0.000116144
2.82092e-11
-0.000116144
4.93144e-11
-0.000116144
5.04866e-11
-0.000116144
7.19113e-11
-0.000116144
6.81482e-11
-0.000116144
8.62151e-11
-0.000116144
7.82934e-11
-0.000116144
9.15773e-11
-0.000116144
8.07874e-11
-0.000116144
8.80871e-11
-0.000116144
7.60979e-11
-0.000116144
7.68279e-11
-0.000116144
6.53274e-11
-0.000116144
5.96239e-11
-0.000116144
4.99116e-11
-0.000116144
3.85013e-11
-0.000116144
3.14045e-11
-0.000116144
1.74616e-11
1.09434e-11
-0.000110142
1.79746e-11
-0.000110142
3.11127e-11
-0.000110142
5.29898e-11
-0.000110142
5.57023e-11
-0.000110142
7.6793e-11
-0.000110142
7.52364e-11
-0.000110142
9.17951e-11
-0.000110142
8.65069e-11
-0.000110142
9.72826e-11
-0.000110142
8.93058e-11
-0.000110142
9.33967e-11
-0.000110142
8.41312e-11
-0.000110142
8.13257e-11
-0.000110142
7.21696e-11
-0.000110142
6.30322e-11
-0.000110142
5.5027e-11
-0.000110142
4.06549e-11
-0.000110142
3.43914e-11
-0.000110142
1.86118e-11
1.17183e-11
-9.78078e-05
1.90426e-11
-9.78078e-05
3.28667e-11
-9.78078e-05
5.50249e-11
-9.78078e-05
5.90602e-11
-9.78078e-05
7.93954e-11
-9.78078e-05
7.99246e-11
-9.78078e-05
9.47134e-11
-9.78078e-05
9.2034e-11
-9.78078e-05
1.00212e-10
-9.78078e-05
9.51115e-11
-9.78078e-05
9.60767e-11
-9.78078e-05
8.96656e-11
-9.78078e-05
8.35643e-11
-9.78078e-05
7.69267e-11
-9.78078e-05
6.47175e-11
-9.78078e-05
5.86187e-11
-9.78078e-05
4.17272e-11
-9.78078e-05
3.64997e-11
-9.78078e-05
1.92934e-11
1.22208e-11
-7.91406e-05
1.94867e-11
-7.91406e-05
3.34335e-11
-7.91406e-05
5.53907e-11
-7.91406e-05
6.05005e-11
-7.91406e-05
7.96946e-11
-7.91406e-05
8.21236e-11
-7.91406e-05
9.49497e-11
-7.91406e-05
9.4764e-11
-7.91406e-05
1.0035e-10
-7.91406e-05
9.8084e-11
-7.91406e-05
9.61183e-11
-7.91406e-05
9.25826e-11
-7.91406e-05
8.35399e-11
-7.91406e-05
7.94947e-11
-7.91406e-05
6.46805e-11
-7.91406e-05
6.06045e-11
-7.91406e-05
4.17214e-11
-7.91406e-05
3.76805e-11
-7.91406e-05
1.94956e-11
1.24327e-11
-5.41406e-05
1.93106e-11
-5.41406e-05
3.28312e-11
-5.41406e-05
5.41142e-11
-5.41406e-05
6.00324e-11
-5.41406e-05
7.77273e-11
-5.41406e-05
8.18221e-11
-5.41406e-05
9.25421e-11
-5.41406e-05
9.46667e-11
-5.41406e-05
9.7733e-11
-5.41406e-05
9.81788e-11
-5.41406e-05
9.35537e-11
-5.41406e-05
9.28287e-11
-5.41406e-05
8.12768e-11
-5.41406e-05
7.98173e-11
-5.41406e-05
6.29362e-11
-5.41406e-05
6.09311e-11
-5.41406e-05
4.06408e-11
-5.41406e-05
3.78933e-11
-5.41406e-05
1.92042e-11
1.23331e-11
-2.28078e-05
1.85461e-11
-2.28078e-05
3.113e-11
-2.28078e-05
5.12725e-11
-2.28078e-05
5.77222e-11
-2.28078e-05
7.3584e-11
-2.28078e-05
7.90718e-11
-2.28078e-05
8.7581e-11
-2.28078e-05
9.17748e-11
-2.28078e-05
9.24451e-11
-2.28078e-05
9.54082e-11
-2.28078e-05
8.84522e-11
-2.28078e-05
9.03968e-11
-2.28078e-05
7.68248e-11
-2.28078e-05
7.78711e-11
-2.28078e-05
5.95124e-11
-2.28078e-05
5.95629e-11
-2.28078e-05
3.84887e-11
-2.28078e-05
3.71e-11
-2.28078e-05
1.84023e-11
1.18995e-11
1.48578e-05
1.7252e-11
1.48578e-05
2.84523e-11
1.48578e-05
4.69946e-11
1.48578e-05
5.36919e-11
1.48578e-05
6.74138e-11
1.48578e-05
7.39859e-11
1.48578e-05
8.0217e-11
1.48578e-05
8.61827e-11
1.48578e-05
8.4626e-11
1.48578e-05
8.98408e-11
1.48578e-05
8.0932e-11
1.48578e-05
8.53266e-11
1.48578e-05
7.02715e-11
1.48578e-05
7.36658e-11
1.48578e-05
5.44598e-11
1.48578e-05
5.64834e-11
1.48578e-05
3.52766e-11
1.48578e-05
3.52652e-11
1.48578e-05
1.70742e-11
1.11118e-11
5.88563e-05
1.5513e-11
5.88563e-05
2.49779e-11
5.88563e-05
4.14751e-11
5.88563e-05
4.81316e-11
5.88563e-05
5.94493e-11
5.88563e-05
6.67584e-11
5.88563e-05
7.06949e-11
5.88563e-05
7.807e-11
5.88563e-05
7.45125e-11
5.88563e-05
8.16274e-11
5.88563e-05
7.12015e-11
5.88563e-05
7.7729e-11
5.88563e-05
6.17808e-11
5.88563e-05
6.72669e-11
5.88563e-05
4.78851e-11
5.88563e-05
5.17137e-11
5.88563e-05
3.10494e-11
5.88563e-05
3.23693e-11
5.88563e-05
1.52161e-11
9.96222e-12
0.000109187
1.34144e-11
0.000109188
2.09121e-11
0.000109188
3.49483e-11
0.000109188
4.12637e-11
0.000109188
4.99775e-11
0.000109188
5.76272e-11
0.000109188
5.93267e-11
0.000109188
6.76674e-11
0.000109188
6.24146e-11
0.000109188
7.09712e-11
0.000109188
5.95404e-11
0.000109188
6.7765e-11
0.000109188
5.15805e-11
0.000109188
5.87842e-11
0.000109188
3.99447e-11
0.000109188
4.53096e-11
0.000109188
2.5886e-11
0.000109188
2.84148e-11
0.000109188
1.28385e-11
8.46667e-12
0.000165852
1.10695e-11
0.000165852
1.65507e-11
0.000165852
2.78097e-11
0.000165852
3.34988e-11
0.000165852
3.95597e-11
0.000165852
4.70962e-11
0.000165852
4.67829e-11
0.000165852
5.55189e-11
0.000165852
4.90463e-11
0.000165852
5.84047e-11
0.000165852
4.66384e-11
0.000165852
5.59096e-11
0.000165852
4.02758e-11
0.000165852
4.86018e-11
0.000165852
3.11077e-11
0.000165852
3.75406e-11
0.000165852
2.00917e-11
0.000165852
2.35474e-11
0.000165852
1.00672e-11
6.71017e-12
0.000228848
8.65899e-12
0.000228848
1.22883e-11
0.000228848
2.0685e-11
0.000228848
2.55372e-11
0.000228848
2.91329e-11
0.000228848
3.61177e-11
0.000228848
3.42122e-11
0.000228848
4.27226e-11
0.000228848
3.56474e-11
0.000228848
4.50625e-11
0.000228848
3.37057e-11
0.000228848
4.32313e-11
0.000228848
2.89404e-11
0.000228848
3.76371e-11
0.000228848
2.22258e-11
0.000228848
2.91056e-11
0.000228848
1.42391e-11
0.000228848
1.821e-11
0.000228848
7.17012e-12
4.88914e-12
0.000298178
5.87377e-12
0.000298178
8.00392e-12
0.000298178
1.34616e-11
0.000298178
1.71399e-11
0.000298178
1.87603e-11
0.000298178
2.43868e-11
0.000298178
2.18575e-11
0.000298178
2.89427e-11
0.000298178
2.26147e-11
0.000298178
3.06055e-11
0.000298178
2.12436e-11
0.000298178
2.94202e-11
0.000298178
1.81206e-11
0.000298178
2.56448e-11
0.000298178
1.38253e-11
0.000298178
1.98468e-11
0.000298178
8.78097e-12
0.000298178
1.23732e-11
0.000298178
4.44352e-12
3.13806e-12
0.000373841
3.12473e-12
0.000373841
4.18489e-12
0.000373841
7.00446e-12
0.000373841
9.28265e-12
0.000373841
9.66465e-12
0.000373841
1.32903e-11
0.000373841
1.1163e-11
0.000373841
1.58275e-11
0.000373841
1.146e-11
0.000373841
1.67785e-11
0.000373841
1.06867e-11
0.000373841
1.61577e-11
0.000373841
9.05038e-12
0.000373841
1.4098e-11
0.000373841
6.85591e-12
0.000373841
1.09136e-11
0.000373841
4.32037e-12
0.000373841
6.78412e-12
0.000373841
2.17412e-12
1.70364e-12
0.000455836
0.000455836
0.000455836
0.000455836
0.000455836
0.000455836
0.000455836
0.000455836
0.000455836
0.000455836
0.000455836
0.000455836
0.000455836
0.000455836
0.000455836
0.000455836
0.000455836
0.000455836
0.000455836
)
;

boundaryField
{
    top
    {
        type            calculated;
        value           uniform 0;
    }
    bottom
    {
        type            calculated;
        value           uniform 0;
    }
    inlet
    {
        type            calculated;
        value           nonuniform List<scalar> 
20
(
1.91641e-05
5.11594e-05
7.68219e-05
9.61516e-05
0.000109148
0.000115812
0.000116144
0.000110142
9.78078e-05
7.91406e-05
5.41406e-05
2.28078e-05
-1.48578e-05
-5.88563e-05
-0.000109187
-0.000165852
-0.000228848
-0.000298178
-0.000373841
-0.000455836
)
;
    }
    outlet
    {
        type            calculated;
        value           nonuniform List<scalar> 
20
(
-1.91641e-05
-5.11594e-05
-7.68219e-05
-9.61516e-05
-0.000109148
-0.000115812
-0.000116144
-0.000110142
-9.78078e-05
-7.91406e-05
-5.41406e-05
-2.28078e-05
1.48578e-05
5.88563e-05
0.000109188
0.000165852
0.000228848
0.000298178
0.000373841
0.000455836
)
;
    }
    frontAndBack
    {
        type            empty;
        value           nonuniform 0();
    }
}


// ************************************************************************* //
