/*--------------------------------*- C++ -*----------------------------------*\
| =========                 |                                                 |
| \\      /  F ield         | OpenFOAM: The Open Source CFD Toolbox           |
|  \\    /   O peration     | Version:  4.1                                   |
|   \\  /    A nd           | Web:      www.OpenFOAM.org                      |
|    \\/     M anipulation  |                                                 |
\*---------------------------------------------------------------------------*/
FoamFile
{
    version     2.0;
    format      ascii;
    class       volVectorField;
    location    "3.5";
    object      U;
}
// * * * * * * * * * * * * * * * * * * * * * * * * * * * * * * * * * * * * * //

dimensions      [0 1 -1 0 0 0 0];

internalField   nonuniform List<vector> 
400
(
(-0.383281 9.07195e-10 0)
(-0.383281 1.04802e-09 0)
(-0.383281 3.62021e-09 0)
(-0.383281 2.08017e-09 0)
(-0.383281 5.75096e-09 0)
(-0.383281 2.8969e-09 0)
(-0.383281 7.16438e-09 0)
(-0.383281 3.36197e-09 0)
(-0.383281 7.82307e-09 0)
(-0.383281 3.51317e-09 0)
(-0.383281 7.69337e-09 0)
(-0.383281 3.37618e-09 0)
(-0.383281 6.83259e-09 0)
(-0.383281 3.02326e-09 0)
(-0.383281 5.37279e-09 0)
(-0.383281 2.50662e-09 0)
(-0.383281 3.49749e-09 0)
(-0.383281 1.88876e-09 0)
(-0.383281 1.44179e-09 0)
(-0.383281 8.84354e-10 0)
(-1.02319 3.09019e-09 0)
(-1.02319 4.14009e-09 0)
(-1.02319 1.20412e-08 0)
(-1.02319 8.09428e-09 0)
(-1.02319 1.89643e-08 0)
(-1.02319 1.12244e-08 0)
(-1.02319 2.35511e-08 0)
(-1.02319 1.30228e-08 0)
(-1.02319 2.56525e-08 0)
(-1.02319 1.35813e-08 0)
(-1.02319 2.5181e-08 0)
(-1.02319 1.30017e-08 0)
(-1.02319 2.23418e-08 0)
(-1.02319 1.15254e-08 0)
(-1.02319 1.75808e-08 0)
(-1.02319 9.36096e-09 0)
(-1.02319 1.14903e-08 0)
(-1.02319 6.76179e-09 0)
(-1.02319 4.87819e-09 0)
(-1.02319 3.04668e-09 0)
(-1.53644 5.0462e-09 0)
(-1.53644 7.4256e-09 0)
(-1.53644 1.9047e-08 0)
(-1.53644 1.40943e-08 0)
(-1.53644 2.95372e-08 0)
(-1.53644 1.94193e-08 0)
(-1.53644 3.64525e-08 0)
(-1.53644 2.24814e-08 0)
(-1.53644 3.95305e-08 0)
(-1.53644 2.33876e-08 0)
(-1.53644 3.86648e-08 0)
(-1.53644 2.231e-08 0)
(-1.53644 3.42003e-08 0)
(-1.53644 1.96311e-08 0)
(-1.53644 2.68452e-08 0)
(-1.53644 1.57162e-08 0)
(-1.53644 1.75077e-08 0)
(-1.53644 1.10032e-08 0)
(-1.53644 7.52935e-09 0)
(-1.53644 4.76372e-09 0)
(-1.92303 7.40219e-09 0)
(-1.92303 1.18485e-08 0)
(-1.92303 2.62591e-08 0)
(-1.92303 2.19207e-08 0)
(-1.92303 3.99535e-08 0)
(-1.92303 2.99484e-08 0)
(-1.92303 4.88846e-08 0)
(-1.92303 3.45552e-08 0)
(-1.92303 5.26947e-08 0)
(-1.92303 3.58226e-08 0)
(-1.92303 5.12962e-08 0)
(-1.92303 3.39945e-08 0)
(-1.92303 4.51975e-08 0)
(-1.92303 2.962e-08 0)
(-1.92303 3.53745e-08 0)
(-1.92303 2.3283e-08 0)
(-1.92303 2.30253e-08 0)
(-1.92303 1.56698e-08 0)
(-1.92303 1.00717e-08 0)
(-1.92303 6.34955e-09 0)
(-2.18297 1.01106e-08 0)
(-2.18297 1.6896e-08 0)
(-2.18297 3.38055e-08 0)
(-2.18297 3.07402e-08 0)
(-2.18297 5.06086e-08 0)
(-2.18297 4.17374e-08 0)
(-2.18297 6.14507e-08 0)
(-2.18297 4.80359e-08 0)
(-2.18297 6.58829e-08 0)
(-2.18297 4.96713e-08 0)
(-2.18297 6.38571e-08 0)
(-2.18297 4.69612e-08 0)
(-2.18297 5.60608e-08 0)
(-2.18297 4.06361e-08 0)
(-2.18297 4.37476e-08 0)
(-2.18297 3.15336e-08 0)
(-2.18297 2.84022e-08 0)
(-2.18297 2.06179e-08 0)
(-2.18297 1.2578e-08 0)
(-2.18297 7.89068e-09 0)
(-2.31625 1.28052e-08 0)
(-2.31625 2.18759e-08 0)
(-2.31625 4.08044e-08 0)
(-2.31625 3.9393e-08 0)
(-2.31625 6.0307e-08 0)
(-2.31625 5.32795e-08 0)
(-2.31625 7.27769e-08 0)
(-2.31625 6.12304e-08 0)
(-2.31625 7.76795e-08 0)
(-2.31625 6.3219e-08 0)
(-2.31625 7.50189e-08 0)
(-2.31625 5.96316e-08 0)
(-2.31625 6.56563e-08 0)
(-2.31625 5.13682e-08 0)
(-2.31625 5.11021e-08 0)
(-2.31625 3.95225e-08 0)
(-2.31625 3.30929e-08 0)
(-2.31625 2.53249e-08 0)
(-2.31625 1.48044e-08 0)
(-2.31625 9.26211e-09 0)
(-2.32287 1.52046e-08 0)
(-2.32287 2.62347e-08 0)
(-2.32287 4.66839e-08 0)
(-2.32287 4.69863e-08 0)
(-2.32287 6.83236e-08 0)
(-2.32287 6.3438e-08 0)
(-2.32287 8.20615e-08 0)
(-2.32287 7.2874e-08 0)
(-2.32287 8.72841e-08 0)
(-2.32288 7.51967e-08 0)
(-2.32287 8.40518e-08 0)
(-2.32288 7.08493e-08 0)
(-2.32287 7.33782e-08 0)
(-2.32288 6.08714e-08 0)
(-2.32287 5.69902e-08 0)
(-2.32288 4.65894e-08 0)
(-2.32287 3.68249e-08 0)
(-2.32288 2.94559e-08 0)
(-2.32287 1.66253e-08 0)
(-2.32287 1.04106e-08 0)
(-2.20284 1.71391e-08 0)
(-2.20284 2.96641e-08 0)
(-2.20284 5.11346e-08 0)
(-2.20284 5.3053e-08 0)
(-2.20284 7.42954e-08 0)
(-2.20284 7.16239e-08 0)
(-2.20284 8.89224e-08 0)
(-2.20284 8.2314e-08 0)
(-2.20284 9.43318e-08 0)
(-2.20284 8.49523e-08 0)
(-2.20284 9.06384e-08 0)
(-2.20284 8.00213e-08 0)
(-2.20284 7.89776e-08 0)
(-2.20284 6.86641e-08 0)
(-2.20284 6.12419e-08 0)
(-2.20284 5.24004e-08 0)
(-2.20284 3.95114e-08 0)
(-2.20284 3.2847e-08 0)
(-2.20284 1.80037e-08 0)
(-2.20284 1.13158e-08 0)
(-1.95616 1.85068e-08 0)
(-1.95616 3.19931e-08 0)
(-1.95616 5.39912e-08 0)
(-1.95616 5.73369e-08 0)
(-1.95616 7.80374e-08 0)
(-1.95616 7.75088e-08 0)
(-1.95616 9.31705e-08 0)
(-1.95616 8.91816e-08 0)
(-1.95616 9.86474e-08 0)
(-1.95616 9.21124e-08 0)
(-1.95616 9.4631e-08 0)
(-1.95616 8.68042e-08 0)
(-1.95616 8.23433e-08 0)
(-1.95616 7.44638e-08 0)
(-1.95616 6.37858e-08 0)
(-1.95616 5.67553e-08 0)
(-1.95616 4.11215e-08 0)
(-1.95616 3.53961e-08 0)
(-1.95616 1.89195e-08 0)
(-1.95616 1.19574e-08 0)
(-1.58281 1.92602e-08 0)
(-1.58281 3.31495e-08 0)
(-1.58281 5.51899e-08 0)
(-1.58281 5.97307e-08 0)
(-1.58281 7.94866e-08 0)
(-1.58281 8.09478e-08 0)
(-1.58281 9.47468e-08 0)
(-1.58281 9.33071e-08 0)
(-1.58281 1.00181e-07 0)
(-1.58281 9.65e-08 0)
(-1.58281 9.59919e-08 0)
(-1.58281 9.10302e-08 0)
(-1.58281 8.34509e-08 0)
(-1.58281 7.81283e-08 0)
(-1.58281 6.46105e-08 0)
(-1.58281 5.95476e-08 0)
(-1.58281 4.16555e-08 0)
(-1.58281 3.70445e-08 0)
(-1.58281 1.93629e-08 0)
(-1.58281 1.23185e-08 0)
(-1.08281 1.93915e-08 0)
(-1.08281 3.31238e-08 0)
(-1.08281 5.47301e-08 0)
(-1.08281 6.021e-08 0)
(-1.08281 7.86501e-08 0)
(-1.08281 8.18915e-08 0)
(-1.08281 9.36606e-08 0)
(-1.08281 9.46208e-08 0)
(-1.08281 9.89425e-08 0)
(-1.08281 9.80336e-08 0)
(-1.08281 9.4733e-08 0)
(-1.08281 9.26141e-08 0)
(-1.08281 8.23108e-08 0)
(-1.08281 7.9578e-08 0)
(-1.08281 6.37238e-08 0)
(-1.08281 6.07099e-08 0)
(-1.08281 4.11166e-08 0)
(-1.08281 3.77478e-08 0)
(-1.08281 1.93213e-08 0)
(-1.08281 1.23791e-08 0)
(-0.456156 1.89193e-08 0)
(-0.456156 3.19611e-08 0)
(-0.456156 5.26645e-08 0)
(-0.456156 5.88133e-08 0)
(-0.456156 7.55917e-08 0)
(-0.456156 8.03611e-08 0)
(-0.456156 8.99764e-08 0)
(-0.456156 9.3125e-08 0)
(-0.456156 9.4993e-08 0)
(-0.456156 9.66978e-08 0)
(-0.456156 9.09048e-08 0)
(-0.456156 9.1526e-08 0)
(-0.456156 7.89595e-08 0)
(-0.456156 7.87734e-08 0)
(-0.456156 6.11464e-08 0)
(-0.456156 6.01976e-08 0)
(-0.456156 3.95072e-08 0)
(-0.456156 3.74666e-08 0)
(-0.456156 1.87788e-08 0)
(-0.456156 1.21168e-08 0)
(0.297156 1.78862e-08 0)
(0.297156 2.97587e-08 0)
(0.297156 4.90966e-08 0)
(0.297156 5.56355e-08 0)
(0.297156 7.04317e-08 0)
(0.297156 7.64394e-08 0)
(0.297156 8.38145e-08 0)
(0.297156 8.88833e-08 0)
(0.297156 8.84433e-08 0)
(0.297156 9.25326e-08 0)
(0.297156 8.46004e-08 0)
(0.297156 8.77817e-08 0)
(0.297156 7.34648e-08 0)
(0.297156 7.57068e-08 0)
(0.297156 5.6917e-08 0)
(0.297156 5.79838e-08 0)
(0.297156 3.68339e-08 0)
(0.297156 3.61634e-08 0)
(0.297156 1.77189e-08 0)
(0.297156 1.15096e-08 0)
(1.17712 1.63635e-08 0)
(1.17713 2.66662e-08 0)
(1.17713 4.41842e-08 0)
(1.17713 5.08278e-08 0)
(1.17713 6.33532e-08 0)
(1.17713 7.02726e-08 0)
(1.17713 7.53624e-08 0)
(1.17713 8.20236e-08 0)
(1.17713 7.94704e-08 0)
(1.17713 8.56382e-08 0)
(1.17713 7.59712e-08 0)
(1.17713 8.14472e-08 0)
(1.17713 6.59416e-08 0)
(1.17713 7.04072e-08 0)
(1.17713 5.1105e-08 0)
(1.17713 5.40641e-08 0)
(1.17713 3.31179e-08 0)
(1.17713 3.38059e-08 0)
(1.17713 1.61286e-08 0)
(1.17713 1.05416e-08 0)
(2.18375 1.44463e-08 0)
(2.18375 2.2892e-08 0)
(2.18375 3.81605e-08 0)
(2.18375 4.46205e-08 0)
(2.18375 5.46445e-08 0)
(2.18375 6.21064e-08 0)
(2.18375 6.49336e-08 0)
(2.18375 7.2783e-08 0)
(2.18375 6.83854e-08 0)
(2.18375 7.62225e-08 0)
(2.18375 6.52983e-08 0)
(2.18375 7.26856e-08 0)
(2.18375 5.66189e-08 0)
(2.18375 6.2984e-08 0)
(2.18375 4.38684e-08 0)
(2.18375 4.84916e-08 0)
(2.18375 2.84393e-08 0)
(2.18375 3.03927e-08 0)
(2.18375 1.40202e-08 0)
(2.18375 9.21751e-09 0)
(3.31703 1.22253e-08 0)
(3.31703 1.86746e-08 0)
(3.31703 3.13224e-08 0)
(3.31703 3.73078e-08 0)
(3.31703 4.46976e-08 0)
(3.31703 5.22825e-08 0)
(3.31703 5.29767e-08 0)
(3.31703 6.15159e-08 0)
(3.31703 5.56522e-08 0)
(3.31703 6.46199e-08 0)
(3.31703 5.30176e-08 0)
(3.31703 6.17842e-08 0)
(3.31703 4.58678e-08 0)
(3.31703 5.36582e-08 0)
(3.31703 3.54821e-08 0)
(3.31703 4.14099e-08 0)
(3.31703 2.29629e-08 0)
(3.31703 2.59854e-08 0)
(3.31703 1.1448e-08 0)
(3.31703 7.58478e-09 0)
(4.57697 9.80423e-09 0)
(4.57697 1.43321e-08 0)
(4.57697 2.41301e-08 0)
(4.57697 2.93837e-08 0)
(4.57697 3.42072e-08 0)
(4.57697 4.14367e-08 0)
(4.57697 4.03494e-08 0)
(4.57697 4.89317e-08 0)
(4.57697 4.22049e-08 0)
(4.57697 5.15437e-08 0)
(4.57697 4.00485e-08 0)
(4.57697 4.93967e-08 0)
(4.57697 3.45118e-08 0)
(4.57697 4.29764e-08 0)
(4.57697 2.6603e-08 0)
(4.57697 3.32211e-08 0)
(4.57697 1.71364e-08 0)
(4.57697 2.08269e-08 0)
(4.57697 8.61906e-09 0)
(4.57697 5.7821e-09 0)
(5.96356 7.3681e-09 0)
(5.96356 1.02526e-08 0)
(5.96356 1.72587e-08 0)
(5.96356 2.16222e-08 0)
(5.96356 2.4198e-08 0)
(5.96356 3.06657e-08 0)
(5.96356 2.83162e-08 0)
(5.96356 3.63287e-08 0)
(5.96356 2.94093e-08 0)
(5.96356 3.83627e-08 0)
(5.96356 2.77248e-08 0)
(5.96356 3.68369e-08 0)
(5.96356 2.37341e-08 0)
(5.96356 3.20879e-08 0)
(5.96356 1.81735e-08 0)
(5.96356 2.48218e-08 0)
(5.96356 1.15952e-08 0)
(5.96356 1.55077e-08 0)
(5.96356 5.84287e-09 0)
(5.96356 4.05566e-09 0)
(7.47681 4.64444e-09 0)
(7.47681 6.35589e-09 0)
(7.47681 1.06461e-08 0)
(7.47681 1.38211e-08 0)
(7.47681 1.48865e-08 0)
(7.47681 1.97027e-08 0)
(7.47681 1.73615e-08 0)
(7.47681 2.34061e-08 0)
(7.47681 1.79608e-08 0)
(7.47681 2.47649e-08 0)
(7.47681 1.68722e-08 0)
(7.47681 2.3813e-08 0)
(7.47681 1.43986e-08 0)
(7.47681 2.07583e-08 0)
(7.47681 1.09991e-08 0)
(7.47681 1.6064e-08 0)
(7.47681 7.00305e-09 0)
(7.47681 1.00096e-08 0)
(7.47681 3.54464e-09 0)
(7.47681 2.53669e-09 0)
(9.11672 1.37295e-09 0)
(9.11672 1.81551e-09 0)
(9.11672 3.0653e-09 0)
(9.11672 4.09589e-09 0)
(9.11672 4.21913e-09 0)
(9.11672 5.89156e-09 0)
(9.11672 4.86702e-09 0)
(9.11672 7.03708e-09 0)
(9.11672 4.97982e-09 0)
(9.11672 7.47646e-09 0)
(9.11672 4.62811e-09 0)
(9.11672 7.21385e-09 0)
(9.11672 3.90507e-09 0)
(9.11672 6.30677e-09 0)
(9.11672 2.94622e-09 0)
(9.11672 4.89448e-09 0)
(9.11672 1.83578e-09 0)
(9.11672 3.0561e-09 0)
(9.11672 9.12857e-10 0)
(9.11672 7.6092e-10 0)
)
;

boundaryField
{
    top
    {
        type            fixedValue;
        value           uniform (10 0 0);
    }
    bottom
    {
        type            fixedValue;
        value           uniform (0 0 0);
    }
    inlet
    {
        type            zeroGradient;
    }
    outlet
    {
        type            zeroGradient;
    }
    frontAndBack
    {
        type            empty;
    }
}


// ************************************************************************* //
