/*--------------------------------*- C++ -*----------------------------------*\
| =========                 |                                                 |
| \\      /  F ield         | OpenFOAM: The Open Source CFD Toolbox           |
|  \\    /   O peration     | Version:  4.1                                   |
|   \\  /    A nd           | Web:      www.OpenFOAM.org                      |
|    \\/     M anipulation  |                                                 |
\*---------------------------------------------------------------------------*/
FoamFile
{
    version     2.0;
    format      ascii;
    class       surfaceScalarField;
    location    "1.7";
    object      phi;
}
// * * * * * * * * * * * * * * * * * * * * * * * * * * * * * * * * * * * * * //

dimensions      [0 3 -1 0 0 0 0];

internalField   nonuniform List<scalar> 
760
(
-1.91639e-05
9.93514e-13
-1.91639e-05
1.37772e-12
-1.91639e-05
2.20337e-12
-1.91639e-05
9.58163e-13
-1.91639e-05
2.85669e-12
-1.91639e-05
1.05925e-12
-1.91639e-05
3.2032e-12
-1.91639e-05
1.15886e-12
-1.91639e-05
3.23143e-12
-1.91639e-05
1.25072e-12
-1.91639e-05
2.89529e-12
-1.91639e-05
1.26222e-12
-1.91639e-05
2.31597e-12
-1.91639e-05
1.23431e-12
-1.91639e-05
1.45223e-12
-1.91639e-05
1.10969e-12
-1.91639e-05
8.40684e-13
-1.91639e-05
6.26931e-13
-1.91639e-05
-5.13264e-13
1.51893e-12
-5.1159e-05
1.45782e-12
-5.1159e-05
1.62283e-12
-5.1159e-05
1.83384e-12
-5.1159e-05
-1.19624e-12
-5.1159e-05
1.47758e-12
-5.1159e-05
-2.05233e-12
-5.1159e-05
1.24731e-12
-5.1159e-05
-2.24609e-12
-5.1159e-05
9.43915e-13
-5.1159e-05
-1.98879e-12
-5.1159e-05
4.37738e-13
-5.1159e-05
-1.49307e-12
-5.1159e-05
-9.92013e-14
-5.1159e-05
-7.90003e-13
-5.1159e-05
-7.85097e-13
-5.1159e-05
-1.19268e-13
-5.1159e-05
-7.51943e-13
-5.1159e-05
-1.48171e-13
-5.1159e-05
-2.03612e-12
3.29353e-12
-7.68212e-05
2.19998e-12
-7.68212e-05
2.23089e-12
-7.68212e-05
1.13273e-12
-7.68212e-05
-3.47298e-12
-7.68212e-05
-6.28033e-13
-7.68212e-05
-5.37778e-12
-7.68212e-05
-1.55555e-12
-7.68212e-05
-5.80684e-12
-7.68212e-05
-2.20933e-12
-7.68212e-05
-5.30917e-12
-7.68212e-05
-2.8143e-12
-7.68212e-05
-4.25407e-12
-7.68212e-05
-3.16975e-12
-7.68212e-05
-2.77247e-12
-7.68212e-05
-3.45228e-12
-7.68212e-05
-1.29236e-12
-7.68212e-05
-2.54164e-12
-7.68212e-05
-9.65237e-13
-7.68212e-05
-3.29089e-12
5.61018e-12
-9.61506e-05
3.63195e-12
-9.61506e-05
3.65313e-12
-9.61506e-05
1.01748e-12
-9.61506e-05
-5.10127e-12
-9.61506e-05
-2.08046e-12
-9.61506e-05
-8.04306e-12
-9.61506e-05
-3.56327e-12
-9.61506e-05
-8.69818e-12
-9.61506e-05
-4.49359e-12
-9.61506e-05
-8.01607e-12
-9.61506e-05
-5.19792e-12
-9.61506e-05
-6.50541e-12
-9.61506e-05
-5.44755e-12
-9.61506e-05
-4.38814e-12
-9.61506e-05
-5.45656e-12
-9.61506e-05
-2.25147e-12
-9.61506e-05
-3.8624e-12
-9.61506e-05
-1.78305e-12
-9.61506e-05
-3.96469e-12
8.21066e-12
-0.000109147
5.6092e-12
-0.000109147
5.66075e-12
-0.000109147
1.48467e-12
-0.000109147
-6.13353e-12
-0.000109147
-2.77423e-12
-0.000109147
-9.9956e-12
-0.000109147
-4.6344e-12
-0.000109147
-1.08289e-11
-0.000109147
-5.75893e-12
-0.000109147
-9.99044e-12
-0.000109147
-6.56863e-12
-0.000109147
-8.11715e-12
-0.000109147
-6.80984e-12
-0.000109147
-5.5034e-12
-0.000109147
-6.70771e-12
-0.000109147
-2.88229e-12
-0.000109147
-4.66608e-12
-0.000109147
-2.4255e-12
-0.000109147
-4.0347e-12
1.09907e-11
-0.000115811
7.90057e-12
-0.000115811
7.88183e-12
-0.000115811
2.26881e-12
-0.000115811
-6.85192e-12
-0.000115811
-3.02067e-12
-0.000115811
-1.15298e-11
-0.000115811
-5.14215e-12
-0.000115811
-1.25212e-11
-0.000115811
-6.4084e-12
-0.000115811
-1.15594e-11
-0.000115811
-7.31864e-12
-0.000115811
-9.39509e-12
-0.000115811
-7.60479e-12
-0.000115811
-6.37873e-12
-0.000115811
-7.47763e-12
-0.000115811
-3.38482e-12
-0.000115811
-5.15364e-12
-0.000115811
-2.95334e-12
-0.000115811
-3.61401e-12
1.36667e-11
-0.000116142
1.02889e-11
-0.000116142
1.00045e-11
-0.000116142
3.18364e-12
-0.000116142
-7.40263e-12
-0.000116142
-3.01498e-12
-0.000116142
-1.27687e-11
-0.000116142
-5.32229e-12
-0.000116142
-1.38991e-11
-0.000116142
-6.69898e-12
-0.000116142
-1.28444e-11
-0.000116142
-7.6991e-12
-0.000116142
-1.045e-11
-0.000116142
-8.05613e-12
-0.000116142
-7.10868e-12
-0.000116142
-7.9407e-12
-0.000116142
-3.83026e-12
-0.000116142
-5.45716e-12
-0.000116142
-3.37481e-12
-0.000116142
-2.82552e-12
1.59851e-11
-0.000110141
1.25728e-11
-0.000110141
1.17758e-11
-0.000110141
4.08915e-12
-0.000110141
-7.83846e-12
-0.000110141
-2.87666e-12
-0.000110141
-1.37306e-11
-0.000110141
-5.31983e-12
-0.000110141
-1.49718e-11
-0.000110141
-6.7911e-12
-0.000110141
-1.38523e-11
-0.000110141
-7.87044e-12
-0.000110141
-1.12878e-11
-0.000110141
-8.30818e-12
-0.000110141
-7.70186e-12
-0.000110141
-8.20926e-12
-0.000110141
-4.22477e-12
-0.000110141
-5.66403e-12
-0.000110141
-3.68472e-12
-0.000110141
-1.80284e-12
1.77269e-11
-9.78061e-05
1.45699e-11
-9.78061e-05
1.29988e-11
-9.78061e-05
4.87898e-12
-9.78061e-05
-8.16133e-12
-9.78061e-05
-2.67161e-12
-9.78061e-05
-1.43872e-11
-9.78061e-05
-5.21176e-12
-9.78061e-05
-1.57e-11
-9.78061e-05
-6.76852e-12
-9.78061e-05
-1.45432e-11
-9.78061e-05
-7.91564e-12
-9.78061e-05
-1.18717e-11
-9.78061e-05
-8.43404e-12
-9.78061e-05
-8.1326e-12
-9.78061e-05
-8.33932e-12
-9.78061e-05
-4.54619e-12
-9.78061e-05
-5.8202e-12
-9.78061e-05
-3.87956e-12
-9.78061e-05
-6.79226e-13
1.87248e-11
-7.91389e-05
1.61161e-11
-7.91389e-05
1.35334e-11
-7.91389e-05
5.46334e-12
-7.91389e-05
-8.35451e-12
-7.91389e-05
-2.43721e-12
-7.91389e-05
-1.47001e-11
-7.91389e-05
-5.03527e-12
-7.91389e-05
-1.60359e-11
-7.91389e-05
-6.6669e-12
-7.91389e-05
-1.48693e-11
-7.91389e-05
-7.86771e-12
-7.91389e-05
-1.21575e-11
-7.91389e-05
-8.45933e-12
-7.91389e-05
-8.36737e-12
-7.91389e-05
-8.34956e-12
-7.91389e-05
-4.76236e-12
-7.91389e-05
-5.94033e-12
-7.91389e-05
-3.95933e-12
-7.91389e-05
4.18545e-13
1.88816e-11
-5.41389e-05
1.70685e-11
-5.41389e-05
1.33031e-11
-5.41389e-05
5.76439e-12
-5.41389e-05
-8.40407e-12
-5.41389e-05
-2.20049e-12
-5.41389e-05
-1.46465e-11
-5.41389e-05
-4.81036e-12
-5.41389e-05
-1.59519e-11
-5.41389e-05
-6.49823e-12
-5.41389e-05
-1.48023e-11
-5.41389e-05
-7.73329e-12
-5.41389e-05
-1.21179e-11
-5.41389e-05
-8.38303e-12
-5.41389e-05
-8.38436e-12
-5.41389e-05
-8.23835e-12
-5.41389e-05
-4.84636e-12
-5.41389e-05
-6.01714e-12
-5.41389e-05
-3.92778e-12
-5.41389e-05
1.37655e-12
1.81783e-11
-2.28061e-05
1.73122e-11
-2.28061e-05
1.23027e-11
-2.28061e-05
5.72268e-12
-2.28061e-05
-8.30625e-12
-2.28061e-05
-1.9855e-12
-2.28061e-05
-1.42266e-11
-2.28061e-05
-4.55129e-12
-2.28061e-05
-1.54488e-11
-2.28061e-05
-6.26485e-12
-2.28061e-05
-1.43417e-11
-2.28061e-05
-7.50737e-12
-2.28061e-05
-1.17499e-11
-2.28061e-05
-8.19184e-12
-2.28061e-05
-8.17787e-12
-2.28061e-05
-7.99601e-12
-2.28061e-05
-4.78166e-12
-2.28061e-05
-6.0294e-12
-2.28061e-05
-3.78768e-12
-2.28061e-05
2.09836e-12
1.66744e-11
1.48594e-05
1.67708e-11
1.48594e-05
1.06051e-11
1.48594e-05
5.31252e-12
1.48595e-05
-8.06115e-12
1.48594e-05
-1.80942e-12
1.48595e-05
-1.34563e-11
1.48594e-05
-4.26528e-12
1.48595e-05
-1.45465e-11
1.48594e-05
-5.96089e-12
1.48595e-05
-1.35043e-11
1.48594e-05
-7.17645e-12
1.48595e-05
-1.10651e-11
1.48595e-05
-7.86487e-12
1.48595e-05
-7.74981e-12
1.48595e-05
-7.60919e-12
1.48595e-05
-4.55854e-12
1.48595e-05
-5.94628e-12
1.48595e-05
-3.53374e-12
1.48595e-05
2.51342e-12
1.45017e-11
5.88578e-05
1.54204e-11
5.88578e-05
8.36528e-12
5.88578e-05
4.56255e-12
5.88578e-05
-7.65628e-12
5.88578e-05
-1.6679e-12
5.88578e-05
-1.23465e-11
5.88578e-05
-3.93842e-12
5.88578e-05
-1.32614e-11
5.88578e-05
-5.56027e-12
5.88578e-05
-1.23009e-11
5.88578e-05
-6.70864e-12
5.88578e-05
-1.00683e-11
5.88578e-05
-7.36708e-12
5.88578e-05
-7.09175e-12
5.88578e-05
-7.05554e-12
5.88578e-05
-4.16365e-12
5.88578e-05
-5.72656e-12
5.88578e-05
-3.14662e-12
5.88578e-05
2.58712e-12
1.18527e-11
0.000109189
1.33086e-11
0.000109189
5.82146e-12
0.000109189
3.56668e-12
0.000109189
-7.0442e-12
0.000109189
-1.52274e-12
0.000109189
-1.08774e-11
0.000109189
-3.52273e-12
0.000109189
-1.15751e-11
0.000109189
-5.00429e-12
0.000109189
-1.07059e-11
0.000109189
-6.04194e-12
0.000109189
-8.73016e-12
0.000109189
-6.63954e-12
0.000109189
-6.163e-12
0.000109189
-6.29417e-12
0.000109189
-3.56564e-12
0.000109189
-5.31198e-12
0.000109189
-2.59051e-12
0.000109189
2.3382e-12
8.972e-12
0.000165853
1.05817e-11
0.000165853
3.2916e-12
0.000165853
2.50918e-12
0.000165853
-6.12143e-12
0.000165853
-1.26262e-12
0.000165853
-8.97017e-12
0.000165853
-2.8912e-12
0.000165853
-9.40358e-12
0.000165853
-4.15532e-12
0.000165853
-8.62485e-12
0.000165853
-5.04083e-12
0.000165853
-6.95537e-12
0.000165853
-5.56263e-12
0.000165853
-4.86569e-12
0.000165853
-5.23544e-12
0.000165853
-2.69758e-12
0.000165853
-4.61424e-12
0.000165853
-1.81456e-12
0.000165853
1.85503e-12
6.13975e-12
0.000228849
7.55101e-12
0.000228849
1.19455e-12
0.000228849
1.70013e-12
0.000228849
-4.66627e-12
0.000228849
-6.25279e-13
0.000228849
-6.40007e-12
0.000228849
-1.74442e-12
0.000228849
-6.49326e-12
0.000228849
-2.69776e-12
0.000228849
-5.78952e-12
0.000228849
-3.40091e-12
0.000228849
-4.48539e-12
0.000228849
-3.87193e-12
0.000228849
-2.96538e-12
0.000228849
-3.67262e-12
0.000228849
-1.3924e-12
0.000228849
-3.4693e-12
0.000228849
-7.29057e-13
0.000228849
1.33871e-12
3.67535e-12
0.000298179
4.40412e-12
0.000298179
-1.96947e-13
0.000298179
1.12199e-12
0.000298179
-2.77122e-12
0.000298179
1.74993e-13
0.000298179
-3.36265e-12
0.000298179
-3.4297e-13
0.000298179
-3.081e-12
0.000298179
-8.9221e-13
0.000298179
-2.44576e-12
0.000298179
-1.35665e-12
0.000298179
-1.55277e-12
0.000298179
-1.7535e-12
0.000298179
-6.63514e-13
0.000298179
-1.7329e-12
0.000298179
1.84289e-13
0.000298179
-1.90547e-12
0.000298179
4.78783e-13
0.000298179
9.72866e-13
1.8572e-12
0.000373841
1.82256e-12
0.000373841
-3.02546e-13
0.000373841
1.21215e-12
0.000373841
-1.11763e-13
0.000373841
1.55464e-12
0.000373841
4.60682e-13
0.000373841
1.74761e-12
0.000373841
1.15627e-12
0.000373841
1.68398e-12
0.000373841
1.70738e-12
0.000373841
1.46838e-12
0.000373841
2.09911e-12
0.000373841
1.09478e-12
0.000373841
2.22724e-12
0.000373841
8.02242e-13
0.000373841
2.14188e-12
0.000373841
2.1006e-13
0.000373841
1.75495e-12
0.000373841
1.04767e-12
9.22215e-13
0.000455836
0.000455836
0.000455836
0.000455836
0.000455836
0.000455836
0.000455836
0.000455836
0.000455836
0.000455836
0.000455836
0.000455836
0.000455836
0.000455836
0.000455836
0.000455836
0.000455836
0.000455836
0.000455836
)
;

boundaryField
{
    top
    {
        type            calculated;
        value           uniform 0;
    }
    bottom
    {
        type            calculated;
        value           uniform 0;
    }
    inlet
    {
        type            calculated;
        value           nonuniform List<scalar> 
20
(
1.91639e-05
5.1159e-05
7.68212e-05
9.61506e-05
0.000109147
0.000115811
0.000116142
0.000110141
9.78061e-05
7.91389e-05
5.41389e-05
2.28061e-05
-1.48594e-05
-5.88578e-05
-0.000109189
-0.000165853
-0.000228849
-0.000298179
-0.000373841
-0.000455836
)
;
    }
    outlet
    {
        type            calculated;
        value           nonuniform List<scalar> 
20
(
-1.91639e-05
-5.1159e-05
-7.68212e-05
-9.61506e-05
-0.000109147
-0.000115811
-0.000116142
-0.000110141
-9.78061e-05
-7.91389e-05
-5.41389e-05
-2.28061e-05
1.48595e-05
5.88578e-05
0.000109189
0.000165853
0.000228849
0.000298179
0.000373841
0.000455836
)
;
    }
    frontAndBack
    {
        type            empty;
        value           nonuniform 0();
    }
}


// ************************************************************************* //
