/*--------------------------------*- C++ -*----------------------------------*\
| =========                 |                                                 |
| \\      /  F ield         | OpenFOAM: The Open Source CFD Toolbox           |
|  \\    /   O peration     | Version:  4.1                                   |
|   \\  /    A nd           | Web:      www.OpenFOAM.org                      |
|    \\/     M anipulation  |                                                 |
\*---------------------------------------------------------------------------*/
FoamFile
{
    version     2.0;
    format      ascii;
    class       volVectorField;
    location    "1.7";
    object      U;
}
// * * * * * * * * * * * * * * * * * * * * * * * * * * * * * * * * * * * * * //

dimensions      [0 1 -1 0 0 0 0];

internalField   nonuniform List<vector> 
400
(
(-0.383278 1.55749e-10 0)
(-0.383278 1.55284e-11 0)
(-0.383278 -1.9167e-11 0)
(-0.383278 -5.64779e-10 0)
(-0.383278 -2.64776e-10 0)
(-0.383278 -8.88118e-10 0)
(-0.383278 -4.37995e-10 0)
(-0.383278 -1.05571e-09 0)
(-0.383278 -5.50556e-10 0)
(-0.383278 -1.08902e-09 0)
(-0.383278 -6.20841e-10 0)
(-0.383278 -1.01369e-09 0)
(-0.383278 -6.35837e-10 0)
(-0.383278 -8.40373e-10 0)
(-0.383278 -6.23187e-10 0)
(-0.383278 -6.11502e-10 0)
(-0.383278 -4.93591e-10 0)
(-0.383278 -4.00207e-10 0)
(-0.383278 -5.55597e-10 0)
(-0.383278 1.83442e-10 0)
(-1.02318 1.24544e-09 0)
(-1.02318 1.7735e-09 0)
(-1.02318 2.87542e-09 0)
(-1.02318 6.58332e-10 0)
(-1.02318 3.58243e-09 0)
(-1.02318 7.12279e-10 0)
(-1.02318 3.93677e-09 0)
(-1.02318 9.16159e-10 0)
(-1.02318 3.89344e-09 0)
(-1.02318 1.21872e-09 0)
(-1.02318 3.37479e-09 0)
(-1.02318 1.45014e-09 0)
(-1.02318 2.57211e-09 0)
(-1.02318 1.64733e-09 0)
(-1.02318 1.42016e-09 0)
(-1.02318 1.65263e-09 0)
(-1.02318 7.65446e-10 0)
(-1.02318 1.06983e-09 0)
(-1.02318 -1.14933e-09 0)
(-1.02318 2.81596e-09 0)
(-1.53642 1.49928e-09 0)
(-1.53642 1.34722e-09 0)
(-1.53642 6.95978e-10 0)
(-1.53642 -3.16776e-09 0)
(-1.53642 -7.738e-10 0)
(-1.53642 -4.85506e-09 0)
(-1.53642 -1.61922e-09 0)
(-1.53642 -5.35871e-09 0)
(-1.53642 -2.20619e-09 0)
(-1.53642 -5.05556e-09 0)
(-1.53642 -2.70379e-09 0)
(-1.53642 -4.22759e-09 0)
(-1.53642 -2.96723e-09 0)
(-1.53642 -2.9759e-09 0)
(-1.53642 -3.15374e-09 0)
(-1.53642 -1.65564e-09 0)
(-1.53642 -2.3763e-09 0)
(-1.53642 -1.12308e-09 0)
(-1.53642 -3.0302e-09 0)
(-1.53642 3.92057e-09 0)
(-1.92301 2.88196e-09 0)
(-1.92301 2.94546e-09 0)
(-1.92301 1.29306e-09 0)
(-1.92301 -4.05665e-09 0)
(-1.92301 -9.94237e-10 0)
(-1.92301 -6.35919e-09 0)
(-1.92301 -2.11506e-09 0)
(-1.92301 -6.83092e-09 0)
(-1.92301 -2.87513e-09 0)
(-1.92301 -6.21175e-09 0)
(-1.92301 -3.53862e-09 0)
(-1.92301 -4.94191e-09 0)
(-1.92301 -3.89738e-09 0)
(-1.92301 -3.18997e-09 0)
(-1.92301 -4.13451e-09 0)
(-1.92301 -1.46525e-09 0)
(-1.92301 -2.99973e-09 0)
(-1.92301 -1.13973e-09 0)
(-1.92301 -3.63767e-09 0)
(-1.92301 6.9345e-09 0)
(-2.18295 4.60734e-09 0)
(-2.18295 4.62812e-09 0)
(-2.18295 1.30852e-09 0)
(-2.18295 -5.56299e-09 0)
(-2.18295 -2.33672e-09 0)
(-2.18295 -8.95856e-09 0)
(-2.18295 -3.98469e-09 0)
(-2.18295 -9.6988e-09 0)
(-2.18295 -5.00294e-09 0)
(-2.18295 -8.94336e-09 0)
(-2.18295 -5.76117e-09 0)
(-2.18295 -7.26033e-09 0)
(-2.18295 -6.01973e-09 0)
(-2.18295 -4.90728e-09 0)
(-2.18295 -5.99233e-09 0)
(-2.18295 -2.54212e-09 0)
(-2.18295 -4.21581e-09 0)
(-2.18295 -2.0838e-09 0)
(-2.18295 -4.04235e-09 0)
(-2.18295 9.53778e-09 0)
(-2.31622 6.7756e-09 0)
(-2.31622 6.78123e-09 0)
(-2.31622 1.92075e-09 0)
(-2.31622 -6.44577e-09 0)
(-2.31622 -2.83814e-09 0)
(-2.31622 -1.07231e-08 0)
(-2.31622 -4.80715e-09 0)
(-2.31622 -1.16311e-08 0)
(-2.31622 -5.98988e-09 0)
(-2.31622 -1.07323e-08 0)
(-2.31622 -6.84447e-09 0)
(-2.31622 -8.71766e-09 0)
(-2.31622 -7.11317e-09 0)
(-2.31622 -5.91085e-09 0)
(-2.31622 -7.00875e-09 0)
(-2.31622 -3.111e-09 0)
(-2.31622 -4.85485e-09 0)
(-2.31622 -2.68299e-09 0)
(-2.31622 -3.83537e-09 0)
(-2.31622 1.23233e-08 0)
(-2.32284 9.15226e-09 0)
(-2.32284 9.00075e-09 0)
(-2.32284 2.75215e-09 0)
(-2.32284 -7.08497e-09 0)
(-2.32284 -2.99155e-09 0)
(-2.32284 -1.21215e-08 0)
(-2.32284 -5.18845e-09 0)
(-2.32284 -1.31771e-08 0)
(-2.32284 -6.4961e-09 0)
(-2.32284 -1.21675e-08 0)
(-2.32284 -7.44267e-09 0)
(-2.32284 -9.8891e-09 0)
(-2.32284 -7.76205e-09 0)
(-2.32284 -6.71601e-09 0)
(-2.32284 -7.64162e-09 0)
(-2.32284 -3.58416e-09 0)
(-2.32284 -5.25273e-09 0)
(-2.32284 -3.16832e-09 0)
(-2.32284 -3.19075e-09 0)
(-2.32284 1.48831e-08 0)
(-2.20281 1.15316e-08 0)
(-2.20281 1.10001e-08 0)
(-2.20281 3.65824e-09 0)
(-2.20281 -7.58018e-09 0)
(-2.20281 -2.93887e-09 0)
(-2.20281 -1.32323e-08 0)
(-2.20281 -5.30038e-09 0)
(-2.20281 -1.44148e-08 0)
(-2.20281 -6.70889e-09 0)
(-2.20281 -1.33265e-08 0)
(-2.20281 -7.73554e-09 0)
(-2.20281 -1.08468e-08 0)
(-2.20281 -8.12524e-09 0)
(-2.20281 -7.38769e-09 0)
(-2.20281 -8.01382e-09 0)
(-2.20281 -4.01064e-09 0)
(-2.20281 -5.50657e-09 0)
(-2.20281 -3.54785e-09 0)
(-2.20281 -2.2413e-09 0)
(-2.20281 1.69642e-08 0)
(-1.95612 1.37133e-08 0)
(-1.95612 1.25516e-08 0)
(-1.95612 4.5087e-09 0)
(-1.95612 -7.95503e-09 0)
(-1.95612 -2.77606e-09 0)
(-1.95612 -1.40396e-08 0)
(-1.95612 -5.25849e-09 0)
(-1.95612 -1.53138e-08 0)
(-1.95612 -6.75726e-09 0)
(-1.95612 -1.41745e-08 0)
(-1.95612 -7.85666e-09 0)
(-1.95612 -1.15563e-08 0)
(-1.95612 -8.32451e-09 0)
(-1.95612 -7.89912e-09 0)
(-1.95612 -8.22106e-09 0)
(-1.95612 -4.36771e-09 0)
(-1.95612 -5.68894e-09 0)
(-1.95612 -3.80845e-09 0)
(-1.95612 -1.12822e-09 0)
(-1.95612 1.83814e-08 0)
(-1.58278 1.55196e-08 0)
(-1.58278 1.34782e-08 0)
(-1.58278 5.20519e-09 0)
(-1.58278 -8.20639e-09 0)
(-1.58278 -2.55816e-09 0)
(-1.58278 -1.45186e-08 0)
(-1.58278 -5.12344e-09 0)
(-1.58278 -1.58413e-08 0)
(-1.58278 -6.70422e-09 0)
(-1.58278 -1.46794e-08 0)
(-1.58278 -7.86562e-09 0)
(-1.58278 -1.19889e-08 0)
(-1.58278 -8.40987e-09 0)
(-1.58278 -8.23125e-09 0)
(-1.58278 -8.30074e-09 0)
(-1.58278 -4.63668e-09 0)
(-1.58278 -5.82999e-09 0)
(-1.58278 -3.95423e-09 0)
(-1.58278 1.15529e-11 0)
(-1.58278 1.89933e-08 0)
(-1.08278 1.67924e-08 0)
(-1.08278 1.36649e-08 0)
(-1.08278 5.6618e-09 0)
(-1.08278 -8.3202e-09 0)
(-1.08278 -2.31893e-09 0)
(-1.08278 -1.46398e-08 0)
(-1.08278 -4.92469e-09 0)
(-1.08278 -1.59608e-08 0)
(-1.08278 -6.57415e-09 0)
(-1.08278 -1.48042e-08 0)
(-1.08278 -7.7823e-09 0)
(-1.08278 -1.21094e-08 0)
(-1.08278 -8.39335e-09 0)
(-1.08278 -8.35677e-09 0)
(-1.08278 -8.26094e-09 0)
(-1.08278 -4.78828e-09 0)
(-1.08278 -5.93348e-09 0)
(-1.08278 -3.98716e-09 0)
(-1.08278 1.05366e-09 0)
(-1.08278 1.87387e-08 0)
(-0.456122 1.73992e-08 0)
(-0.456122 1.30644e-08 0)
(-0.456122 5.80602e-09 0)
(-0.456122 -8.28876e-09 0)
(-0.456122 -2.08619e-09 0)
(-0.456122 -1.4393e-08 0)
(-0.456122 -4.68101e-09 0)
(-0.456122 -1.56593e-08 0)
(-0.456122 -6.37544e-09 0)
(-0.456122 -1.45348e-08 0)
(-0.456122 -7.60833e-09 0)
(-0.456122 -1.19029e-08 0)
(-0.456122 -8.26821e-09 0)
(-0.456122 -8.26176e-09 0)
(-0.456122 -8.09572e-09 0)
(-0.456122 -4.80056e-09 0)
(-0.456122 -5.98474e-09 0)
(-0.456122 -3.90966e-09 0)
(-0.456122 1.89099e-09 0)
(-0.456122 1.7635e-08 0)
(0.297189 1.72414e-08 0)
(0.297189 1.17058e-08 0)
(0.297189 5.59041e-09 0)
(0.297189 -8.11119e-09 0)
(0.297189 -1.88314e-09 0)
(0.297189 -1.37873e-08 0)
(0.297189 -4.40486e-09 0)
(0.297189 -1.4948e-08 0)
(0.297189 -6.10742e-09 0)
(0.297189 -1.38795e-08 0)
(0.297189 -7.33483e-09 0)
(0.297189 -1.13732e-08 0)
(0.297189 -8.01711e-09 0)
(0.297189 -7.94356e-09 0)
(0.297189 -7.79256e-09 0)
(0.297189 -4.6594e-09 0)
(0.297189 -5.9569e-09 0)
(0.297189 -3.71825e-09 0)
(0.297189 2.44047e-09 0)
(0.297189 1.57771e-08 0)
(1.17716 1.62727e-08 0)
(1.17716 9.70424e-09 0)
(1.17716 5.01963e-09 0)
(1.17716 -7.78223e-09 0)
(1.17716 -1.70733e-09 0)
(1.17716 -1.2835e-08 0)
(1.17716 -4.08144e-09 0)
(1.17716 -1.38431e-08 0)
(1.17716 -5.74154e-09 0)
(1.17716 -1.28492e-08 0)
(1.17716 -6.92667e-09 0)
(1.17716 -1.05246e-08 0)
(1.17716 -7.6011e-09 0)
(1.17716 -7.39478e-09 0)
(1.17716 -7.3245e-09 0)
(1.17716 -4.3495e-09 0)
(1.17716 -5.8111e-09 0)
(1.17716 -3.39575e-09 0)
(1.17716 2.65407e-09 0)
(1.17716 1.33273e-08 0)
(2.18378 1.44853e-08 0)
(2.18378 7.2502e-09 0)
(2.18378 4.13141e-09 0)
(2.18378 -7.27171e-09 0)
(2.18378 -1.56534e-09 0)
(2.18378 -1.15295e-08 0)
(2.18378 -3.70968e-09 0)
(2.18378 -1.23387e-08 0)
(2.18378 -5.26401e-09 0)
(2.18378 -1.14319e-08 0)
(2.18378 -6.36153e-09 0)
(2.18378 -9.34223e-09 0)
(2.18378 -6.99136e-09 0)
(2.18378 -6.58944e-09 0)
(2.18378 -6.67136e-09 0)
(2.18378 -3.84611e-09 0)
(2.18378 -5.49574e-09 0)
(2.18378 -2.9139e-09 0)
(2.18378 2.52683e-09 0)
(2.18378 1.0512e-08 0)
(3.31705 1.19865e-08 0)
(3.31705 4.62627e-09 0)
(3.31705 3.07516e-09 0)
(3.31705 -6.51982e-09 0)
(3.31705 -1.36612e-09 0)
(3.31705 -9.83827e-09 0)
(3.31705 -3.18196e-09 0)
(3.31705 -1.04033e-08 0)
(3.31705 -4.55505e-09 0)
(3.31705 -9.58575e-09 0)
(3.31705 -5.51988e-09 0)
(3.31705 -7.77759e-09 0)
(3.31705 -6.081e-09 0)
(3.31705 -5.46817e-09 0)
(3.31705 -5.7532e-09 0)
(3.31705 -3.1077e-09 0)
(3.31705 -4.93736e-09 0)
(3.31705 -2.22758e-09 0)
(3.31705 2.11951e-09 0)
(3.31705 7.59044e-09 0)
(4.57699 9.21325e-09 0)
(4.57699 2.33799e-09 0)
(4.57699 2.4037e-09 0)
(4.57699 -5.0696e-09 0)
(4.57699 -4.91289e-10 0)
(4.57699 -7.22406e-09 0)
(4.57699 -1.78713e-09 0)
(4.57699 -7.41923e-09 0)
(4.57699 -2.87986e-09 0)
(4.57699 -6.66683e-09 0)
(4.57699 -3.71012e-09 0)
(4.57699 -5.2192e-09 0)
(4.57699 -4.28556e-09 0)
(4.57699 -3.49047e-09 0)
(4.57699 -4.13105e-09 0)
(4.57699 -1.72779e-09 0)
(4.57699 -3.83661e-09 0)
(4.57699 -1.0708e-09 0)
(4.57699 1.64435e-09 0)
(4.57699 4.89421e-09 0)
(5.96358 5.23082e-09 0)
(5.96358 -1.35304e-10 0)
(5.96358 4.30693e-10 0)
(5.96358 -4.65755e-09 0)
(5.96358 -1.57001e-09 0)
(5.96358 -6.12918e-09 0)
(5.96358 -2.61174e-09 0)
(5.96358 -6.25428e-09 0)
(5.96358 -3.42133e-09 0)
(5.96358 -5.66314e-09 0)
(5.96358 -3.91436e-09 0)
(5.96358 -4.50846e-09 0)
(5.96358 -4.12312e-09 0)
(5.96358 -3.1148e-09 0)
(5.96358 -3.71471e-09 0)
(5.96358 -1.61406e-09 0)
(5.96358 -3.29707e-09 0)
(5.96358 -7.68957e-10 0)
(5.96358 7.5117e-10 0)
(5.96358 2.4969e-09 0)
(7.47682 3.74325e-09 0)
(7.47682 -5.80598e-11 0)
(7.47682 2.28663e-09 0)
(7.47682 -5.32109e-10 0)
(7.47682 2.55964e-09 0)
(7.47682 -1.25629e-10 0)
(7.47682 2.67524e-09 0)
(7.47682 6.39862e-10 0)
(7.47682 2.40259e-09 0)
(7.47682 1.3478e-09 0)
(7.47682 1.90984e-09 0)
(7.47682 1.95415e-09 0)
(7.47682 1.19807e-09 0)
(7.47682 2.28383e-09 0)
(7.47682 6.6511e-10 0)
(7.47682 2.35398e-09 0)
(7.47682 -2.82437e-10 0)
(7.47682 2.03721e-09 0)
(7.47682 1.18936e-09 0)
(7.47682 1.2827e-09 0)
(9.11672 7.47719e-11 0)
(9.11672 -6.47418e-10 0)
(9.11672 -5.65415e-10 0)
(9.11672 -1.08264e-09 0)
(9.11672 -8.64177e-10 0)
(9.11672 -1.22625e-09 0)
(9.11672 -1.03025e-09 0)
(9.11672 -1.19726e-09 0)
(9.11672 -1.10959e-09 0)
(9.11672 -1.05832e-09 0)
(9.11672 -1.0891e-09 0)
(9.11672 -8.27578e-10 0)
(9.11672 -9.85914e-10 0)
(9.11672 -5.59604e-10 0)
(9.11672 -7.78805e-10 0)
(9.11672 -2.57355e-10 0)
(9.11672 -5.77282e-10 0)
(9.11672 -4.72071e-11 0)
(9.11672 8.94093e-11 0)
(9.11672 2.54962e-10 0)
)
;

boundaryField
{
    top
    {
        type            fixedValue;
        value           uniform (10 0 0);
    }
    bottom
    {
        type            fixedValue;
        value           uniform (0 0 0);
    }
    inlet
    {
        type            zeroGradient;
    }
    outlet
    {
        type            zeroGradient;
    }
    frontAndBack
    {
        type            empty;
    }
}


// ************************************************************************* //
