/*--------------------------------*- C++ -*----------------------------------*\
| =========                 |                                                 |
| \\      /  F ield         | OpenFOAM: The Open Source CFD Toolbox           |
|  \\    /   O peration     | Version:  4.1                                   |
|   \\  /    A nd           | Web:      www.OpenFOAM.org                      |
|    \\/     M anipulation  |                                                 |
\*---------------------------------------------------------------------------*/
FoamFile
{
    version     2.0;
    format      ascii;
    class       volScalarField;
    location    "0.1";
    object      p;
}
// * * * * * * * * * * * * * * * * * * * * * * * * * * * * * * * * * * * * * //

dimensions      [0 2 -2 0 0 0 0];

internalField   nonuniform List<scalar> 
400
(
4.77379e-06
9.70187e-06
5.17077e-06
3.72453e-06
3.82515e-06
2.84075e-06
3.19606e-06
2.49191e-06
2.64775e-06
2.15475e-06
2.15061e-06
1.77721e-06
1.69743e-06
1.35823e-06
1.2876e-06
8.82331e-07
9.6499e-07
3.49187e-07
1.38529e-06
1.83086e-06
4.76986e-06
9.67081e-06
5.14148e-06
3.72089e-06
3.8238e-06
2.84068e-06
3.19589e-06
2.49194e-06
2.64772e-06
2.15475e-06
2.15061e-06
1.77721e-06
1.69743e-06
1.35823e-06
1.28764e-06
8.82376e-07
9.64806e-07
3.49359e-07
1.37553e-06
1.82069e-06
4.77019e-06
9.64795e-06
5.1138e-06
3.71717e-06
3.82308e-06
2.84024e-06
3.19608e-06
2.49169e-06
2.64789e-06
2.15461e-06
2.15072e-06
1.77711e-06
1.69752e-06
1.35813e-06
1.28778e-06
8.82326e-07
9.65135e-07
3.48113e-07
1.36654e-06
1.81349e-06
4.77285e-06
9.63067e-06
5.08911e-06
3.71352e-06
3.8226e-06
2.8398e-06
3.19633e-06
2.49142e-06
2.64809e-06
2.15445e-06
2.15085e-06
1.77701e-06
1.69761e-06
1.35803e-06
1.28793e-06
8.82335e-07
9.65832e-07
3.45398e-07
1.35854e-06
1.80898e-06
4.77815e-06
9.61766e-06
5.06661e-06
3.71005e-06
3.82219e-06
2.83947e-06
3.19653e-06
2.49121e-06
2.64824e-06
2.15432e-06
2.15094e-06
1.77693e-06
1.69768e-06
1.35795e-06
1.28806e-06
8.82433e-07
9.66801e-07
3.41555e-07
1.35145e-06
1.80655e-06
4.7854e-06
9.6076e-06
5.04548e-06
3.70662e-06
3.82184e-06
2.83923e-06
3.19668e-06
2.49105e-06
2.64836e-06
2.15422e-06
2.15102e-06
1.77687e-06
1.69774e-06
1.35788e-06
1.28818e-06
8.8261e-07
9.68045e-07
3.3669e-07
1.34506e-06
1.80588e-06
4.79436e-06
9.60051e-06
5.02597e-06
3.70327e-06
3.82159e-06
2.83907e-06
3.19681e-06
2.49092e-06
2.64845e-06
2.15414e-06
2.15108e-06
1.77682e-06
1.69779e-06
1.35783e-06
1.28828e-06
8.82853e-07
9.69557e-07
3.3094e-07
1.33943e-06
1.8069e-06
4.80478e-06
9.59631e-06
5.00826e-06
3.70002e-06
3.82141e-06
2.83898e-06
3.19692e-06
2.49082e-06
2.64852e-06
2.15408e-06
2.15113e-06
1.77678e-06
1.69782e-06
1.35778e-06
1.28838e-06
8.83153e-07
9.7131e-07
3.24474e-07
1.33457e-06
1.80943e-06
4.81641e-06
9.59482e-06
4.99245e-06
3.69689e-06
3.82131e-06
2.83895e-06
3.197e-06
2.49075e-06
2.64857e-06
2.15404e-06
2.15116e-06
1.77675e-06
1.69784e-06
1.35774e-06
1.28846e-06
8.835e-07
9.73261e-07
3.17505e-07
1.33047e-06
1.81321e-06
4.82899e-06
9.59581e-06
4.97858e-06
3.69387e-06
3.82125e-06
2.83898e-06
3.19706e-06
2.49072e-06
2.64859e-06
2.15403e-06
2.15117e-06
1.77674e-06
1.69785e-06
1.35772e-06
1.28852e-06
8.83883e-07
9.75354e-07
3.10274e-07
1.32705e-06
1.81791e-06
4.84224e-06
9.59902e-06
4.96665e-06
3.69099e-06
3.82123e-06
2.83907e-06
3.19709e-06
2.49073e-06
2.64859e-06
2.15403e-06
2.15117e-06
1.77674e-06
1.69784e-06
1.3577e-06
1.28857e-06
8.84292e-07
9.7752e-07
3.03053e-07
1.3242e-06
1.8231e-06
4.85588e-06
9.60411e-06
4.95659e-06
3.68826e-06
3.82122e-06
2.83921e-06
3.19709e-06
2.49077e-06
2.64856e-06
2.15405e-06
2.15115e-06
1.77676e-06
1.69783e-06
1.3577e-06
1.28859e-06
8.84715e-07
9.79675e-07
2.96136e-07
1.32172e-06
1.82825e-06
4.8697e-06
9.61075e-06
4.94831e-06
3.68572e-06
3.82123e-06
2.83941e-06
3.19706e-06
2.49084e-06
2.6485e-06
2.15409e-06
2.15112e-06
1.77678e-06
1.6978e-06
1.35772e-06
1.28859e-06
8.85143e-07
9.81729e-07
2.89837e-07
1.31931e-06
1.83271e-06
4.88355e-06
9.61865e-06
4.94164e-06
3.68342e-06
3.82125e-06
2.83965e-06
3.19701e-06
2.49094e-06
2.64843e-06
2.15416e-06
2.15107e-06
1.77682e-06
1.69776e-06
1.35774e-06
1.28858e-06
8.85567e-07
9.83588e-07
2.84478e-07
1.3166e-06
1.83576e-06
4.89737e-06
9.62756e-06
4.93641e-06
3.68143e-06
3.82127e-06
2.83994e-06
3.19692e-06
2.49108e-06
2.64833e-06
2.15424e-06
2.151e-06
1.77687e-06
1.69771e-06
1.35778e-06
1.28854e-06
8.85981e-07
9.85162e-07
2.80379e-07
1.31314e-06
1.83661e-06
4.91123e-06
9.6374e-06
4.93247e-06
3.6798e-06
3.82132e-06
2.84027e-06
3.1968e-06
2.49126e-06
2.6482e-06
2.15434e-06
2.15092e-06
1.77694e-06
1.69765e-06
1.35783e-06
1.28848e-06
8.8638e-07
9.86377e-07
2.77845e-07
1.30844e-06
1.83444e-06
4.92541e-06
9.64829e-06
4.92977e-06
3.67861e-06
3.82136e-06
2.84066e-06
3.19663e-06
2.49147e-06
2.64804e-06
2.15447e-06
2.15082e-06
1.77702e-06
1.69757e-06
1.3579e-06
1.2884e-06
8.86764e-07
9.87167e-07
2.77192e-07
1.302e-06
1.8284e-06
4.94157e-06
9.6621e-06
4.92866e-06
3.67796e-06
3.82142e-06
2.84114e-06
3.1964e-06
2.49174e-06
2.64785e-06
2.15463e-06
2.1507e-06
1.77712e-06
1.69748e-06
1.35799e-06
1.28829e-06
8.87138e-07
9.87491e-07
2.78898e-07
1.29321e-06
1.81733e-06
4.96115e-06
9.68075e-06
4.9289e-06
3.67776e-06
3.82166e-06
2.84157e-06
3.19622e-06
2.49199e-06
2.64767e-06
2.15478e-06
2.15058e-06
1.77722e-06
1.69739e-06
1.35808e-06
1.28817e-06
8.87458e-07
9.87319e-07
2.83293e-07
1.28236e-06
1.80126e-06
4.98588e-06
9.70803e-06
4.93055e-06
3.67791e-06
3.82252e-06
2.8416e-06
3.1964e-06
2.49196e-06
2.64771e-06
2.15477e-06
2.15059e-06
1.77722e-06
1.69738e-06
1.35809e-06
1.28816e-06
8.87584e-07
9.87017e-07
2.89062e-07
1.27143e-06
1.78405e-06
)
;

boundaryField
{
    top
    {
        type            zeroGradient;
    }
    bottom
    {
        type            zeroGradient;
    }
    inlet
    {
        type            fixedValue;
        value           uniform 0;
    }
    outlet
    {
        type            fixedValue;
        value           uniform 0;
    }
    frontAndBack
    {
        type            empty;
    }
}


// ************************************************************************* //
