/*--------------------------------*- C++ -*----------------------------------*\
| =========                 |                                                 |
| \\      /  F ield         | OpenFOAM: The Open Source CFD Toolbox           |
|  \\    /   O peration     | Version:  4.1                                   |
|   \\  /    A nd           | Web:      www.OpenFOAM.org                      |
|    \\/     M anipulation  |                                                 |
\*---------------------------------------------------------------------------*/
FoamFile
{
    version     2.0;
    format      ascii;
    class       surfaceScalarField;
    location    "0.1";
    object      phi;
}
// * * * * * * * * * * * * * * * * * * * * * * * * * * * * * * * * * * * * * //

dimensions      [0 3 -1 0 0 0 0];

internalField   nonuniform List<scalar> 
760
(
3.62344e-07
-1.09459e-12
3.62352e-07
-8.05669e-12
3.62357e-07
-4.69485e-12
3.62357e-07
-3.04906e-14
3.62358e-07
-5.77055e-13
3.62357e-07
4.24773e-13
3.62358e-07
-3.68627e-13
3.62357e-07
2.79625e-13
3.62358e-07
-2.11512e-13
3.62357e-07
1.55911e-13
3.62358e-07
-1.16725e-13
3.62357e-07
9.17962e-14
3.62358e-07
-8.02648e-14
3.62357e-07
8.36907e-14
3.62358e-07
-1.01399e-13
3.62357e-07
1.52674e-13
3.62358e-07
-2.92588e-13
3.62357e-07
9.20254e-13
3.62359e-07
-1.90131e-12
-3.47983e-12
1.10411e-06
-7.60387e-13
1.10412e-06
-2.34411e-11
1.10414e-06
-1.8452e-11
1.10414e-06
-8.98879e-13
1.10414e-06
-1.49917e-12
1.10414e-06
8.76255e-13
1.10414e-06
-8.06177e-13
1.10414e-06
5.89966e-13
1.10414e-06
-4.47558e-13
1.10414e-06
3.26075e-13
1.10414e-06
-2.43124e-13
1.10414e-06
1.90212e-13
1.10414e-06
-1.65544e-13
1.10414e-06
1.73854e-13
1.10414e-06
-2.0737e-13
1.10414e-06
3.23243e-13
1.10414e-06
-7.21039e-13
1.10414e-06
2.67285e-12
1.10414e-06
-6.71005e-12
-1.0873e-11
1.89709e-06
3.15059e-12
1.89711e-06
-3.94082e-11
1.89713e-06
-3.78719e-11
1.89713e-06
-2.328e-12
1.89713e-06
-2.27217e-12
1.89713e-06
1.13367e-12
1.89713e-06
-1.08001e-12
1.89713e-06
7.71312e-13
1.89713e-06
-5.84667e-13
1.89713e-06
4.22061e-13
1.89713e-06
-3.13372e-13
1.89713e-06
2.44159e-13
1.89713e-06
-2.11951e-13
1.89713e-06
2.24156e-13
1.89713e-06
-2.65663e-13
1.89713e-06
4.33704e-13
1.89713e-06
-1.10718e-12
1.89713e-06
5.00283e-12
1.89714e-06
-1.35928e-11
-2.0721e-11
2.77544e-06
1.09661e-11
2.77545e-06
-5.28266e-11
2.77547e-06
-5.98097e-11
2.77548e-06
-4.00982e-12
2.77548e-06
-2.80545e-12
2.77548e-06
1.23332e-12
2.77548e-06
-1.20171e-12
2.77548e-06
8.43831e-13
2.77548e-06
-6.37907e-13
2.77548e-06
4.57221e-13
2.77548e-06
-3.38195e-13
2.77548e-06
2.6272e-13
2.77548e-06
-2.2796e-13
2.77548e-06
2.42776e-13
2.77548e-06
-2.8832e-13
2.77548e-06
4.96826e-13
2.77548e-06
-1.44148e-12
2.77547e-06
7.79435e-12
2.77548e-06
-2.1984e-11
-3.23667e-11
3.77315e-06
2.18592e-11
3.77316e-06
-6.2425e-11
3.77319e-06
-8.19375e-11
3.77319e-06
-5.82889e-12
3.77319e-06
-3.10466e-12
3.77319e-06
1.19378e-12
3.77319e-06
-1.19317e-12
3.77319e-06
8.25407e-13
3.77319e-06
-6.22354e-13
3.77319e-06
4.43402e-13
3.77319e-06
-3.27017e-13
3.77319e-06
2.53597e-13
3.77319e-06
-2.2041e-13
3.77319e-06
2.36657e-13
3.77319e-06
-2.83563e-13
3.77319e-06
5.20637e-13
3.77319e-06
-1.72885e-12
3.77319e-06
1.08715e-11
3.7732e-06
-3.14756e-11
-4.52541e-11
4.92387e-06
3.47539e-11
4.92387e-06
-6.7422e-11
4.92389e-06
-1.02133e-10
4.9239e-06
-7.63936e-12
4.9239e-06
-3.18128e-12
4.9239e-06
1.03809e-12
4.9239e-06
-1.07696e-12
4.9239e-06
7.33524e-13
4.9239e-06
-5.52052e-13
4.9239e-06
3.91247e-13
4.9239e-06
-2.88042e-13
4.9239e-06
2.23329e-13
4.9239e-06
-1.94971e-13
4.9239e-06
2.1155e-13
4.9239e-06
-2.57806e-13
4.9239e-06
5.11566e-13
4.9239e-06
-1.96839e-12
4.92389e-06
1.40858e-11
4.9239e-06
-4.15264e-11
-5.87114e-11
6.26033e-06
4.84639e-11
6.26033e-06
-6.74279e-11
6.26035e-06
-1.18544e-10
6.26035e-06
-9.28516e-12
6.26035e-06
-3.05188e-12
6.26035e-06
7.91567e-13
6.26035e-06
-8.75702e-13
6.26035e-06
5.84921e-13
6.26035e-06
-4.39955e-13
6.26035e-06
3.10256e-13
6.26035e-06
-2.28392e-13
6.26035e-06
1.77462e-13
6.26035e-06
-1.56356e-13
6.26035e-06
1.72261e-13
6.26035e-06
-2.16158e-13
6.26035e-06
4.7493e-13
6.26035e-06
-2.15539e-12
6.26035e-06
1.7301e-11
6.26036e-06
-5.14698e-11
-7.19467e-11
7.81372e-06
6.17827e-11
7.81371e-06
-6.24189e-11
7.81372e-06
-1.29671e-10
7.81373e-06
-1.06172e-11
7.81373e-06
-2.7383e-12
7.81373e-06
4.80321e-13
7.81373e-06
-6.11608e-13
7.81373e-06
3.95441e-13
7.81373e-06
-2.97973e-13
7.81373e-06
2.08921e-13
7.81373e-06
-1.54271e-13
7.81373e-06
1.20729e-13
7.81373e-06
-1.08526e-13
7.81373e-06
1.22874e-13
7.81373e-06
-1.62809e-13
7.81373e-06
4.15289e-13
7.81373e-06
-2.28287e-12
7.81372e-06
2.0374e-11
7.81373e-06
-6.05393e-11
-8.4056e-11
9.61268e-06
7.355e-11
9.61267e-06
-5.27524e-11
9.61268e-06
-1.34463e-10
9.61268e-06
-1.15082e-11
9.61268e-06
-2.26829e-12
9.61268e-06
1.30302e-13
9.61268e-06
-3.0637e-13
9.61268e-06
1.80068e-13
9.61268e-06
-1.37134e-13
9.61268e-06
9.49067e-14
9.61268e-06
-7.11689e-14
9.61268e-06
5.72471e-14
9.61268e-06
-5.48828e-14
9.61268e-06
6.69434e-14
9.61268e-06
-1.01347e-13
9.61268e-06
3.36772e-13
9.61268e-06
-2.34276e-12
9.61268e-06
2.31351e-11
9.61268e-06
-6.79125e-11
-9.40509e-11
1.16822e-05
8.27084e-11
1.16822e-05
-3.91969e-11
1.16822e-05
-1.32415e-10
1.16822e-05
-1.18663e-11
1.16822e-05
-1.67625e-12
1.16822e-05
-2.33217e-13
1.16822e-05
1.87902e-14
1.16822e-05
-4.69134e-14
1.16822e-05
3.2202e-14
1.16822e-05
-2.47132e-14
1.16822e-05
1.5927e-14
1.16822e-05
-9.29107e-15
1.16822e-05
1.54224e-15
1.16822e-05
7.68404e-15
1.16822e-05
-3.50246e-14
1.16822e-05
2.43397e-13
1.16822e-05
-2.3271e-12
1.16822e-05
2.53741e-11
1.16822e-05
-7.27805e-11
-1.00915e-10
1.40423e-05
8.83628e-11
1.40423e-05
-2.29529e-11
1.40423e-05
-1.2366e-10
1.40423e-05
-1.16459e-11
1.40423e-05
-1.00401e-12
1.40423e-05
-5.85895e-13
1.40423e-05
3.42961e-13
1.40423e-05
-2.71687e-13
1.40423e-05
2.00077e-13
1.40423e-05
-1.43214e-13
1.40423e-05
1.02311e-13
1.40423e-05
-7.54188e-14
1.40423e-05
5.79015e-14
1.40423e-05
-5.18487e-14
1.40423e-05
3.29944e-14
1.40423e-05
1.3943e-13
1.40423e-05
-2.22931e-12
1.40423e-05
2.68392e-11
1.40423e-05
-7.44439e-11
-1.03701e-10
1.67067e-05
8.98453e-11
1.67067e-05
-5.63468e-12
1.67067e-05
-1.09019e-10
1.67067e-05
-1.08563e-11
1.67067e-05
-3.0099e-13
1.67067e-05
-9.04405e-13
1.67067e-05
6.45329e-13
1.67067e-05
-4.80626e-13
1.67067e-05
3.56651e-13
1.67067e-05
-2.5396e-13
1.67067e-05
1.8333e-13
1.67067e-05
-1.377e-13
1.67067e-05
1.11352e-13
1.67067e-05
-1.08585e-13
1.67067e-05
9.94049e-14
1.67067e-05
2.97761e-14
1.67067e-05
-2.04579e-12
1.67067e-05
2.72543e-11
1.67067e-05
-7.24288e-11
-1.01668e-10
1.96814e-05
8.67876e-11
1.96813e-05
1.08141e-11
1.96813e-05
-8.99956e-11
1.96813e-05
-9.56566e-12
1.96813e-05
3.76187e-13
1.96813e-05
-1.16641e-12
1.96813e-05
9.04957e-13
1.96813e-05
-6.60009e-13
1.96813e-05
4.91914e-13
1.96813e-05
-3.50143e-13
1.96813e-05
2.54161e-13
1.96813e-05
-1.92533e-13
1.96813e-05
1.58876e-13
1.96813e-05
-1.59268e-13
1.96813e-05
1.60535e-13
1.96813e-05
-7.95742e-14
1.96813e-05
-1.77797e-12
1.96813e-05
2.6362e-11
1.96813e-05
-6.66086e-11
-9.44468e-11
2.29634e-05
7.91933e-11
2.29634e-05
2.42974e-11
2.29634e-05
-6.86659e-11
2.29634e-05
-7.89931e-12
2.29634e-05
9.65114e-13
2.29634e-05
-1.35055e-12
2.29634e-05
1.10061e-12
2.29634e-05
-7.95752e-13
2.29634e-05
5.95407e-13
2.29634e-05
-4.24521e-13
2.29634e-05
3.0958e-13
2.29634e-05
-2.35953e-13
2.29634e-05
1.97095e-13
2.29634e-05
-2.00271e-13
2.29634e-05
2.12112e-13
2.29634e-05
-1.81064e-13
2.29634e-05
-1.43506e-12
2.29634e-05
2.39939e-11
2.29634e-05
-5.73091e-11
-8.22202e-11
2.65404e-05
6.7502e-11
2.65404e-05
3.28539e-11
2.65403e-05
-4.74505e-11
2.65403e-05
-6.03118e-12
2.65403e-05
1.40014e-12
2.65403e-05
-1.43648e-12
2.65403e-05
1.21066e-12
2.65403e-05
-8.73196e-13
2.65403e-05
6.55968e-13
2.65403e-05
-4.69178e-13
2.65403e-05
3.43742e-13
2.65403e-05
-2.63427e-13
2.65403e-05
2.22081e-13
2.65403e-05
-2.27418e-13
2.65403e-05
2.49011e-13
2.65403e-05
-2.65091e-13
2.65403e-05
-1.03738e-12
2.65403e-05
2.01614e-11
2.65403e-05
-4.53679e-11
-6.58785e-11
3.03895e-05
5.26326e-11
3.03895e-05
3.50498e-11
3.03895e-05
-2.87505e-11
3.03895e-05
-4.16788e-12
3.03895e-05
1.61619e-12
3.03895e-05
-1.4052e-12
3.03895e-05
1.21321e-12
3.03895e-05
-8.76983e-13
3.03895e-05
6.61536e-13
3.03895e-05
-4.75298e-13
3.03895e-05
3.49959e-13
3.03895e-05
-2.69659e-13
3.03895e-05
2.2916e-13
3.03895e-05
-2.35785e-13
3.03895e-05
2.64968e-13
3.03895e-05
-3.19581e-13
3.03895e-05
-6.19988e-13
3.03895e-05
1.51523e-11
3.03895e-05
-3.21243e-11
-4.71084e-11
3.44782e-05
3.60004e-11
3.44782e-05
3.04397e-11
3.44782e-05
-1.44902e-11
3.44782e-05
-2.52807e-12
3.44782e-05
1.55378e-12
3.44782e-05
-1.23982e-12
3.44782e-05
1.08636e-12
3.44782e-05
-7.91102e-13
3.44782e-05
5.99035e-13
3.44782e-05
-4.32998e-13
3.44782e-05
3.20514e-13
3.44782e-05
-2.48391e-13
3.44782e-05
2.12706e-13
3.44782e-05
-2.19493e-13
3.44782e-05
2.52233e-13
3.44782e-05
-3.29696e-13
3.44782e-05
-2.35628e-13
3.44782e-05
9.60324e-12
3.44782e-05
-1.93197e-11
-2.83712e-11
3.87644e-05
1.95189e-11
3.87644e-05
1.99906e-11
3.87644e-05
-5.68017e-12
3.87644e-05
-1.32207e-12
3.87644e-05
1.16523e-12
3.87644e-05
-9.26963e-13
3.87644e-05
8.08878e-13
3.87644e-05
-5.99097e-13
3.87644e-05
4.54345e-13
3.87644e-05
-3.31195e-13
3.87644e-05
2.46481e-13
3.87644e-05
-1.92208e-13
3.87644e-05
1.65922e-13
3.87644e-05
-1.71469e-13
3.87644e-05
2.0113e-13
3.87644e-05
-2.77712e-13
3.87644e-05
4.41858e-14
3.87644e-05
4.50693e-12
3.87644e-05
-8.91782e-12
-1.27318e-11
4.31978e-05
6.06691e-12
4.31979e-05
7.26163e-12
4.31978e-05
-1.53998e-12
4.31978e-05
-5.16352e-13
4.31978e-05
4.96376e-13
4.31978e-05
-4.3724e-13
4.31978e-05
3.6931e-13
4.31978e-05
-2.81965e-13
4.31978e-05
2.13272e-13
4.31978e-05
-1.57227e-13
4.31978e-05
1.1759e-13
4.31978e-05
-9.23079e-14
4.31978e-05
8.03741e-14
4.31978e-05
-8.31167e-14
4.31978e-05
9.92835e-14
4.31978e-05
-1.42439e-13
4.31978e-05
1.14238e-13
4.31978e-05
1.04595e-12
4.31978e-05
-2.33241e-12
-2.93606e-12
4.77223e-05
4.77224e-05
4.77224e-05
4.77224e-05
4.77224e-05
4.77224e-05
4.77224e-05
4.77224e-05
4.77224e-05
4.77224e-05
4.77224e-05
4.77224e-05
4.77224e-05
4.77224e-05
4.77224e-05
4.77224e-05
4.77224e-05
4.77224e-05
4.77224e-05
)
;

boundaryField
{
    top
    {
        type            calculated;
        value           uniform 0;
    }
    bottom
    {
        type            calculated;
        value           uniform 0;
    }
    inlet
    {
        type            calculated;
        value           nonuniform List<scalar> 
20
(
-3.62343e-07
-1.10411e-06
-1.8971e-06
-2.77545e-06
-3.77317e-06
-4.92388e-06
-6.26035e-06
-7.81373e-06
-9.6127e-06
-1.16822e-05
-1.40423e-05
-1.67067e-05
-1.96814e-05
-2.29634e-05
-2.65404e-05
-3.03895e-05
-3.44782e-05
-3.87643e-05
-4.31978e-05
-4.77223e-05
)
;
    }
    outlet
    {
        type            calculated;
        value           nonuniform List<scalar> 
20
(
3.62362e-07
1.10415e-06
1.89715e-06
2.77549e-06
3.77321e-06
4.92392e-06
6.26037e-06
7.81374e-06
9.61269e-06
1.16822e-05
1.40423e-05
1.67067e-05
1.96813e-05
2.29634e-05
2.65403e-05
3.03895e-05
3.44782e-05
3.87643e-05
4.31978e-05
4.77223e-05
)
;
    }
    frontAndBack
    {
        type            empty;
        value           nonuniform 0();
    }
}


// ************************************************************************* //
