/*--------------------------------*- C++ -*----------------------------------*\
| =========                 |                                                 |
| \\      /  F ield         | OpenFOAM: The Open Source CFD Toolbox           |
|  \\    /   O peration     | Version:  4.1                                   |
|   \\  /    A nd           | Web:      www.OpenFOAM.org                      |
|    \\/     M anipulation  |                                                 |
\*---------------------------------------------------------------------------*/
FoamFile
{
    version     2.0;
    format      ascii;
    class       volVectorField;
    location    "0.1";
    object      U;
}
// * * * * * * * * * * * * * * * * * * * * * * * * * * * * * * * * * * * * * //

dimensions      [0 1 -1 0 0 0 0];

internalField   nonuniform List<vector> 
400
(
(0.00724688 -1.43763e-09 0)
(0.00724692 -4.71401e-09 0)
(0.00724713 -2.14031e-09 0)
(0.00724716 -8.15825e-11 0)
(0.00724714 -3.2201e-10 0)
(0.00724716 2.1272e-10 0)
(0.00724714 -1.94915e-10 0)
(0.00724716 1.45355e-10 0)
(0.00724715 -1.11184e-10 0)
(0.00724715 8.17753e-11 0)
(0.00724715 -6.14197e-11 0)
(0.00724715 4.83414e-11 0)
(0.00724715 -4.22467e-11 0)
(0.00724715 4.41121e-11 0)
(0.00724715 -5.27083e-11 0)
(0.00724715 8.15126e-11 0)
(0.00724715 -1.4646e-10 0)
(0.00724715 3.40379e-10 0)
(0.00724713 -9.39733e-10 0)
(0.00724723 -1.61842e-09 0)
(0.0220822 -1.34509e-09 0)
(0.0220822 -1.46989e-08 0)
(0.0220827 -9.82581e-09 0)
(0.0220828 -2.49663e-10 0)
(0.0220828 -1.01769e-09 0)
(0.0220828 6.75962e-10 0)
(0.0220828 -6.01457e-10 0)
(0.0220828 4.48632e-10 0)
(0.0220828 -3.39568e-10 0)
(0.0220828 2.4893e-10 0)
(0.0220828 -1.85934e-10 0)
(0.0220828 1.45813e-10 0)
(0.0220828 -1.27136e-10 0)
(0.0220828 1.32974e-10 0)
(0.0220828 -1.60007e-10 0)
(0.0220828 2.39779e-10 0)
(0.0220828 -5.09716e-10 0)
(0.0220828 1.6873e-09 0)
(0.0220828 -3.69084e-09 0)
(0.022083 -6.46577e-09 0)
(0.037942 1.90641e-11 0)
(0.0379418 -3.18745e-08 0)
(0.0379425 -2.72369e-08 0)
(0.0379427 -1.57152e-09 0)
(0.0379426 -1.92902e-09 0)
(0.0379427 1.02953e-09 0)
(0.0379426 -9.70533e-10 0)
(0.0379427 6.99798e-10 0)
(0.0379426 -5.3144e-10 0)
(0.0379427 3.85221e-10 0)
(0.0379426 -2.86705e-10 0)
(0.0379426 2.23826e-10 0)
(0.0379426 -1.94467e-10 0)
(0.0379426 2.04962e-10 0)
(0.0379426 -2.42955e-10 0)
(0.0379426 3.8808e-10 0)
(0.0379427 -9.15648e-10 0)
(0.0379426 3.66446e-09 0)
(0.0379426 -9.75328e-09 0)
(0.0379429 -1.52482e-08 0)
(0.0555089 6.22067e-09 0)
(0.0555086 -4.67937e-08 0)
(0.0555094 -4.84e-08 0)
(0.0555096 -3.09966e-09 0)
(0.0555094 -2.59428e-09 0)
(0.0555096 1.22263e-09 0)
(0.0555095 -1.17631e-09 0)
(0.0555095 8.33043e-10 0)
(0.0555095 -6.30598e-10 0)
(0.0555095 4.53568e-10 0)
(0.0555095 -3.36091e-10 0)
(0.0555095 2.61416e-10 0)
(0.0555095 -2.26778e-10 0)
(0.0555095 2.40559e-10 0)
(0.0555095 -2.8496e-10 0)
(0.0555095 4.75923e-10 0)
(0.0555095 -1.28682e-09 0)
(0.0555095 6.30101e-09 0)
(0.0555094 -1.74259e-08 0)
(0.0555098 -2.61222e-08 0)
(0.0754633 1.57799e-08 0)
(0.0754629 -5.87112e-08 0)
(0.0754636 -7.11184e-08 0)
(0.0754639 -4.90405e-09 0)
(0.0754637 -3.0154e-09 0)
(0.0754638 1.24743e-09 0)
(0.0754637 -1.22879e-09 0)
(0.0754638 8.56255e-10 0)
(0.0754637 -6.46377e-10 0)
(0.0754638 4.61774e-10 0)
(0.0754638 -3.40972e-10 0)
(0.0754638 2.64552e-10 0)
(0.0754638 -2.29607e-10 0)
(0.0754638 2.45422e-10 0)
(0.0754638 -2.92171e-10 0)
(0.0754638 5.18662e-10 0)
(0.0754638 -1.59681e-09 0)
(0.0754638 9.27447e-09 0)
(0.0754637 -2.65182e-08 0)
(0.0754641 -3.85746e-08 0)
(0.0984776 2.79647e-08 0)
(0.0984771 -6.61437e-08 0)
(0.0984777 -9.27822e-08 0)
(0.098478 -6.75783e-09 0)
(0.0984778 -3.19718e-09 0)
(0.098478 1.1423e-09 0)
(0.0984779 -1.15941e-09 0)
(0.0984779 7.9586e-10 0)
(0.0984779 -5.99348e-10 0)
(0.0984779 4.25748e-10 0)
(0.0984779 -3.13596e-10 0)
(0.0984779 2.43051e-10 0)
(0.0984779 -2.11564e-10 0)
(0.0984779 2.28228e-10 0)
(0.0984779 -2.75185e-10 0)
(0.0984779 5.24193e-10 0)
(0.0984779 -1.85988e-09 0)
(0.0984779 1.24532e-08 0)
(0.0984778 -3.64396e-08 0)
(0.0984783 -5.1925e-08 0)
(0.125207 4.15681e-08 0)
(0.125206 -6.86917e-08 0)
(0.125207 -1.11504e-07 0)
(0.125207 -8.52448e-09 0)
(0.125207 -3.1649e-09 0)
(0.125207 9.34374e-10 0)
(0.125207 -9.9466e-10 0)
(0.125207 6.71287e-10 0)
(0.125207 -5.04851e-10 0)
(0.125207 3.56799e-10 0)
(0.125207 -2.62528e-10 0)
(0.125207 2.03633e-10 0)
(0.125207 -1.78401e-10 0)
(0.125207 1.94858e-10 0)
(0.125207 -2.40266e-10 0)
(0.125207 5.00082e-10 0)
(0.125207 -2.07365e-09 0)
(0.125207 1.5699e-08 0)
(0.125207 -4.66159e-08 0)
(0.125207 -6.54788e-08 0)
(0.156275 5.53833e-08 0)
(0.156274 -6.61459e-08 0)
(0.156274 -1.25593e-07 0)
(0.156275 -1.00479e-08 0)
(0.156274 -2.93703e-09 0)
(0.156275 6.49094e-10 0)
(0.156274 -7.56535e-10 0)
(0.156275 4.98454e-10 0)
(0.156274 -3.74992e-10 0)
(0.156275 2.63658e-10 0)
(0.156275 -1.94214e-10 0)
(0.156275 1.51255e-10 0)
(0.156275 -1.34286e-10 0)
(0.156275 1.49588e-10 0)
(0.156275 -1.91836e-10 0)
(0.156274 4.50925e-10 0)
(0.156275 -2.23206e-09 0)
(0.156274 1.88791e-08 0)
(0.156274 -5.63219e-08 0)
(0.156275 -7.83855e-08 0)
(0.192254 6.82082e-08 0)
(0.192253 -5.86671e-08 0)
(0.192253 -1.33751e-07 0)
(0.192254 -1.11878e-08 0)
(0.192253 -2.53755e-09 0)
(0.192254 3.12093e-10 0)
(0.192254 -4.66549e-10 0)
(0.192254 2.92415e-10 0)
(0.192254 -2.20948e-10 0)
(0.192254 1.54173e-10 0)
(0.192254 -1.1432e-10 0)
(0.192254 9.01947e-11 0)
(0.192254 -8.27665e-11 0)
(0.192254 9.61024e-11 0)
(0.192254 -1.3361e-10 0)
(0.192254 3.80881e-10 0)
(0.192254 -2.32699e-09 0)
(0.192254 2.18413e-08 0)
(0.192254 -6.47496e-08 0)
(0.192254 -8.96882e-08 0)
(0.233645 7.8919e-08 0)
(0.233644 -4.68077e-08 0)
(0.233644 -1.35171e-07 0)
(0.233644 -1.18307e-08 0)
(0.233644 -1.99711e-09 0)
(0.233644 -5.09192e-11 0)
(0.233644 -1.46086e-10 0)
(0.233644 6.77378e-11 0)
(0.233644 -5.33347e-11 0)
(0.233644 3.56461e-11 0)
(0.233644 -2.80229e-11 0)
(0.233644 2.43019e-11 0)
(0.233644 -2.70093e-11 0)
(0.233644 3.77343e-11 0)
(0.233644 -6.89411e-11 0)
(0.233644 2.93909e-10 0)
(0.233644 -2.35021e-09 0)
(0.233644 2.43981e-08 0)
(0.233644 -7.10617e-08 0)
(0.233644 -9.8365e-08 0)
(0.280847 8.65237e-08 0)
(0.280847 -3.15512e-08 0)
(0.280846 -1.29649e-07 0)
(0.280846 -1.19053e-08 0)
(0.280846 -1.35375e-09 0)
(0.280846 -4.15042e-10 0)
(0.280846 1.83798e-10 0)
(0.280846 -1.61564e-10 0)
(0.280846 1.17735e-10 0)
(0.280846 -8.50731e-11 0)
(0.280846 5.98755e-11 0)
(0.280846 -4.28836e-11 0)
(0.280846 3.00839e-11 0)
(0.280846 -2.24174e-11 0)
(0.280846 -9.88165e-13 0)
(0.280846 1.94069e-10 0)
(0.280846 -2.29422e-09 0)
(0.280846 2.63167e-08 0)
(0.280846 -7.4477e-08 0)
(0.280846 -1.03405e-07 0)
(0.334134 9.02231e-08 0)
(0.334134 -1.43172e-08 0)
(0.334133 -1.17654e-07 0)
(0.334134 -1.13916e-08 0)
(0.334133 -6.5314e-10 0)
(0.334134 -7.56403e-10 0)
(0.334134 5.02275e-10 0)
(0.334134 -3.81822e-10 0)
(0.334134 2.82424e-10 0)
(0.334134 -2.01361e-10 0)
(0.334134 1.44747e-10 0)
(0.334134 -1.07955e-10 0)
(0.334134 8.57096e-11 0)
(0.334134 -8.13304e-11 0)
(0.334134 6.70682e-11 0)
(0.334134 8.5853e-11 0)
(0.334134 -2.15361e-09 0)
(0.334134 2.73261e-08 0)
(0.334134 -7.43784e-08 0)
(0.334133 -1.03925e-07 0)
(0.393627 8.94804e-08 0)
(0.393627 3.08231e-09 0)
(0.393626 -1.00362e-07 0)
(0.393626 -1.03278e-08 0)
(0.393626 5.14638e-11 0)
(0.393626 -1.05212e-09 0)
(0.393626 7.88482e-10 0)
(0.393626 -5.79404e-10 0)
(0.393626 4.30857e-10 0)
(0.393626 -3.06545e-10 0)
(0.393626 2.21899e-10 0)
(0.393626 -1.67434e-10 0)
(0.393626 1.36976e-10 0)
(0.393626 -1.35878e-10 0)
(0.393626 1.3179e-10 0)
(0.393626 -2.53872e-11 0)
(0.393626 -1.92682e-09 0)
(0.393626 2.71454e-08 0)
(0.393626 -7.04365e-08 0)
(0.393626 -9.93272e-08 0)
(0.459268 8.40972e-08 0)
(0.459269 1.85715e-08 0)
(0.459268 -7.9605e-08 0)
(0.459268 -8.81125e-09 0)
(0.459268 7.00287e-10 0)
(0.459268 -1.28034e-09 0)
(0.459268 1.02142e-09 0)
(0.459268 -7.40487e-10 0)
(0.459268 5.52883e-10 0)
(0.459268 -3.93673e-10 0)
(0.459268 2.86371e-10 0)
(0.459268 -2.17592e-10 0)
(0.459268 1.80733e-10 0)
(0.459268 -1.82669e-10 0)
(0.459268 1.89268e-10 0)
(0.459268 -1.32991e-10 0)
(0.459268 -1.61847e-09 0)
(0.459268 2.55416e-08 0)
(0.459268 -6.27299e-08 0)
(0.459267 -8.94753e-08 0)
(0.530807 7.42787e-08 0)
(0.530808 3.00329e-08 0)
(0.530807 -5.77086e-08 0)
(0.530807 -6.9953e-09 0)
(0.530807 1.2293e-09 0)
(0.530807 -1.42075e-09 0)
(0.530807 1.18009e-09 0)
(0.530807 -8.51075e-10 0)
(0.530807 6.37992e-10 0)
(0.530807 -4.55402e-10 0)
(0.530807 3.32813e-10 0)
(0.530807 -2.54331e-10 0)
(0.530807 2.13463e-10 0)
(0.530807 -2.17933e-10 0)
(0.530807 2.34978e-10 0)
(0.530807 -2.28627e-10 0)
(0.530807 -1.24252e-09 0)
(0.530807 2.24104e-08 0)
(0.530807 -5.18328e-08 0)
(0.530806 -7.48714e-08 0)
(0.607791 6.0691e-08 0)
(0.607791 3.56608e-08 0)
(0.607791 -3.71856e-08 0)
(0.607791 -5.07502e-09 0)
(0.60779 1.57277e-09 0)
(0.607791 -1.45404e-09 0)
(0.60779 1.24318e-09 0)
(0.607791 -8.96542e-10 0)
(0.607791 6.74904e-10 0)
(0.607791 -4.83632e-10 0)
(0.607791 3.55176e-10 0)
(0.607791 -2.72917e-10 0)
(0.607791 2.31032e-10 0)
(0.607791 -2.37296e-10 0)
(0.607791 2.6345e-10 0)
(0.607791 -3.01731e-10 0)
(0.607791 -8.24682e-10 0)
(0.60779 1.78742e-08 0)
(0.607791 -3.88473e-08 0)
(0.60779 -5.67876e-08 0)
(0.689564 4.43854e-08 0)
(0.689565 3.42249e-08 0)
(0.689564 -2.03612e-08 0)
(0.689564 -3.27348e-09 0)
(0.689564 1.65815e-09 0)
(0.689564 -1.35945e-09 0)
(0.689564 1.18481e-09 0)
(0.689564 -8.58909e-10 0)
(0.689564 6.4921e-10 0)
(0.689564 -4.67776e-10 0)
(0.689564 3.45354e-10 0)
(0.689564 -2.66895e-10 0)
(0.689564 2.27741e-10 0)
(0.689564 -2.34733e-10 0)
(0.689564 2.67084e-10 0)
(0.689564 -3.38131e-10 0)
(0.689564 -4.10198e-10 0)
(0.689564 1.23709e-08 0)
(0.689565 -2.53319e-08 0)
(0.689564 -3.72951e-08 0)
(0.775287 2.74547e-08 0)
(0.775288 2.64302e-08 0)
(0.775287 -8.58873e-09 0)
(0.775287 -1.77164e-09 0)
(0.775287 1.42704e-09 0)
(0.775287 -1.10396e-09 0)
(0.775287 9.74767e-10 0)
(0.775287 -7.13236e-10 0)
(0.775287 5.41364e-10 0)
(0.775287 -3.92748e-10 0)
(0.775287 2.91629e-10 0)
(0.775287 -2.26756e-10 0)
(0.775287 1.94976e-10 0)
(0.775287 -2.01593e-10 0)
(0.775287 2.34085e-10 0)
(0.775287 -3.16018e-10 0)
(0.775287 -5.71821e-11 0)
(0.775287 6.79535e-09 0)
(0.775287 -1.33429e-08 0)
(0.775287 -1.94472e-08 0)
(0.863957 1.14477e-08 0)
(0.863957 1.31242e-08 0)
(0.863957 -2.80565e-09 0)
(0.863957 -8.49774e-10 0)
(0.863957 8.48404e-10 0)
(0.863957 -7.03946e-10 0)
(0.863957 6.02306e-10 0)
(0.863957 -4.53499e-10 0)
(0.863957 3.43224e-10 0)
(0.863957 -2.51649e-10 0)
(0.863957 1.8773e-10 0)
(0.863957 -1.46876e-10 0)
(0.863957 1.27406e-10 0)
(0.863957 -1.31469e-10 0)
(0.863957 1.56025e-10 0)
(0.863957 -2.22579e-10 0)
(0.863957 1.06493e-10 0)
(0.863957 2.37479e-09 0)
(0.863957 -4.71137e-09 0)
(0.863957 -6.45921e-09 0)
(0.954447 3.20127e-09 0)
(0.954447 4.50666e-09 0)
(0.954447 -7.52484e-12 0)
(0.954447 -1.3854e-10 0)
(0.954447 2.86877e-10 0)
(0.954447 -2.17269e-10 0)
(0.954447 1.95393e-10 0)
(0.954447 -1.46096e-10 0)
(0.954447 1.11796e-10 0)
(0.954447 -8.22416e-11 0)
(0.954447 6.17221e-11 0)
(0.954447 -4.85298e-11 0)
(0.954447 4.22433e-11 0)
(0.954447 -4.39529e-11 0)
(0.954447 5.25259e-11 0)
(0.954447 -7.45995e-11 0)
(0.954447 8.29353e-11 0)
(0.954447 3.42916e-10 0)
(0.954447 -8.03718e-10 0)
(0.954447 -8.84286e-10 0)
)
;

boundaryField
{
    top
    {
        type            fixedValue;
        value           uniform (1 0 0);
    }
    bottom
    {
        type            fixedValue;
        value           uniform (0 0 0);
    }
    inlet
    {
        type            zeroGradient;
    }
    outlet
    {
        type            zeroGradient;
    }
    frontAndBack
    {
        type            empty;
    }
}


// ************************************************************************* //
