/*--------------------------------*- C++ -*----------------------------------*\
| =========                 |                                                 |
| \\      /  F ield         | OpenFOAM: The Open Source CFD Toolbox           |
|  \\    /   O peration     | Version:  4.1                                   |
|   \\  /    A nd           | Web:      www.OpenFOAM.org                      |
|    \\/     M anipulation  |                                                 |
\*---------------------------------------------------------------------------*/
FoamFile
{
    version     2.0;
    format      ascii;
    class       volScalarField;
    location    "3.4";
    object      p;
}
// * * * * * * * * * * * * * * * * * * * * * * * * * * * * * * * * * * * * * //

dimensions      [0 2 -2 0 0 0 0];

internalField   nonuniform List<scalar> 
400
(
6.94932e-11
7.75886e-11
6.6193e-11
7.08086e-11
6.24175e-11
6.48475e-11
5.85017e-11
5.91819e-11
5.43725e-11
5.36916e-11
5.01044e-11
4.83061e-11
4.57703e-11
4.29766e-11
4.14043e-11
3.76351e-11
3.70653e-11
3.23393e-11
3.31004e-11
3.1198e-11
6.92425e-11
7.73314e-11
6.61736e-11
7.08035e-11
6.24178e-11
6.48466e-11
5.85022e-11
5.91815e-11
5.43728e-11
5.36914e-11
5.01046e-11
4.83061e-11
4.57702e-11
4.29767e-11
4.1404e-11
3.76352e-11
3.70624e-11
3.23412e-11
3.29289e-11
3.10166e-11
6.90994e-11
7.71477e-11
6.61499e-11
7.0803e-11
6.24147e-11
6.48487e-11
5.85005e-11
5.91829e-11
5.43718e-11
5.36921e-11
5.01041e-11
4.83064e-11
4.57702e-11
4.29764e-11
4.14044e-11
3.76343e-11
3.70612e-11
3.23393e-11
3.27932e-11
3.0891e-11
6.90544e-11
7.70617e-11
6.61274e-11
7.08037e-11
6.24112e-11
6.4851e-11
5.84985e-11
5.91844e-11
5.43706e-11
5.36929e-11
5.01036e-11
4.83066e-11
4.57703e-11
4.29761e-11
4.1405e-11
3.76333e-11
3.70607e-11
3.23346e-11
3.27153e-11
3.08269e-11
6.90685e-11
7.7044e-11
6.61062e-11
7.08041e-11
6.24083e-11
6.48529e-11
5.8497e-11
5.91857e-11
5.43696e-11
5.36936e-11
5.01033e-11
4.83068e-11
4.57704e-11
4.29758e-11
4.14055e-11
3.76325e-11
3.70604e-11
3.23285e-11
3.26828e-11
3.08047e-11
6.91214e-11
7.70716e-11
6.60851e-11
7.08042e-11
6.2406e-11
6.48544e-11
5.84958e-11
5.91867e-11
5.43688e-11
5.36941e-11
5.0103e-11
4.83069e-11
4.57704e-11
4.29756e-11
4.14059e-11
3.76319e-11
3.70602e-11
3.23217e-11
3.26863e-11
3.08152e-11
6.92016e-11
7.71311e-11
6.60636e-11
7.08041e-11
6.24041e-11
6.48555e-11
5.84948e-11
5.91875e-11
5.43682e-11
5.36945e-11
5.01027e-11
4.8307e-11
4.57705e-11
4.29755e-11
4.14063e-11
3.76314e-11
3.70603e-11
3.23147e-11
3.272e-11
3.08527e-11
6.92961e-11
7.72084e-11
6.60414e-11
7.08037e-11
6.24025e-11
6.48564e-11
5.8494e-11
5.91881e-11
5.43677e-11
5.36948e-11
5.01026e-11
4.8307e-11
4.57705e-11
4.29754e-11
4.14066e-11
3.7631e-11
3.70605e-11
3.23081e-11
3.27767e-11
3.09099e-11
6.93915e-11
7.72898e-11
6.60185e-11
7.08027e-11
6.24012e-11
6.4857e-11
5.84936e-11
5.91885e-11
5.43674e-11
5.3695e-11
5.01025e-11
4.83071e-11
4.57705e-11
4.29753e-11
4.14069e-11
3.76309e-11
3.70606e-11
3.23024e-11
3.28477e-11
3.09778e-11
6.94757e-11
7.73625e-11
6.5995e-11
7.0801e-11
6.24004e-11
6.48573e-11
5.84934e-11
5.91887e-11
5.43673e-11
5.3695e-11
5.01024e-11
4.83071e-11
4.57706e-11
4.29753e-11
4.14071e-11
3.76309e-11
3.70607e-11
3.22979e-11
3.29236e-11
3.10473e-11
6.95382e-11
7.74157e-11
6.59713e-11
7.07986e-11
6.23999e-11
6.48572e-11
5.84935e-11
5.91887e-11
5.43672e-11
5.3695e-11
5.01024e-11
4.83071e-11
4.57705e-11
4.29753e-11
4.14072e-11
3.7631e-11
3.70605e-11
3.2295e-11
3.29953e-11
3.11096e-11
6.95711e-11
7.74414e-11
6.59477e-11
7.07954e-11
6.23997e-11
6.48567e-11
5.84938e-11
5.91885e-11
5.43674e-11
5.36949e-11
5.01024e-11
4.83071e-11
4.57705e-11
4.29753e-11
4.14072e-11
3.76313e-11
3.706e-11
3.22936e-11
3.30544e-11
3.11565e-11
6.95693e-11
7.74346e-11
6.5925e-11
7.07914e-11
6.24e-11
6.4856e-11
5.84943e-11
5.91881e-11
5.43677e-11
5.36946e-11
5.01025e-11
4.83071e-11
4.57705e-11
4.29754e-11
4.14072e-11
3.76318e-11
3.70592e-11
3.22936e-11
3.30937e-11
3.11815e-11
6.95313e-11
7.73944e-11
6.59036e-11
7.07868e-11
6.24006e-11
6.48549e-11
5.84951e-11
5.91875e-11
5.43682e-11
5.36943e-11
5.01027e-11
4.8307e-11
4.57705e-11
4.29756e-11
4.1407e-11
3.76324e-11
3.70579e-11
3.2295e-11
3.31081e-11
3.11801e-11
6.94592e-11
7.73232e-11
6.58844e-11
7.07816e-11
6.24016e-11
6.48536e-11
5.8496e-11
5.91867e-11
5.43688e-11
5.36939e-11
5.0103e-11
4.83069e-11
4.57704e-11
4.29757e-11
4.14067e-11
3.7633e-11
3.70563e-11
3.22973e-11
3.30947e-11
3.11501e-11
6.93596e-11
7.72286e-11
6.58678e-11
7.07758e-11
6.2403e-11
6.48519e-11
5.84972e-11
5.91857e-11
5.43695e-11
5.36933e-11
5.01033e-11
4.83067e-11
4.57704e-11
4.29759e-11
4.14064e-11
3.76337e-11
3.70543e-11
3.23004e-11
3.30545e-11
3.10924e-11
6.9241e-11
7.71213e-11
6.58547e-11
7.07696e-11
6.24049e-11
6.48499e-11
5.84987e-11
5.91845e-11
5.43705e-11
5.36927e-11
5.01038e-11
4.83066e-11
4.57703e-11
4.29762e-11
4.14059e-11
3.76344e-11
3.70519e-11
3.23037e-11
3.29906e-11
3.10099e-11
6.91209e-11
7.70208e-11
6.58456e-11
7.07628e-11
6.24075e-11
6.48473e-11
5.85006e-11
5.9183e-11
5.43716e-11
5.36918e-11
5.01043e-11
4.83064e-11
4.57702e-11
4.29766e-11
4.14052e-11
3.76352e-11
3.70491e-11
3.23072e-11
3.29104e-11
3.09093e-11
6.90282e-11
7.69461e-11
6.58391e-11
7.07568e-11
6.24096e-11
6.4845e-11
5.85023e-11
5.91817e-11
5.43726e-11
5.36911e-11
5.01047e-11
4.83062e-11
4.57701e-11
4.29768e-11
4.14047e-11
3.76358e-11
3.70462e-11
3.23103e-11
3.28194e-11
3.08009e-11
6.90112e-11
7.69131e-11
6.58303e-11
7.07555e-11
6.24082e-11
6.48457e-11
5.85017e-11
5.91822e-11
5.43723e-11
5.36913e-11
5.01046e-11
4.83063e-11
4.57702e-11
4.29766e-11
4.14048e-11
3.76353e-11
3.70445e-11
3.23114e-11
3.2734e-11
3.07173e-11
)
;

boundaryField
{
    top
    {
        type            zeroGradient;
    }
    bottom
    {
        type            zeroGradient;
    }
    inlet
    {
        type            fixedValue;
        value           uniform 0;
    }
    outlet
    {
        type            fixedValue;
        value           uniform 0;
    }
    frontAndBack
    {
        type            empty;
    }
}


// ************************************************************************* //
