/*--------------------------------*- C++ -*----------------------------------*\
| =========                 |                                                 |
| \\      /  F ield         | OpenFOAM: The Open Source CFD Toolbox           |
|  \\    /   O peration     | Version:  4.1                                   |
|   \\  /    A nd           | Web:      www.OpenFOAM.org                      |
|    \\/     M anipulation  |                                                 |
\*---------------------------------------------------------------------------*/
FoamFile
{
    version     2.0;
    format      ascii;
    class       surfaceScalarField;
    location    "3.4";
    object      phi;
}
// * * * * * * * * * * * * * * * * * * * * * * * * * * * * * * * * * * * * * //

dimensions      [0 3 -1 0 0 0 0];

internalField   nonuniform List<scalar> 
760
(
1.25e-06
-1.08008e-16
1.25e-06
-7.42156e-17
1.25e-06
9.31809e-19
1.25e-06
-5.25822e-18
1.25e-06
3.50849e-18
1.25e-06
-2.97029e-18
1.25e-06
2.35008e-18
1.25e-06
-1.83562e-18
1.25e-06
1.37519e-18
1.25e-06
-9.68923e-19
1.25e-06
5.97302e-19
1.25e-06
-2.32963e-19
1.25e-06
-1.01049e-19
1.25e-06
4.1651e-19
1.25e-06
-7.6738e-19
1.25e-06
1.04084e-18
1.25e-06
-1.96819e-18
1.25e-06
2.7715e-18
1.25e-06
-4.44698e-17
-6.55204e-17
3.75e-06
-3.26469e-16
3.75e-06
-2.59674e-16
3.75e-06
-5.37374e-18
3.75e-06
-1.27903e-17
3.75e-06
7.35508e-18
3.75e-06
-6.44256e-18
3.75e-06
5.05126e-18
3.75e-06
-3.94461e-18
3.75e-06
2.94595e-18
3.75e-06
-2.07725e-18
3.75e-06
1.28443e-18
3.75e-06
-4.80818e-19
3.75e-06
-2.37853e-19
3.75e-06
9.04777e-19
3.75e-06
-1.69908e-18
3.75e-06
2.18524e-18
3.75e-06
-5.16727e-18
3.75e-06
7.30817e-18
3.75e-06
-1.63771e-16
-2.11569e-16
6.25e-06
-5.90652e-16
6.25e-06
-5.11975e-16
6.25e-06
-1.99813e-17
6.25e-06
-1.96117e-17
6.25e-06
9.4644e-18
6.25e-06
-8.67357e-18
6.25e-06
6.72099e-18
6.25e-06
-5.24811e-18
6.25e-06
3.90347e-18
6.25e-06
-2.75792e-18
6.25e-06
1.70904e-18
6.25e-06
-6.05334e-19
6.25e-06
-3.49342e-19
6.25e-06
1.21731e-18
6.25e-06
-2.34616e-18
6.25e-06
2.8244e-18
6.25e-06
-8.51865e-18
6.25e-06
1.22465e-17
6.25e-06
-3.36318e-16
-4.04527e-16
8.75e-06
-8.607e-16
8.75e-06
-7.87581e-16
8.75e-06
-4.01385e-17
8.75e-06
-2.54335e-17
8.75e-06
1.00541e-17
8.75e-06
-9.78011e-18
8.75e-06
7.46781e-18
8.75e-06
-5.83153e-18
8.75e-06
4.31128e-18
8.75e-06
-3.05503e-18
8.75e-06
1.90125e-18
8.75e-06
-6.27359e-19
8.75e-06
-4.32624e-19
8.75e-06
1.3725e-18
8.75e-06
-2.72256e-18
8.75e-06
3.02061e-18
8.75e-06
-1.18008e-17
8.75e-06
1.72529e-17
8.75e-06
-5.36655e-16
-6.18995e-16
1.125e-05
-1.10226e-15
1.125e-05
-1.04815e-15
1.125e-05
-6.28934e-17
1.125e-05
-2.995e-17
1.125e-05
9.35899e-18
1.125e-05
-9.88865e-18
1.125e-05
7.41193e-18
1.125e-05
-5.77799e-18
1.125e-05
4.23761e-18
1.125e-05
-3.02746e-18
1.125e-05
1.89455e-18
1.125e-05
-5.66978e-19
1.125e-05
-4.79917e-19
1.125e-05
1.38093e-18
1.125e-05
-2.84442e-18
1.125e-05
2.8302e-18
1.125e-05
-1.47698e-17
1.125e-05
2.20045e-17
1.125e-05
-7.40335e-16
-8.30666e-16
1.375e-05
-1.28899e-15
1.375e-05
-1.26324e-15
1.375e-05
-8.53415e-17
1.375e-05
-3.28964e-17
1.375e-05
7.63692e-18
1.375e-05
-9.13454e-18
1.375e-05
6.66853e-18
1.375e-05
-5.19e-18
1.375e-05
3.76575e-18
1.375e-05
-2.72044e-18
1.375e-05
1.71612e-18
1.375e-05
-4.41565e-19
1.375e-05
-4.88423e-19
1.375e-05
1.26551e-18
1.375e-05
-2.74175e-18
1.375e-05
2.33516e-18
1.375e-05
-1.72007e-17
1.375e-05
2.6163e-17
1.375e-05
-9.25282e-16
-1.01768e-15
1.625e-05
-1.40275e-15
1.625e-05
-1.41074e-15
1.625e-05
-1.04879e-16
1.625e-05
-3.40617e-17
1.625e-05
5.14714e-18
1.625e-05
-7.66856e-18
1.625e-05
5.37853e-18
1.625e-05
-4.17163e-18
1.625e-05
2.96972e-18
1.625e-05
-2.18557e-18
1.625e-05
1.40544e-18
1.625e-05
-2.74891e-19
1.625e-05
-4.61744e-19
1.625e-05
1.04385e-18
1.625e-05
-2.44191e-18
1.625e-05
1.59942e-18
1.625e-05
-1.88959e-17
1.625e-05
2.93855e-17
1.625e-05
-1.07329e-15
-1.16216e-15
1.875e-05
-1.43444e-15
1.875e-05
-1.47794e-15
1.875e-05
-1.19449e-16
1.875e-05
-3.33554e-17
1.875e-05
2.15923e-18
1.875e-05
-5.65367e-18
1.875e-05
3.67484e-18
1.875e-05
-2.82907e-18
1.875e-05
1.93522e-18
1.875e-05
-1.48641e-18
1.875e-05
9.97114e-19
1.875e-05
-8.54021e-20
1.875e-05
-4.01942e-19
1.875e-05
7.42672e-19
1.875e-05
-1.97942e-18
1.875e-05
6.89982e-19
1.875e-05
-1.97141e-17
1.875e-05
3.13649e-17
1.875e-05
-1.17104e-15
-1.25123e-15
2.125e-05
-1.38371e-15
2.125e-05
-1.46134e-15
2.125e-05
-1.27662e-16
2.125e-05
-3.08171e-17
2.125e-05
-1.09117e-18
2.125e-05
-3.24751e-18
2.125e-05
1.70235e-18
2.125e-05
-1.28735e-18
2.125e-05
7.45071e-19
2.125e-05
-6.72164e-19
2.125e-05
5.25618e-19
2.125e-05
1.12506e-19
2.125e-05
-3.17383e-19
2.125e-05
3.88165e-19
2.125e-05
-1.38881e-18
2.125e-05
-3.23745e-19
2.125e-05
-1.95837e-17
2.125e-05
3.18283e-17
2.125e-05
-1.21075e-15
-1.27776e-15
2.375e-05
-1.25839e-15
2.375e-05
-1.36635e-15
2.375e-05
-1.2894e-16
2.375e-05
-2.66356e-17
2.375e-05
-4.35848e-18
2.375e-05
-6.27559e-19
2.375e-05
-4.0084e-19
2.375e-05
3.53933e-19
2.375e-05
-4.96367e-19
2.375e-05
1.7437e-19
2.375e-05
1.29933e-20
2.375e-05
3.15034e-19
2.375e-05
-2.0783e-19
2.375e-05
2.92065e-21
2.375e-05
-7.31351e-19
2.375e-05
-1.34649e-18
2.375e-05
-1.85096e-17
2.375e-05
3.06464e-17
2.375e-05
-1.19045e-15
-1.24064e-15
2.625e-05
-1.07341e-15
2.625e-05
-1.20602e-15
2.625e-05
-1.2354e-16
2.625e-05
-2.11466e-17
2.625e-05
-7.40527e-18
2.625e-05
2.02649e-18
2.625e-05
-2.47307e-18
2.625e-05
1.97534e-18
2.625e-05
-1.72613e-18
2.625e-05
1.01893e-18
2.625e-05
-4.94744e-19
2.625e-05
4.99621e-19
2.625e-05
-9.85412e-20
2.625e-05
-3.92558e-19
2.625e-05
-2.53343e-20
2.625e-05
-2.3222e-18
2.625e-05
-1.65794e-17
2.625e-05
2.7826e-17
2.625e-05
-1.11382e-15
-1.14466e-15
2.875e-05
-8.48991e-16
2.875e-05
-9.99467e-16
2.875e-05
-1.12438e-16
2.875e-05
-1.48037e-17
2.875e-05
-1.00457e-17
2.875e-05
4.51713e-18
2.875e-05
-4.37511e-18
2.875e-05
3.47605e-18
2.875e-05
-2.85932e-18
2.875e-05
1.79613e-18
2.875e-05
-9.65957e-19
2.875e-05
6.66142e-19
2.875e-05
5.63261e-21
2.875e-05
-7.61625e-19
2.875e-05
6.62874e-19
2.875e-05
-3.17232e-18
2.875e-05
-1.39356e-17
2.875e-05
2.35994e-17
2.875e-05
-9.89641e-16
-1.00001e-15
3.125e-05
-6.08914e-16
3.125e-05
-7.69769e-16
3.125e-05
-9.71463e-17
3.125e-05
-8.17949e-18
3.125e-05
-1.2095e-17
3.125e-05
6.66768e-18
3.125e-05
-5.97962e-18
3.125e-05
4.74891e-18
3.125e-05
-3.78961e-18
3.125e-05
2.43118e-18
3.125e-05
-1.37895e-18
3.125e-05
8.02941e-19
3.125e-05
9.91256e-20
3.125e-05
-1.07628e-18
3.125e-05
1.28952e-18
3.125e-05
-3.83688e-18
3.125e-05
-1.08326e-17
3.125e-05
1.83502e-17
3.125e-05
-8.30813e-16
-8.21214e-16
3.375e-05
-3.77749e-16
3.375e-05
-5.41131e-16
3.375e-05
-7.95427e-17
3.375e-05
-1.88869e-18
3.375e-05
-1.33838e-17
3.375e-05
8.30738e-18
3.375e-05
-7.16003e-18
3.375e-05
5.66945e-18
3.375e-05
-4.45474e-18
3.375e-05
2.91535e-18
3.375e-05
-1.69088e-18
3.375e-05
8.82028e-19
3.375e-05
1.74935e-19
3.375e-05
-1.31158e-18
3.375e-05
1.7875e-18
3.375e-05
-4.23936e-18
3.375e-05
-7.53698e-18
3.375e-05
1.26454e-17
3.375e-05
-6.53001e-16
-6.25763e-16
3.625e-05
-1.78817e-16
3.625e-05
-3.36584e-16
3.625e-05
-6.14734e-17
3.625e-05
3.42037e-18
3.625e-05
-1.377e-17
3.625e-05
9.2558e-18
3.625e-05
-7.77856e-18
3.625e-05
6.14041e-18
3.625e-05
-4.77795e-18
3.625e-05
3.17309e-18
3.625e-05
-1.87456e-18
3.625e-05
9.12968e-19
3.625e-05
2.29895e-19
3.625e-05
-1.4356e-18
3.625e-05
2.11594e-18
3.625e-05
-4.34895e-18
3.625e-05
-4.34946e-18
3.625e-05
7.15428e-18
3.625e-05
-4.73348e-16
-4.32678e-16
3.875e-05
-3.05001e-17
3.875e-05
-1.74072e-16
3.875e-05
-4.45177e-17
3.875e-05
7.13473e-18
3.875e-05
-1.3111e-17
3.875e-05
9.35209e-18
3.875e-05
-7.73201e-18
3.875e-05
6.07963e-18
3.875e-05
-4.69268e-18
3.875e-05
3.16074e-18
3.875e-05
-1.87942e-18
3.875e-05
8.66827e-19
3.875e-05
2.47182e-19
3.875e-05
-1.4333e-18
3.875e-05
2.2241e-18
3.875e-05
-4.1165e-18
3.875e-05
-1.618e-18
3.875e-05
2.5455e-18
3.875e-05
-3.081e-16
-2.60117e-16
4.125e-05
5.49376e-17
4.125e-05
-6.50155e-17
4.125e-05
-2.96834e-17
4.125e-05
8.72872e-18
4.125e-05
-1.12939e-17
4.125e-05
8.43118e-18
4.125e-05
-6.88696e-18
4.125e-05
5.38367e-18
4.125e-05
-4.14603e-18
4.125e-05
2.83373e-18
4.125e-05
-1.69351e-18
4.125e-05
7.52975e-19
4.125e-05
2.40142e-19
4.125e-05
-1.27366e-18
4.125e-05
2.05208e-18
4.125e-05
-3.51974e-18
4.125e-05
3.59196e-19
4.125e-05
-6.08818e-19
4.125e-05
-1.71709e-16
-1.2418e-16
4.375e-05
7.65176e-17
4.375e-05
-9.04095e-18
4.375e-05
-1.7237e-17
4.375e-05
7.77427e-18
4.375e-05
-8.2118e-18
4.375e-05
6.34488e-18
4.375e-05
-5.12419e-18
4.375e-05
3.99718e-18
4.375e-05
-3.07119e-18
4.375e-05
2.11836e-18
4.375e-05
-1.26562e-18
4.375e-05
5.45538e-19
4.375e-05
1.83808e-19
4.375e-05
-9.24717e-19
4.375e-05
1.55814e-18
4.375e-05
-2.53057e-18
4.375e-05
1.29182e-18
4.375e-05
-1.91395e-18
4.375e-05
-7.33056e-17
-3.53599e-17
4.625e-05
4.29809e-17
4.625e-05
4.50714e-18
4.625e-05
-6.61304e-18
4.625e-05
3.99918e-18
4.625e-05
-3.72307e-18
4.625e-05
2.94414e-18
4.625e-05
-2.36395e-18
4.625e-05
1.8493e-18
4.625e-05
-1.41307e-18
4.625e-05
9.81208e-19
4.625e-05
-5.95313e-19
4.625e-05
2.57558e-19
4.625e-05
7.75335e-20
4.625e-05
-4.22626e-19
4.625e-05
7.37921e-19
4.625e-05
-1.13546e-18
4.625e-05
9.50677e-19
4.625e-05
-1.3317e-18
4.625e-05
-1.71668e-17
1.1897e-18
4.875e-05
4.875e-05
4.875e-05
4.875e-05
4.875e-05
4.875e-05
4.875e-05
4.875e-05
4.875e-05
4.875e-05
4.875e-05
4.875e-05
4.875e-05
4.875e-05
4.875e-05
4.875e-05
4.875e-05
4.875e-05
4.875e-05
)
;

boundaryField
{
    top
    {
        type            calculated;
        value           uniform 0;
    }
    bottom
    {
        type            calculated;
        value           uniform 0;
    }
    inlet
    {
        type            calculated;
        value           nonuniform List<scalar> 
20
(
-1.25e-06
-3.75e-06
-6.25e-06
-8.75e-06
-1.125e-05
-1.375e-05
-1.625e-05
-1.875e-05
-2.125e-05
-2.375e-05
-2.625e-05
-2.875e-05
-3.125e-05
-3.375e-05
-3.625e-05
-3.875e-05
-4.125e-05
-4.375e-05
-4.625e-05
-4.875e-05
)
;
    }
    outlet
    {
        type            calculated;
        value           nonuniform List<scalar> 
20
(
1.25e-06
3.75e-06
6.25e-06
8.75e-06
1.125e-05
1.375e-05
1.625e-05
1.875e-05
2.125e-05
2.375e-05
2.625e-05
2.875e-05
3.125e-05
3.375e-05
3.625e-05
3.875e-05
4.125e-05
4.375e-05
4.625e-05
4.875e-05
)
;
    }
    frontAndBack
    {
        type            empty;
        value           nonuniform 0();
    }
}


// ************************************************************************* //
