/*--------------------------------*- C++ -*----------------------------------*\
| =========                 |                                                 |
| \\      /  F ield         | OpenFOAM: The Open Source CFD Toolbox           |
|  \\    /   O peration     | Version:  4.1                                   |
|   \\  /    A nd           | Web:      www.OpenFOAM.org                      |
|    \\/     M anipulation  |                                                 |
\*---------------------------------------------------------------------------*/
FoamFile
{
    version     2.0;
    format      ascii;
    class       volVectorField;
    location    "3.4";
    object      U;
}
// * * * * * * * * * * * * * * * * * * * * * * * * * * * * * * * * * * * * * //

dimensions      [0 1 -1 0 0 0 0];

internalField   nonuniform List<vector> 
400
(
(0.025 -4.81074e-14 0)
(0.025 -2.99919e-14 0)
(0.025 1.10895e-15 0)
(0.025 -2.62706e-15 0)
(0.025 1.84766e-15 0)
(0.025 -1.54748e-15 0)
(0.025 1.22834e-15 0)
(0.025 -9.59295e-16 0)
(0.025 7.1961e-16 0)
(0.025 -5.06945e-16 0)
(0.025 3.12142e-16 0)
(0.025 -1.23366e-16 0)
(0.025 -5.07965e-17 0)
(0.025 2.16783e-16 0)
(0.025 -3.96562e-16 0)
(0.025 5.4641e-16 0)
(0.025 -9.52386e-16 0)
(0.025 1.22872e-15 0)
(0.025 -1.68995e-14 0)
(0.025 -2.75448e-14 0)
(0.075 -2.02499e-13 0)
(0.075 -1.49432e-13 0)
(0.075 -3.85256e-16 0)
(0.075 -8.89018e-15 0)
(0.075 5.62183e-15 0)
(0.075 -4.8157e-15 0)
(0.075 3.79758e-15 0)
(0.075 -2.96616e-15 0)
(0.075 2.21972e-15 0)
(0.075 -1.56372e-15 0)
(0.075 9.65252e-16 0)
(0.075 -3.70959e-16 0)
(0.075 -1.69506e-16 0)
(0.075 6.75917e-16 0)
(0.075 -1.25436e-15 0)
(0.075 1.66802e-15 0)
(0.075 -3.43065e-15 0)
(0.075 4.93274e-15 0)
(0.075 -9.11461e-14 0)
(0.075 -1.25891e-13 0)
(0.125 -4.49245e-13 0)
(0.125 -3.72961e-13 0)
(0.125 -1.10595e-14 0)
(0.125 -1.62541e-14 0)
(0.125 8.69093e-15 0)
(0.125 -7.75026e-15 0)
(0.125 6.04777e-15 0)
(0.125 -4.72314e-15 0)
(0.125 3.52183e-15 0)
(0.125 -2.48466e-15 0)
(0.125 1.53745e-15 0)
(0.125 -5.62682e-16 0)
(0.125 -2.97108e-16 0)
(0.125 1.08819e-15 0)
(0.125 -2.06588e-15 0)
(0.125 2.58552e-15 0)
(0.125 -6.78092e-15 0)
(0.125 9.56627e-15 0)
(0.125 -2.39166e-13 0)
(0.125 -2.9794e-13 0)
(0.175 -7.27174e-13 0)
(0.175 -6.47287e-13 0)
(0.175 -2.89249e-14 0)
(0.175 -2.27942e-14 0)
(0.175 1.01151e-14 0)
(0.175 -9.49384e-15 0)
(0.175 7.3123e-15 0)
(0.175 -5.71086e-15 0)
(0.175 4.23708e-15 0)
(0.175 -2.99608e-15 0)
(0.175 1.85967e-15 0)
(0.175 -6.39791e-16 0)
(0.175 -3.98968e-16 0)
(0.175 1.33307e-15 0)
(0.175 -2.59984e-15 0)
(0.175 3.02685e-15 0)
(0.175 -1.0199e-14 0)
(0.175 1.47369e-14 0)
(0.175 -4.31883e-13 0)
(0.175 -5.08669e-13 0)
(0.225 -9.91677e-13 0)
(0.225 -9.25023e-13 0)
(0.225 -5.11934e-14 0)
(0.225 -2.80657e-14 0)
(0.225 1.00104e-14 0)
(0.225 -1.00788e-14 0)
(0.225 7.6356e-15 0)
(0.225 -5.9582e-15 0)
(0.225 4.39016e-15 0)
(0.225 -3.12113e-15 0)
(0.225 1.94657e-15 0)
(0.225 -6.1655e-16 0)
(0.225 -4.65523e-16 0)
(0.225 1.41213e-15 0)
(0.225 -2.84616e-15 0)
(0.225 3.01599e-15 0)
(0.225 -1.33969e-14 0)
(0.225 1.96984e-14 0)
(0.225 -6.40276e-13 0)
(0.225 -7.28163e-13 0)
(0.275 -1.21139e-12 0)
(0.275 -1.16956e-12 0)
(0.275 -7.45264e-14 0)
(0.275 -3.18432e-14 0)
(0.275 8.72497e-15 0)
(0.275 -9.7102e-15 0)
(0.275 7.19577e-15 0)
(0.275 -5.60568e-15 0)
(0.275 4.09317e-15 0)
(0.275 -2.93779e-15 0)
(0.275 1.84377e-15 0)
(0.275 -5.17387e-16 0)
(0.275 -4.93333e-16 0)
(0.275 1.35222e-15 0)
(0.275 -2.84676e-15 0)
(0.275 2.65211e-15 0)
(0.275 -1.61448e-14 0)
(0.275 2.42377e-14 0)
(0.275 -8.39658e-13 0)
(0.275 -9.32459e-13 0)
(0.325 -1.36496e-12 0)
(0.325 -1.35519e-12 0)
(0.325 -9.61281e-14 0)
(0.325 -3.39325e-14 0)
(0.325 6.55012e-15 0)
(0.325 -8.55859e-15 0)
(0.325 6.14303e-15 0)
(0.325 -4.77369e-15 0)
(0.325 3.43726e-15 0)
(0.325 -2.50154e-15 0)
(0.325 1.58965e-15 0)
(0.325 -3.66948e-16 0)
(0.325 -4.8349e-16 0)
(0.325 1.17772e-15 0)
(0.325 -2.63667e-15 0)
(0.325 2.01823e-15 0)
(0.325 -1.82471e-14 0)
(0.325 2.80147e-14 0)
(0.325 -1.01e-12 0)
(0.325 -1.10198e-12 0)
(0.375 -1.43887e-12 0)
(0.375 -1.46457e-12 0)
(0.375 -1.13631e-13 0)
(0.375 -3.41709e-14 0)
(0.375 3.74714e-15 0)
(0.375 -6.77831e-15 0)
(0.375 4.61182e-15 0)
(0.375 -3.56583e-15 0)
(0.375 2.50031e-15 0)
(0.375 -1.86995e-15 0)
(0.375 1.22218e-15 0)
(0.375 -1.8479e-16 0)
(0.375 -4.39292e-16 0)
(0.375 9.10485e-16 0)
(0.375 -2.24581e-15 0)
(0.375 1.17748e-15 0)
(0.375 -1.95307e-14 0)
(0.375 3.06984e-14 0)
(0.375 -1.13548e-12 0)
(0.375 -1.22124e-12 0)
(0.425 -1.42846e-12 0)
(0.425 -1.4897e-12 0)
(0.425 -1.25281e-13 0)
(0.425 -3.25234e-14 0)
(0.425 5.66652e-16 0)
(0.425 -4.52536e-15 0)
(0.425 2.73738e-15 0)
(0.425 -2.09567e-15 0)
(0.425 1.36723e-15 0)
(0.425 -1.09892e-15 0)
(0.425 7.7404e-16 0)
(0.425 1.26114e-17 0)
(0.425 -3.65346e-16 0)
(0.425 5.76412e-16 0)
(0.425 -1.70933e-15 0)
(0.425 1.97303e-16 0)
(0.425 -1.98836e-14 0)
(0.425 3.19815e-14 0)
(0.425 -1.20542e-12 0)
(0.425 -1.28008e-12 0)
(0.475 -1.33764e-12 0)
(0.475 -1.43165e-12 0)
(0.475 -1.30077e-13 0)
(0.475 -2.9101e-14 0)
(0.475 -2.75006e-15 0)
(0.475 -1.96769e-15 0)
(0.475 6.6368e-16 0)
(0.475 -4.77252e-16 0)
(0.475 1.30339e-16 0)
(0.475 -2.52968e-16 0)
(0.475 2.73076e-16 0)
(0.475 2.15094e-16 0)
(0.475 -2.65588e-16 0)
(0.475 1.99877e-16 0)
(0.475 -1.07441e-15 0)
(0.475 -8.38262e-16 0)
(0.475 -1.92712e-14 0)
(0.475 3.165e-14 0)
(0.475 -1.21492e-12 0)
(0.475 -1.27433e-12 0)
(0.525 -1.17815e-12 0)
(0.525 -1.30003e-12 0)
(0.525 -1.27865e-13 0)
(0.525 -2.41676e-14 0)
(0.525 -5.96117e-15 0)
(0.525 7.14282e-16 0)
(0.525 -1.45962e-15 0)
(0.525 1.18226e-15 0)
(0.525 -1.12765e-15 0)
(0.525 6.07239e-16 0)
(0.525 -2.45174e-16 0)
(0.525 4.12261e-16 0)
(0.525 -1.53844e-16 0)
(0.525 -1.97336e-16 0)
(0.525 -3.80563e-16 0)
(0.525 -1.85586e-15 0)
(0.525 -1.77398e-14 0)
(0.525 2.96298e-14 0)
(0.525 -1.16492e-12 0)
(0.525 -1.20594e-12 0)
(0.575 -9.68008e-13 0)
(0.575 -1.11139e-12 0)
(0.575 -1.19292e-13 0)
(0.575 -1.81247e-14 0)
(0.575 -8.85298e-15 0)
(0.575 3.33292e-15 0)
(0.575 -3.48209e-15 0)
(0.575 2.77078e-15 0)
(0.575 -2.32957e-15 0)
(0.575 1.43146e-15 0)
(0.575 -7.43303e-16 0)
(0.575 5.90097e-16 0)
(0.575 -4.45021e-17 0)
(0.575 -5.85898e-16 0)
(0.575 3.28923e-16 0)
(0.575 -2.78618e-15 0)
(0.575 -1.54046e-14 0)
(0.575 2.6038e-14 0)
(0.575 -1.06184e-12 0)
(0.575 -1.08257e-12 0)
(0.625 -7.298e-13 0)
(0.625 -8.87426e-13 0)
(0.625 -1.05657e-13 0)
(0.625 -1.14921e-14 0)
(0.625 -1.12412e-14 0)
(0.625 5.69923e-15 0)
(0.625 -5.26779e-15 0)
(0.625 4.18414e-15 0)
(0.625 -3.38182e-15 0)
(0.625 2.15072e-15 0)
(0.625 -1.19354e-15 0)
(0.625 7.45206e-16 0)
(0.625 5.62115e-17 0)
(0.625 -9.35972e-16 0)
(0.625 9.99521e-16 0)
(0.625 -3.558e-15 0)
(0.625 -1.24685e-14 0)
(0.625 2.11828e-14 0)
(0.625 -9.16809e-13 0)
(0.625 -9.16883e-13 0)
(0.675 -4.88273e-13 0)
(0.675 -6.5242e-13 0)
(0.675 -8.87236e-14 0)
(0.675 -4.87676e-15 0)
(0.675 -1.29479e-14 0)
(0.675 7.63725e-15 0)
(0.675 -6.69245e-15 0)
(0.675 5.30786e-15 0)
(0.675 -4.19877e-15 0)
(0.675 2.72202e-15 0)
(0.675 -1.56306e-15 0)
(0.675 8.55132e-16 0)
(0.675 1.42468e-16 0)
(0.675 -1.21744e-15 0)
(0.675 1.57479e-15 0)
(0.675 -4.10541e-15 0)
(0.675 -9.1959e-15 0)
(0.675 1.55515e-14 0)
(0.675 -7.44457e-13 0)
(0.675 -7.25254e-13 0)
(0.725 -2.68069e-13 0)
(0.725 -4.3079e-13 0)
(0.725 -7.04392e-14 0)
(0.725 1.0856e-15 0)
(0.725 -1.38226e-14 0)
(0.725 8.9769e-15 0)
(0.725 -7.62661e-15 0)
(0.725 6.02965e-15 0)
(0.725 -4.70999e-15 0)
(0.725 3.10539e-15 0)
(0.725 -1.82065e-15 0)
(0.725 9.12515e-16 0)
(0.725 2.09624e-16 0)
(0.725 -1.404e-15 0)
(0.725 2.00247e-15 0)
(0.725 -4.37433e-15 0)
(0.725 -5.87376e-15 0)
(0.725 9.78214e-15 0)
(0.725 -5.6165e-13 0)
(0.725 -5.26405e-13 0)
(0.775 -9.06301e-14 0)
(0.775 -2.43718e-13 0)
(0.775 -5.26007e-14 0)
(0.775 5.75527e-15 0)
(0.775 -1.37295e-14 0)
(0.775 9.55024e-15 0)
(0.775 -7.95012e-15 0)
(0.775 6.26239e-15 0)
(0.775 -4.84927e-15 0)
(0.775 3.24482e-15 0)
(0.775 -1.92492e-15 0)
(0.775 9.09137e-16 0)
(0.775 2.47216e-16 0)
(0.775 -1.47298e-15 0)
(0.775 2.23536e-15 0)
(0.775 -4.32467e-15 0)
(0.775 -2.83014e-15 0)
(0.775 4.56231e-15 0)
(0.775 -3.85454e-13 0)
(0.775 -3.39312e-13 0)
(0.825 2.7435e-14 0)
(0.825 -1.0686e-13 0)
(0.825 -3.64977e-14 0)
(0.825 8.52114e-15 0)
(0.825 -1.25057e-14 0)
(0.825 9.16584e-15 0)
(0.825 -7.52317e-15 0)
(0.825 5.89754e-15 0)
(0.825 -4.54421e-15 0)
(0.825 3.08495e-15 0)
(0.825 -1.84071e-15 0)
(0.825 8.2938e-16 0)
(0.825 2.53691e-16 0)
(0.825 -1.39435e-15 0)
(0.825 2.21196e-15 0)
(0.825 -3.91361e-15 0)
(0.825 -3.97605e-16 0)
(0.825 5.64829e-16 0)
(0.825 -2.31664e-13 0)
(0.825 -1.81757e-13 0)
(0.875 7.87706e-14 0)
(0.875 -2.55667e-14 0)
(0.875 -2.26994e-14 0)
(0.875 8.76703e-15 0)
(0.875 -9.95858e-15 0)
(0.875 7.59127e-15 0)
(0.875 -6.1602e-15 0)
(0.875 4.80867e-15 0)
(0.875 -3.69625e-15 0)
(0.875 2.54065e-15 0)
(0.875 -1.51905e-15 0)
(0.875 6.63678e-16 0)
(0.875 2.18291e-16 0)
(0.875 -1.12647e-15 0)
(0.875 1.86193e-15 0)
(0.875 -3.08729e-15 0)
(0.875 1.07016e-15 0)
(0.875 -1.71576e-15 0)
(0.875 -1.12437e-13 0)
(0.875 -6.78787e-14 0)
(0.925 6.82078e-14 0)
(0.925 5.50855e-15 0)
(0.925 -1.11709e-14 0)
(0.925 6.28939e-15 0)
(0.925 -6.06753e-15 0)
(0.925 4.76751e-15 0)
(0.925 -3.83261e-15 0)
(0.925 2.9914e-15 0)
(0.925 -2.29299e-15 0)
(0.925 1.5893e-15 0)
(0.925 -9.56097e-16 0)
(0.925 4.0992e-16 0)
(0.925 1.35053e-16 0)
(0.925 -6.89778e-16 0)
(0.925 1.18295e-15 0)
(0.925 -1.86122e-15 0)
(0.925 1.34663e-15 0)
(0.925 -1.92582e-15 0)
(0.925 -3.62571e-14 0)
(0.925 -6.91653e-15 0)
(0.975 2.54667e-14 0)
(0.975 5.68657e-15 0)
(0.975 -3.08162e-15 0)
(0.975 2.16879e-15 0)
(0.975 -1.92839e-15 0)
(0.975 1.53932e-15 0)
(0.975 -1.23159e-15 0)
(0.975 9.62401e-16 0)
(0.975 -7.35306e-16 0)
(0.975 5.12499e-16 0)
(0.975 -3.09395e-16 0)
(0.975 1.3294e-16 0)
(0.975 4.00484e-17 0)
(0.975 -2.18374e-16 0)
(0.975 3.86379e-16 0)
(0.975 -5.86251e-16 0)
(0.975 5.62042e-16 0)
(0.975 -8.7368e-16 0)
(0.975 -4.74422e-15 0)
(0.975 5.09107e-15 0)
)
;

boundaryField
{
    top
    {
        type            fixedValue;
        value           uniform (1 0 0);
    }
    bottom
    {
        type            fixedValue;
        value           uniform (0 0 0);
    }
    inlet
    {
        type            zeroGradient;
    }
    outlet
    {
        type            zeroGradient;
    }
    frontAndBack
    {
        type            empty;
    }
}


// ************************************************************************* //
