/*--------------------------------*- C++ -*----------------------------------*\
| =========                 |                                                 |
| \\      /  F ield         | OpenFOAM: The Open Source CFD Toolbox           |
|  \\    /   O peration     | Version:  4.1                                   |
|   \\  /    A nd           | Web:      www.OpenFOAM.org                      |
|    \\/     M anipulation  |                                                 |
\*---------------------------------------------------------------------------*/
FoamFile
{
    version     2.0;
    format      ascii;
    class       surfaceScalarField;
    location    "0.7";
    object      phi;
}
// * * * * * * * * * * * * * * * * * * * * * * * * * * * * * * * * * * * * * //

dimensions      [0 3 -1 0 0 0 0];

internalField   nonuniform List<scalar> 
760
(
-1.91591e-05
1.44443e-11
-1.91591e-05
9.62487e-12
-1.91592e-05
2.57711e-11
-1.91592e-05
1.5756e-12
-1.91592e-05
2.18729e-11
-1.91592e-05
-1.63583e-12
-1.91592e-05
2.25069e-11
-1.91592e-05
5.3199e-13
-1.91592e-05
2.00167e-11
-1.91592e-05
3.11512e-12
-1.91592e-05
1.61935e-11
-1.91592e-05
6.18307e-12
-1.91592e-05
1.07653e-11
-1.91592e-05
8.93253e-12
-1.91592e-05
4.92452e-12
-1.91592e-05
1.15661e-11
-1.91592e-05
-9.60838e-13
-1.91592e-05
1.08568e-11
-1.91592e-05
-1.09095e-11
2.10901e-11
-5.11448e-05
4.53155e-11
-5.11448e-05
4.30796e-11
-5.11448e-05
6.64046e-11
-5.11448e-05
7.76831e-12
-5.11448e-05
4.52144e-11
-5.11448e-05
-2.56651e-12
-5.11448e-05
4.36073e-11
-5.11448e-05
1.67401e-12
-5.11448e-05
3.7797e-11
-5.11448e-05
7.18517e-12
-5.11448e-05
2.97041e-11
-5.11448e-05
1.35652e-11
-5.11448e-05
1.8746e-11
-5.11448e-05
1.94044e-11
-5.11448e-05
7.02459e-12
-5.11448e-05
2.43029e-11
-5.11448e-05
-2.61901e-12
-5.11448e-05
1.65608e-11
-5.11448e-05
-2.09257e-11
5.52981e-11
-7.6798e-05
9.16714e-11
-7.6798e-05
1.02576e-10
-7.6798e-05
1.14312e-10
-7.67981e-05
2.29887e-11
-7.67981e-05
6.70793e-11
-7.67981e-05
2.70444e-12
-7.67981e-05
6.19109e-11
-7.67981e-05
8.21527e-12
-7.67981e-05
5.32647e-11
-7.67981e-05
1.55651e-11
-7.67981e-05
4.18565e-11
-7.67981e-05
2.37105e-11
-7.67981e-05
2.67331e-11
-7.67981e-05
3.08995e-11
-7.67981e-05
1.04772e-11
-7.67981e-05
3.58404e-11
-7.67981e-05
8.43577e-14
-7.67981e-05
1.37286e-11
-7.67981e-05
-1.68886e-11
9.54123e-11
-9.61189e-05
1.52408e-10
-9.6119e-05
1.83967e-10
-9.6119e-05
1.64839e-10
-9.6119e-05
4.47941e-11
-9.61191e-05
8.63187e-11
-9.61191e-05
1.31866e-11
-9.61191e-05
7.65522e-11
-9.61191e-05
1.9198e-11
-9.61191e-05
6.57025e-11
-9.61191e-05
2.7288e-11
-9.61191e-05
5.19729e-11
-9.61191e-05
3.57173e-11
-9.61191e-05
3.41253e-11
-9.61191e-05
4.26013e-11
-9.61191e-05
1.47453e-11
-9.61191e-05
4.56926e-11
-9.61191e-05
6.1189e-12
-9.6119e-05
4.36955e-12
-9.61191e-05
3.40158e-12
1.41103e-10
-0.000109108
2.24245e-10
-0.000109108
2.80812e-10
-0.000109108
2.14008e-10
-0.000109108
7.05084e-11
-0.000109108
1.02547e-10
-0.000109108
2.72241e-11
-0.000109108
8.78377e-11
-0.000109108
3.31276e-11
-0.000109108
7.55197e-11
-0.000109108
4.1026e-11
-0.000109108
6.04362e-11
-0.000109108
4.85575e-11
-0.000109108
4.11521e-11
-0.000109108
5.37739e-11
-0.000109108
1.99063e-11
-0.000109108
5.36432e-11
-0.000109108
1.48532e-11
-0.000109108
-9.25988e-12
-0.000109108
3.98668e-11
1.91129e-10
-0.000115765
3.01913e-10
-0.000115765
3.85172e-10
-0.000115765
2.57845e-10
-0.000115765
9.73137e-11
-0.000115765
1.14557e-10
-0.000115765
4.2958e-11
-0.000115765
9.49667e-11
-0.000115765
4.82085e-11
-0.000115765
8.19736e-11
-0.000115765
5.51233e-11
-0.000115765
6.65038e-11
-0.000115765
6.08169e-11
-0.000115765
4.70907e-11
-0.000115765
6.3367e-11
-0.000115765
2.52768e-11
-0.000115765
5.90975e-11
-0.000115765
2.52463e-11
-0.000115765
-2.55145e-11
-0.000115765
8.97789e-11
2.42763e-10
-0.000116091
3.7893e-10
-0.000116091
4.88326e-10
-0.000116091
2.93405e-10
-0.000116091
1.22926e-10
-0.000116091
1.2182e-10
-0.000116091
5.89449e-11
-0.000116091
9.78494e-11
-0.000116091
6.30972e-11
-0.000116091
8.49691e-11
-0.000116091
6.84022e-11
-0.000116091
7.00189e-11
-0.000116091
7.15552e-11
-0.000116091
5.16686e-11
-0.000116091
7.07676e-11
-0.000116091
3.049e-11
-0.000116091
6.18234e-11
-0.000116091
3.64691e-11
-0.000116091
-4.28495e-11
-0.000116091
1.48395e-10
2.92283e-10
-0.000110085
4.48219e-10
-0.000110085
5.81399e-10
-0.000110085
3.18619e-10
-0.000110085
1.45544e-10
-0.000110085
1.24271e-10
-0.000110085
7.41487e-11
-0.000110085
9.68199e-11
-0.000110085
7.68737e-11
-0.000110085
8.47878e-11
-0.000110085
8.01108e-11
-0.000110085
7.11505e-11
-0.000110085
8.02342e-11
-0.000110085
5.48653e-11
-0.000110085
7.5726e-11
-0.000110085
3.53531e-11
-0.000110085
6.18822e-11
-0.000110085
4.78135e-11
-0.000110085
-5.98753e-11
-0.000110085
2.09638e-10
3.35406e-10
-9.77472e-05
5.02748e-10
-9.77473e-05
6.55837e-10
-9.77473e-05
3.32042e-10
-9.77473e-05
1.63618e-10
-9.77473e-05
1.22066e-10
-9.77473e-05
8.76301e-11
-9.77473e-05
9.23561e-11
-9.77473e-05
8.87276e-11
-9.77473e-05
8.18099e-11
-9.77473e-05
8.96208e-11
-9.77473e-05
7.0134e-11
-9.77473e-05
8.64455e-11
-9.77473e-05
5.66883e-11
-9.77473e-05
7.81203e-11
-9.77473e-05
3.96735e-11
-9.77473e-05
5.94578e-11
-9.77473e-05
5.8545e-11
-9.77473e-05
-7.53869e-11
-9.77474e-05
2.66775e-10
3.67675e-10
-7.90786e-05
5.36359e-10
-7.90786e-05
7.0416e-10
-7.90786e-05
3.32805e-10
-7.90786e-05
1.75876e-10
-7.90786e-05
1.1555e-10
-7.90786e-05
9.85607e-11
-7.90786e-05
8.5039e-11
-7.90786e-05
9.79731e-11
-7.90786e-05
7.64859e-11
-7.90786e-05
9.64359e-11
-7.90786e-05
6.72502e-11
-7.90786e-05
8.99181e-11
-7.90786e-05
5.71649e-11
-7.90786e-05
7.79566e-11
-7.90786e-05
4.32538e-11
-7.90786e-05
5.48568e-11
-7.90786e-05
6.79239e-11
-7.90786e-05
-8.82775e-11
-7.90787e-05
3.13339e-10
3.85085e-10
-5.40786e-05
5.44534e-10
-5.40786e-05
7.20689e-10
-5.40786e-05
3.20607e-10
-5.40786e-05
1.81354e-10
-5.40786e-05
1.05233e-10
-5.40786e-05
1.06209e-10
-5.40786e-05
7.5501e-11
-5.40786e-05
1.04032e-10
-5.40786e-05
6.92842e-11
-5.40786e-05
1.00167e-10
-5.40786e-05
6.27828e-11
-5.40786e-05
9.04953e-11
-5.40786e-05
5.63086e-11
-5.40786e-05
7.53414e-11
-5.40786e-05
4.58716e-11
-5.40786e-05
4.84829e-11
-5.40786e-05
7.52281e-11
-5.40786e-05
-9.75065e-11
-5.40786e-05
3.43931e-10
3.84649e-10
-2.27474e-05
5.25104e-10
-2.27474e-05
7.02312e-10
-2.27473e-05
2.9581e-10
-2.27473e-05
1.79462e-10
-2.27473e-05
9.17763e-11
-2.27473e-05
1.09966e-10
-2.27473e-05
6.43921e-11
-2.27473e-05
1.06446e-10
-2.27473e-05
6.06654e-11
-2.27473e-05
1.00534e-10
-2.27473e-05
5.69956e-11
-2.27473e-05
8.81325e-11
-2.27473e-05
5.41126e-11
-2.27473e-05
7.04713e-11
-2.27473e-05
4.72789e-11
-2.27473e-05
4.08165e-11
-2.27473e-05
7.97784e-11
-2.27473e-05
-1.02138e-10
-2.27473e-05
3.54914e-10
3.64959e-10
1.49152e-05
4.78724e-10
1.49152e-05
6.4911e-10
1.49153e-05
2.59617e-10
1.49153e-05
1.70076e-10
1.49153e-05
7.60064e-11
1.49153e-05
1.0938e-10
1.49153e-05
5.23603e-11
1.49153e-05
1.04895e-10
1.49153e-05
5.10717e-11
1.49153e-05
9.73801e-11
1.49153e-05
5.01247e-11
1.49153e-05
8.28982e-11
1.49153e-05
5.05533e-11
1.49153e-05
6.36244e-11
1.49153e-05
4.72095e-11
1.49153e-05
3.23942e-11
1.49153e-05
8.09887e-11
1.49153e-05
-1.01466e-10
1.49153e-05
3.44841e-10
3.26601e-10
5.89091e-05
4.09183e-10
5.89092e-05
5.6486e-10
5.89093e-05
2.14287e-10
5.89093e-05
1.53624e-10
5.89093e-05
5.89411e-11
5.89093e-05
1.04209e-10
5.89093e-05
4.00635e-11
5.89093e-05
9.92359e-11
5.89093e-05
4.09469e-11
5.89093e-05
9.06931e-11
5.89093e-05
4.24017e-11
5.89093e-05
7.49879e-11
5.89093e-05
4.5616e-11
5.89093e-05
5.51599e-11
5.89093e-05
4.5411e-11
5.89093e-05
2.37968e-11
5.89093e-05
7.84304e-11
5.89093e-05
-9.51896e-11
5.89093e-05
3.14667e-10
2.72449e-10
0.000109235
3.23162e-10
0.000109235
4.57019e-10
0.000109235
1.63276e-10
0.000109235
1.31098e-10
0.000109235
4.17458e-11
0.000109235
9.44222e-11
0.000109235
2.81209e-11
0.000109235
8.94725e-11
0.000109235
3.07008e-11
0.000109235
8.05806e-11
0.000109235
3.40241e-11
0.000109235
6.46938e-11
0.000109235
3.92818e-11
0.000109235
4.54828e-11
0.000109235
4.16431e-11
0.000109235
1.56077e-11
0.000109235
7.18741e-11
0.000109235
-8.36258e-11
0.000109235
2.67542e-10
2.07622e-10
0.000165892
2.3006e-10
0.000165892
3.36657e-10
0.000165892
1.11377e-10
0.000165892
1.04248e-10
0.000165892
2.59388e-11
0.000165892
8.04476e-11
0.000165892
1.7411e-11
0.000165892
7.60159e-11
0.000165892
2.10265e-11
0.000165892
6.75186e-11
0.000165892
2.54714e-11
0.000165892
5.26191e-11
0.000165892
3.1814e-11
0.000165892
3.52249e-11
0.000165892
3.59183e-11
0.000165892
8.54936e-12
0.000165892
6.14949e-11
0.000165892
-6.76809e-11
0.000165892
2.08676e-10
1.39382e-10
0.000228881
1.40808e-10
0.000228881
2.17315e-10
0.000228881
6.46164e-11
0.000228881
7.55533e-11
0.000228881
1.34036e-11
0.000228881
6.33513e-11
0.000228881
9.13094e-12
0.000228881
5.98999e-11
0.000228881
1.29622e-11
0.000228881
5.25835e-11
0.000228881
1.75723e-11
0.000228881
3.98969e-11
0.000228881
2.38308e-11
0.000228881
2.54228e-11
0.000228881
2.8553e-11
0.000228881
3.55957e-12
0.000228881
4.79893e-11
0.000228881
-4.88019e-11
0.000228881
1.44573e-10
7.64436e-11
0.000298202
6.65453e-11
0.000298202
1.12787e-10
0.000298202
2.82813e-11
0.000298202
4.67422e-11
0.000298202
5.09181e-12
0.000298202
4.31103e-11
0.000298202
3.78885e-12
0.000298202
4.09472e-11
0.000298202
6.96097e-12
0.000298202
3.56527e-11
0.000298202
1.06953e-11
0.000298202
2.65164e-11
0.000298202
1.56149e-11
0.000298202
1.61961e-11
0.000298202
1.96542e-11
0.000298202
9.15822e-13
0.000298202
3.19612e-11
0.000298202
-2.90049e-11
0.000298202
8.2521e-11
2.81621e-11
0.000373855
1.7892e-11
0.000373855
3.64714e-11
0.000373855
8.10503e-12
0.000373855
2.04021e-11
0.000373855
2.75491e-12
0.000373855
2.14451e-11
0.000373855
2.62424e-12
0.000373855
2.09096e-11
0.000373855
4.11866e-12
0.000373855
1.85122e-11
0.000373855
5.7439e-12
0.000373855
1.411e-11
0.000373855
7.92295e-12
0.000373855
9.0513e-12
0.000373855
9.69558e-12
0.000373855
1.56451e-12
0.000373855
1.4627e-11
0.000373855
-9.85725e-12
0.000373855
2.95917e-11
3.27221e-12
0.000455841
0.000455841
0.000455841
0.000455841
0.000455841
0.000455841
0.000455841
0.000455841
0.000455841
0.000455841
0.000455841
0.000455841
0.000455841
0.000455841
0.000455841
0.000455841
0.000455841
0.000455841
0.000455841
)
;

boundaryField
{
    top
    {
        type            calculated;
        value           uniform 0;
    }
    bottom
    {
        type            calculated;
        value           uniform 0;
    }
    inlet
    {
        type            calculated;
        value           nonuniform List<scalar> 
20
(
1.91591e-05
5.11447e-05
7.67979e-05
9.61189e-05
0.000109108
0.000115765
0.00011609
0.000110085
9.77472e-05
7.90785e-05
5.40786e-05
2.27474e-05
-1.49151e-05
-5.89091e-05
-0.000109235
-0.000165892
-0.000228881
-0.000298202
-0.000373855
-0.000455841
)
;
    }
    outlet
    {
        type            calculated;
        value           nonuniform List<scalar> 
20
(
-1.91592e-05
-5.11449e-05
-7.67981e-05
-9.61191e-05
-0.000109108
-0.000115765
-0.000116091
-0.000110085
-9.77474e-05
-7.90787e-05
-5.40786e-05
-2.27473e-05
1.49153e-05
5.89093e-05
0.000109235
0.000165892
0.000228881
0.000298202
0.000373855
0.000455841
)
;
    }
    frontAndBack
    {
        type            empty;
        value           nonuniform 0();
    }
}


// ************************************************************************* //
