/*--------------------------------*- C++ -*----------------------------------*\
| =========                 |                                                 |
| \\      /  F ield         | OpenFOAM: The Open Source CFD Toolbox           |
|  \\    /   O peration     | Version:  4.1                                   |
|   \\  /    A nd           | Web:      www.OpenFOAM.org                      |
|    \\/     M anipulation  |                                                 |
\*---------------------------------------------------------------------------*/
FoamFile
{
    version     2.0;
    format      ascii;
    class       volVectorField;
    location    "0.7";
    object      U;
}
// * * * * * * * * * * * * * * * * * * * * * * * * * * * * * * * * * * * * * //

dimensions      [0 1 -1 0 0 0 0];

internalField   nonuniform List<vector> 
400
(
(-0.383183 5.62415e-09 0)
(-0.383183 2.37534e-09 0)
(-0.383183 1.15097e-08 0)
(-0.383183 -1.73101e-10 0)
(-0.383183 1.02711e-08 0)
(-0.383183 -1.44275e-09 0)
(-0.383183 1.05548e-08 0)
(-0.383183 -3.50007e-10 0)
(-0.383184 9.3128e-09 0)
(-0.383183 9.90461e-10 0)
(-0.383184 7.44787e-09 0)
(-0.383183 2.59431e-09 0)
(-0.383184 4.77057e-09 0)
(-0.383183 4.01735e-09 0)
(-0.383184 1.9285e-09 0)
(-0.383183 5.47328e-09 0)
(-0.383183 -1.04104e-09 0)
(-0.383183 5.82372e-09 0)
(-0.383183 -6.51325e-09 0)
(-0.383183 9.52739e-09 0)
(-1.02289 2.6634e-08 0)
(-1.0229 2.15336e-08 0)
(-1.0229 4.46102e-08 0)
(-1.0229 4.03769e-09 0)
(-1.0229 3.43522e-08 0)
(-1.0229 -1.88971e-09 0)
(-1.0229 3.42921e-08 0)
(-1.0229 1.48558e-09 0)
(-1.0229 3.01316e-08 0)
(-1.0229 5.62809e-09 0)
(-1.0229 2.40615e-08 0)
(-1.0229 1.04216e-08 0)
(-1.0229 1.56086e-08 0)
(-1.0229 1.4685e-08 0)
(-1.0229 6.53987e-09 0)
(-1.0229 1.85669e-08 0)
(-1.0229 -1.8456e-09 0)
(-1.0229 1.54718e-08 0)
(-1.0229 -1.77469e-08 0)
(-1.0229 3.62849e-08 0)
(-1.53596 6.48251e-08 0)
(-1.53596 6.74086e-08 0)
(-1.53596 8.90393e-08 0)
(-1.53596 1.42028e-08 0)
(-1.53596 5.67904e-08 0)
(-1.53596 -4.56092e-10 0)
(-1.53596 5.37168e-08 0)
(-1.53596 4.60286e-09 0)
(-1.53596 4.64133e-08 0)
(-1.53596 1.11838e-08 0)
(-1.53596 3.64847e-08 0)
(-1.53596 1.8649e-08 0)
(-1.53596 2.31617e-08 0)
(-1.53596 2.53522e-08 0)
(-1.53596 8.87839e-09 0)
(-1.53596 3.05468e-08 0)
(-1.53596 -1.73465e-09 0)
(-1.53596 1.68315e-08 0)
(-1.53596 -2.19245e-08 0)
(-1.53596 7.34717e-08 0)
(-1.92238 1.19002e-07 0)
(-1.92238 1.38976e-07 0)
(-1.92238 1.39267e-07 0)
(-1.92238 3.27163e-08 0)
(-1.92238 7.71662e-08 0)
(-1.92238 7.16254e-09 0)
(-1.92238 6.97057e-08 0)
(-1.92238 1.30744e-08 0)
(-1.92238 5.98026e-08 0)
(-1.92238 2.09965e-08 0)
(-1.92238 4.70147e-08 0)
(-1.92238 2.9536e-08 0)
(-1.92238 3.02785e-08 0)
(-1.92238 3.68724e-08 0)
(-1.92238 1.21877e-08 0)
(-1.92238 4.12021e-08 0)
(-1.92238 2.29777e-09 0)
(-1.92238 1.02619e-08 0)
(-1.92238 -1.06151e-08 0)
(-1.92238 1.17088e-07 0)
(-2.18216 1.8636e-07 0)
(-2.18216 2.29769e-07 0)
(-2.18216 1.90088e-07 0)
(-2.18216 5.68886e-08 0)
(-2.18216 9.50423e-08 0)
(-2.18216 1.94934e-08 0)
(-2.18216 8.27155e-08 0)
(-2.18216 2.55783e-08 0)
(-2.18216 7.09486e-08 0)
(-2.18216 3.3777e-08 0)
(-2.18216 5.63332e-08 0)
(-2.18216 4.20043e-08 0)
(-2.18216 3.75208e-08 0)
(-2.18216 4.83437e-08 0)
(-2.18216 1.6931e-08 0)
(-2.18216 5.01011e-08 0)
(-2.18216 9.82461e-09 0)
(-2.18216 -1.76516e-09 0)
(-2.18216 1.80465e-08 0)
(-2.18216 1.65581e-07 0)
(-2.3153 2.62447e-07 0)
(-2.3153 3.32223e-07 0)
(-2.3153 2.37221e-07 0)
(-2.3153 8.35493e-08 0)
(-2.31531 1.09146e-07 0)
(-2.3153 3.45229e-08 0)
(-2.31531 9.18178e-08 0)
(-2.3153 4.01882e-08 0)
(-2.31531 7.89862e-08 0)
(-2.3153 4.77663e-08 0)
(-2.31531 6.35287e-08 0)
(-2.3153 5.45895e-08 0)
(-2.31531 4.39795e-08 0)
(-2.3153 5.87192e-08 0)
(-2.31531 2.22183e-08 0)
(-2.3153 5.6731e-08 0)
(-2.31531 1.95439e-08 0)
(-2.3153 -1.71857e-08 0)
(-2.3153 6.21383e-08 0)
(-2.31531 2.17118e-07 0)
(-2.32181 3.41362e-07 0)
(-2.32181 4.37929e-07 0)
(-2.32181 2.77388e-07 0)
(-2.32181 1.10106e-07 0)
(-2.32182 1.18744e-07 0)
(-2.32181 5.05143e-08 0)
(-2.32182 9.67068e-08 0)
(-2.32181 5.52707e-08 0)
(-2.32182 8.36091e-08 0)
(-2.32181 6.15201e-08 0)
(-2.32182 6.82441e-08 0)
(-2.32181 6.61195e-08 0)
(-2.32182 4.92039e-08 0)
(-2.32181 6.72036e-08 0)
(-2.32182 2.75277e-08 0)
(-2.32181 6.07487e-08 0)
(-2.32182 3.0482e-08 0)
(-2.32181 -3.43293e-08 0)
(-2.32181 1.17688e-07 0)
(-2.32182 2.68597e-07 0)
(-2.20169 4.16175e-07 0)
(-2.20169 5.38008e-07 0)
(-2.20169 3.08137e-07 0)
(-2.20169 1.34556e-07 0)
(-2.2017 1.23555e-07 0)
(-2.20169 6.62709e-08 0)
(-2.2017 9.75232e-08 0)
(-2.20169 6.97298e-08 0)
(-2.2017 8.49234e-08 0)
(-2.20169 7.41056e-08 0)
(-2.2017 7.05063e-08 0)
(-2.20169 7.58801e-08 0)
(-2.2017 5.30737e-08 0)
(-2.20169 7.33841e-08 0)
(-2.2017 3.26024e-08 0)
(-2.20169 6.20775e-08 0)
(-2.2017 4.19025e-08 0)
(-2.20169 -5.17677e-08 0)
(-2.2017 1.79134e-07 0)
(-2.2017 3.15922e-07 0)
(-1.95494 4.7963e-07 0)
(-1.95495 6.23578e-07 0)
(-1.95495 3.27704e-07 0)
(-1.95495 1.55201e-07 0)
(-1.95495 1.23599e-07 0)
(-1.95494 8.07718e-08 0)
(-1.95495 9.46501e-08 0)
(-1.95494 8.26667e-08 0)
(-1.95495 8.32401e-08 0)
(-1.95494 8.47987e-08 0)
(-1.95495 7.04983e-08 0)
(-1.95494 8.33643e-08 0)
(-1.95495 5.55647e-08 0)
(-1.95494 7.70439e-08 0)
(-1.95495 3.72383e-08 0)
(-1.95494 6.08132e-08 0)
(-1.95495 5.30863e-08 0)
(-1.95494 -6.82594e-08 0)
(-1.95495 2.39872e-07 0)
(-1.95495 3.54571e-07 0)
(-1.58157 5.24941e-07 0)
(-1.58157 6.86455e-07 0)
(-1.58157 3.34944e-07 0)
(-1.58157 1.70627e-07 0)
(-1.58157 1.19136e-07 0)
(-1.58157 9.31384e-08 0)
(-1.58157 8.86296e-08 0)
(-1.58157 9.33359e-08 0)
(-1.58158 7.89897e-08 0)
(-1.58157 9.30385e-08 0)
(-1.58158 6.84902e-08 0)
(-1.58157 8.82361e-08 0)
(-1.58158 5.67055e-08 0)
(-1.58157 7.81291e-08 0)
(-1.58158 4.12476e-08 0)
(-1.58157 5.72094e-08 0)
(-1.58157 6.32941e-08 0)
(-1.58157 -8.26754e-08 0)
(-1.58157 2.93101e-07 0)
(-1.58157 3.80185e-07 0)
(-1.08157 5.46596e-07 0)
(-1.08157 7.19886e-07 0)
(-1.08157 3.29261e-07 0)
(-1.08157 1.79701e-07 0)
(-1.08157 1.10596e-07 0)
(-1.08157 1.02582e-07 0)
(-1.08157 8.00761e-08 0)
(-1.08157 1.011e-07 0)
(-1.08158 7.26379e-08 0)
(-1.08157 9.83768e-08 0)
(-1.08158 6.47699e-08 0)
(-1.08157 9.02784e-08 0)
(-1.08158 5.65228e-08 0)
(-1.08157 7.66974e-08 0)
(-1.08158 4.44174e-08 0)
(-1.08157 5.16242e-08 0)
(-1.08157 7.1791e-08 0)
(-1.08157 -9.39525e-08 0)
(-1.08157 3.32705e-07 0)
(-1.08157 3.8914e-07 0)
(-0.454948 5.41109e-07 0)
(-0.454947 7.19312e-07 0)
(-0.454948 3.10655e-07 0)
(-0.454946 1.81627e-07 0)
(-0.454948 9.85647e-08 0)
(-0.454945 1.08421e-07 0)
(-0.454949 6.96394e-08 0)
(-0.454944 1.05435e-07 0)
(-0.45495 6.46537e-08 0)
(-0.454944 1.00484e-07 0)
(-0.45495 5.96146e-08 0)
(-0.454943 8.93902e-08 0)
(-0.45495 5.50221e-08 0)
(-0.454944 7.29023e-08 0)
(-0.45495 4.65102e-08 0)
(-0.454944 4.45006e-08 0)
(-0.454949 7.78684e-08 0)
(-0.454945 -1.01089e-07 0)
(-0.454948 3.54031e-07 0)
(-0.454946 3.79128e-07 0)
(0.298303 5.07647e-07 0)
(0.298305 6.83093e-07 0)
(0.298304 2.79854e-07 0)
(0.298306 1.76025e-07 0)
(0.298304 8.37861e-08 0)
(0.298307 1.10112e-07 0)
(0.298303 5.79703e-08 0)
(0.298308 1.05948e-07 0)
(0.298303 5.54906e-08 0)
(0.298308 9.91381e-08 0)
(0.298302 5.32738e-08 0)
(0.298309 8.55841e-08 0)
(0.298302 5.21871e-08 0)
(0.298308 6.69823e-08 0)
(0.298303 4.72678e-08 0)
(0.298308 3.63507e-08 0)
(0.298303 8.08846e-08 0)
(0.298307 -1.03223e-07 0)
(0.298304 3.54475e-07 0)
(0.298307 3.49665e-07 0)
(1.17818 4.48414e-07 0)
(1.17818 6.13084e-07 0)
(1.17818 2.38524e-07 0)
(1.17819 1.6302e-07 0)
(1.17818 6.71731e-08 0)
(1.17819 1.07294e-07 0)
(1.17818 4.57133e-08 0)
(1.17819 1.02392e-07 0)
(1.17818 4.55833e-08 0)
(1.17819 9.42361e-08 0)
(1.17818 4.59736e-08 0)
(1.17819 7.89838e-08 0)
(1.17818 4.79874e-08 0)
(1.17819 5.92531e-08 0)
(1.17818 4.64197e-08 0)
(1.17819 2.77313e-08 0)
(1.17818 8.0317e-08 0)
(1.17819 -9.98065e-08 0)
(1.17818 3.33795e-07 0)
(1.17819 3.02448e-07 0)
(2.18469 3.68751e-07 0)
(2.18469 5.14972e-07 0)
(2.18469 1.89496e-07 0)
(2.1847 1.43349e-07 0)
(2.18469 4.98438e-08 0)
(2.1847 9.98638e-08 0)
(2.18469 3.35392e-08 0)
(2.1847 9.47347e-08 0)
(2.18469 3.53902e-08 0)
(2.1847 8.58576e-08 0)
(2.18469 3.79624e-08 0)
(2.1847 6.98562e-08 0)
(2.18469 4.24325e-08 0)
(2.1847 5.01194e-08 0)
(2.18469 4.37473e-08 0)
(2.1847 1.92384e-08 0)
(2.18469 7.58456e-08 0)
(2.1847 -9.07933e-08 0)
(2.18469 2.94163e-07 0)
(2.1847 2.41513e-07 0)
(3.31783 2.7675e-07 0)
(3.31784 3.98077e-07 0)
(3.31784 1.36866e-07 0)
(3.31784 1.18355e-07 0)
(3.31784 3.3102e-08 0)
(3.31784 8.79949e-08 0)
(3.31784 2.21443e-08 0)
(3.31784 8.3154e-08 0)
(3.31784 2.5413e-08 0)
(3.31784 7.42667e-08 0)
(3.31784 2.95305e-08 0)
(3.31784 5.86224e-08 0)
(3.31784 3.56056e-08 0)
(3.31784 4.00699e-08 0)
(3.31784 3.91082e-08 0)
(3.31784 1.15025e-08 0)
(3.31784 6.74183e-08 0)
(3.31784 -7.6805e-08 0)
(3.31784 2.39839e-07 0)
(3.31784 1.73093e-07 0)
(4.57761 1.82713e-07 0)
(4.57762 2.74716e-07 0)
(4.57762 8.60495e-08 0)
(4.57762 9.00457e-08 0)
(4.57762 1.86847e-08 0)
(4.57762 7.22885e-08 0)
(4.57762 1.26084e-08 0)
(4.57762 6.82269e-08 0)
(4.57762 1.65504e-08 0)
(4.57762 6.01119e-08 0)
(4.57762 2.1345e-08 0)
(4.57762 4.60584e-08 0)
(4.57762 2.79385e-08 0)
(4.57762 2.98858e-08 0)
(4.57762 3.26406e-08 0)
(4.57762 5.37802e-09 0)
(4.57762 5.53713e-08 0)
(4.57762 -5.89157e-08 0)
(4.57762 1.7667e-07 0)
(4.57762 1.05358e-07 0)
(5.96403 9.8591e-08 0)
(5.96404 1.5954e-07 0)
(5.96404 4.36753e-08 0)
(5.96404 6.09178e-08 0)
(5.96404 8.70686e-09 0)
(5.96404 5.38873e-08 0)
(5.96404 6.30759e-09 0)
(5.96404 5.11064e-08 0)
(5.96404 9.98193e-09 0)
(5.96404 4.46526e-08 0)
(5.96404 1.43183e-08 0)
(5.96404 3.35089e-08 0)
(5.96404 2.00797e-08 0)
(5.96404 2.08615e-08 0)
(5.96404 2.45972e-08 0)
(5.96404 2.02998e-09 0)
(5.96404 4.04364e-08 0)
(5.96404 -3.8532e-08 0)
(5.96404 1.11609e-07 0)
(5.96404 4.80782e-08 0)
(7.4771 3.68747e-08 0)
(7.4771 6.82454e-08 0)
(7.4771 1.53692e-08 0)
(7.4771 3.33481e-08 0)
(7.4771 3.97817e-09 0)
(7.4771 3.31839e-08 0)
(7.4771 3.75262e-09 0)
(7.4771 3.19553e-08 0)
(7.4771 6.23836e-09 0)
(7.4771 2.80093e-08 0)
(7.4771 9.02871e-09 0)
(7.4771 2.10715e-08 0)
(7.4771 1.25778e-08 0)
(7.4771 1.31394e-08 0)
(7.4771 1.54528e-08 0)
(7.4771 1.51384e-09 0)
(7.4771 2.37232e-08 0)
(7.4771 -1.82197e-08 0)
(7.4771 5.37034e-08 0)
(7.4771 1.11502e-08 0)
(9.11682 6.20913e-09 0)
(9.11682 1.45757e-08 0)
(9.11682 1.88914e-09 0)
(9.11682 9.13095e-09 0)
(9.11682 4.46781e-10 0)
(9.11682 9.92646e-09 0)
(9.11682 5.66991e-10 0)
(9.11682 9.63182e-09 0)
(9.11682 1.39023e-09 0)
(9.11682 8.41284e-09 0)
(9.11682 2.33569e-09 0)
(9.11682 6.28401e-09 0)
(9.11682 3.51847e-09 0)
(9.11682 3.79502e-09 0)
(9.11682 4.5072e-09 0)
(9.11682 2.74437e-10 0)
(9.11682 6.87294e-09 0)
(9.11682 -4.7363e-09 0)
(9.11682 1.34926e-08 0)
(9.11682 -7.47942e-10 0)
)
;

boundaryField
{
    top
    {
        type            fixedValue;
        value           uniform (10 0 0);
    }
    bottom
    {
        type            fixedValue;
        value           uniform (0 0 0);
    }
    inlet
    {
        type            zeroGradient;
    }
    outlet
    {
        type            zeroGradient;
    }
    frontAndBack
    {
        type            empty;
    }
}


// ************************************************************************* //
