/*--------------------------------*- C++ -*----------------------------------*\
| =========                 |                                                 |
| \\      /  F ield         | OpenFOAM: The Open Source CFD Toolbox           |
|  \\    /   O peration     | Version:  4.1                                   |
|   \\  /    A nd           | Web:      www.OpenFOAM.org                      |
|    \\/     M anipulation  |                                                 |
\*---------------------------------------------------------------------------*/
FoamFile
{
    version     2.0;
    format      ascii;
    class       surfaceScalarField;
    location    "2.2";
    object      phi;
}
// * * * * * * * * * * * * * * * * * * * * * * * * * * * * * * * * * * * * * //

dimensions      [0 3 -1 0 0 0 0];

internalField   nonuniform List<scalar> 
760
(
-1.9164e-05
7.58191e-13
-1.9164e-05
1.38298e-14
-1.9164e-05
1.24841e-12
-1.9164e-05
-2.43999e-13
-1.9164e-05
1.36294e-12
-1.9164e-05
-4.07658e-13
-1.9164e-05
1.50546e-12
-1.9164e-05
-5.71551e-13
-1.9164e-05
1.50613e-12
-1.9164e-05
-6.4879e-13
-1.9164e-05
1.37097e-12
-1.9164e-05
-6.69314e-13
-1.9164e-05
1.12416e-12
-1.9164e-05
-5.97567e-13
-1.9164e-05
7.55371e-13
-1.9164e-05
-4.55294e-13
-1.9164e-05
3.79492e-13
-1.9164e-05
-3.26281e-13
-1.9164e-05
-1.04194e-14
-8.14996e-14
-5.11593e-05
7.13985e-13
-5.11593e-05
-7.67759e-13
-5.11593e-05
4.62672e-13
-5.11593e-05
-2.11236e-12
-5.11593e-05
-3.89415e-13
-5.11593e-05
-2.9589e-12
-5.11593e-05
-6.63193e-13
-5.11593e-05
-3.5617e-12
-5.11593e-05
-8.33617e-13
-5.11593e-05
-3.74597e-12
-5.11593e-05
-9.02832e-13
-5.11593e-05
-3.60584e-12
-5.11593e-05
-8.87304e-13
-5.11593e-05
-3.10614e-12
-5.11593e-05
-8.63401e-13
-5.11593e-05
-2.34497e-12
-5.11593e-05
-7.30193e-13
-5.11593e-05
-1.54816e-12
-5.11593e-05
-5.10567e-13
-3.17952e-13
-7.68218e-05
3.88056e-13
-7.68218e-05
-1.39526e-12
-7.68218e-05
-8.4669e-13
-7.68218e-05
-3.91859e-12
-7.68218e-05
-2.92465e-12
-7.68218e-05
-5.40477e-12
-7.68218e-05
-3.71338e-12
-7.68218e-05
-6.40625e-12
-7.68218e-05
-4.05487e-12
-7.68218e-05
-6.674e-12
-7.68218e-05
-3.96996e-12
-7.68218e-05
-6.37011e-12
-7.68218e-05
-3.54305e-12
-7.68218e-05
-5.46323e-12
-7.68218e-05
-2.91033e-12
-7.68218e-05
-4.13262e-12
-7.68218e-05
-2.06299e-12
-7.68218e-05
-2.69479e-12
-7.68218e-05
-9.54134e-13
-4.29935e-13
-9.61514e-05
1.63588e-13
-9.61514e-05
-1.61797e-12
-9.61514e-05
-1.90973e-12
-9.61514e-05
-5.29819e-12
-9.61514e-05
-5.14556e-12
-9.61514e-05
-7.31896e-12
-9.61514e-05
-6.39427e-12
-9.61514e-05
-8.66527e-12
-9.61514e-05
-6.87949e-12
-9.61514e-05
-9.02054e-12
-9.61514e-05
-6.64741e-12
-9.61514e-05
-8.60684e-12
-9.61514e-05
-5.85534e-12
-9.61514e-05
-7.38973e-12
-9.61514e-05
-4.67165e-12
-9.61514e-05
-5.62613e-12
-9.61514e-05
-3.21817e-12
-9.61514e-05
-3.65096e-12
-9.61514e-05
-1.24942e-12
-4.58391e-13
-0.000109148
4.52917e-14
-0.000109148
-1.53073e-12
-0.000109148
-2.71438e-12
-0.000109148
-6.29449e-12
-0.000109148
-6.97409e-12
-0.000109148
-8.72621e-12
-0.000109148
-8.60558e-12
-0.000109148
-1.03485e-11
-0.000109148
-9.19842e-12
-0.000109148
-1.07817e-11
-0.000109148
-8.83282e-12
-0.000109148
-1.02968e-11
-0.000109148
-7.73689e-12
-0.000109148
-8.85641e-12
-0.000109148
-6.08014e-12
-0.000109148
-6.78644e-12
-0.000109148
-4.15565e-12
-0.000109148
-4.3711e-12
-0.000109148
-1.37373e-12
-3.86725e-13
-0.000115812
-1.29922e-14
-0.000115812
-1.28077e-12
-0.000115812
-3.36051e-12
-0.000115812
-7.03684e-12
-0.000115812
-8.5107e-12
-0.000115812
-9.78142e-12
-0.000115812
-1.04622e-11
-0.000115812
-1.16203e-11
-0.000115812
-1.1135e-11
-0.000115812
-1.21158e-11
-0.000115812
-1.06498e-11
-0.000115812
-1.15774e-11
-0.000115812
-9.29876e-12
-0.000115812
-9.97229e-12
-0.000115812
-7.22693e-12
-0.000115812
-7.68069e-12
-0.000115812
-4.93915e-12
-0.000115812
-4.89174e-12
-0.000115812
-1.36604e-12
-2.37462e-13
-0.000116143
-4.5064e-14
-0.000116143
-9.80285e-13
-0.000116143
-3.9001e-12
-0.000116143
-7.5865e-12
-0.000116143
-9.79205e-12
-0.000116143
-1.05574e-11
-0.000116143
-1.19994e-11
-0.000116143
-1.25555e-11
-0.000116143
-1.27275e-11
-0.000116143
-1.30924e-11
-0.000116143
-1.21378e-11
-0.000116143
-1.25068e-11
-0.000116143
-1.05751e-11
-0.000116143
-1.07826e-11
-0.000116143
-8.14312e-12
-0.000116143
-8.33044e-12
-0.000116143
-5.58673e-12
-0.000116143
-5.23359e-12
-0.000116143
-1.25471e-12
-3.07819e-14
-0.000110142
-7.6652e-14
-0.000110142
-7.06068e-13
-0.000110142
-4.35268e-12
-0.000110142
-7.96026e-12
-0.000110142
-1.0814e-11
-0.000110142
-1.10744e-11
-0.000110142
-1.32055e-11
-0.000110142
-1.31728e-11
-0.000110142
-1.39648e-11
-0.000110142
-1.37274e-11
-0.000110142
-1.3288e-11
-0.000110142
-1.30978e-11
-0.000110142
-1.15569e-11
-0.000110142
-1.1297e-11
-0.000110142
-8.82686e-12
-0.000110142
-8.73504e-12
-0.000110142
-6.09053e-12
-0.000110142
-5.4107e-12
-0.000110142
-1.06705e-12
2.09837e-13
-9.78075e-05
-1.26083e-13
-9.78075e-05
-5.12344e-13
-9.78075e-05
-4.72617e-12
-9.78075e-05
-8.15662e-12
-9.78075e-05
-1.15619e-11
-9.78075e-05
-1.13335e-11
-9.78075e-05
-1.40578e-11
-9.78075e-05
-1.34723e-11
-9.78075e-05
-1.48248e-11
-9.78075e-05
-1.402e-11
-9.78075e-05
-1.40796e-11
-9.78075e-05
-1.33513e-11
-9.78075e-05
-1.2224e-11
-9.78075e-05
-1.15167e-11
-9.78075e-05
-9.2684e-12
-9.78075e-05
-8.89241e-12
-9.78075e-05
-6.43245e-12
-9.78075e-05
-5.44037e-12
-9.78075e-05
-8.32714e-13
4.55485e-13
-7.91403e-05
-2.04074e-13
-7.91403e-05
-4.3534e-13
-7.91403e-05
-5.02632e-12
-7.91403e-05
-8.16952e-12
-7.91403e-05
-1.20204e-11
-7.91403e-05
-1.13312e-11
-7.91403e-05
-1.45354e-11
-7.91403e-05
-1.34486e-11
-7.91403e-05
-1.52866e-11
-7.91403e-05
-1.39657e-11
-7.91403e-05
-1.4492e-11
-7.91403e-05
-1.32668e-11
-7.91403e-05
-1.25551e-11
-7.91403e-05
-1.14413e-11
-7.91403e-05
-9.45699e-12
-7.91403e-05
-8.80316e-12
-7.91403e-05
-6.58906e-12
-7.91403e-05
-5.33927e-12
-7.91403e-05
-5.8192e-13
6.76586e-13
-5.41403e-05
-3.10611e-13
-5.41403e-05
-4.92539e-13
-5.41403e-05
-5.2595e-12
-5.41403e-05
-7.99683e-12
-5.41403e-05
-1.21794e-11
-5.41403e-05
-1.10687e-11
-5.41403e-05
-1.46269e-11
-5.41403e-05
-1.31017e-11
-5.41403e-05
-1.53396e-11
-5.41403e-05
-1.35658e-11
-5.41403e-05
-1.45129e-11
-5.41403e-05
-1.28494e-11
-5.41403e-05
-1.25375e-11
-5.41403e-05
-1.10738e-11
-5.41403e-05
-9.38761e-12
-5.41403e-05
-8.47489e-12
-5.41403e-05
-6.53902e-12
-5.41403e-05
-5.12155e-12
-5.41403e-05
-3.43575e-13
8.47338e-13
-2.28075e-05
-4.33607e-13
-2.28075e-05
-6.78648e-13
-2.28075e-05
-5.42826e-12
-2.28075e-05
-7.6439e-12
-2.28075e-05
-1.20329e-11
-2.28075e-05
-1.05547e-11
-2.28075e-05
-1.4332e-11
-2.28075e-05
-1.24401e-11
-2.28075e-05
-1.49852e-11
-2.28075e-05
-1.28315e-11
-2.28075e-05
-1.41423e-11
-2.28075e-05
-1.21138e-11
-2.28075e-05
-1.2171e-11
-2.28075e-05
-1.04245e-11
-2.28075e-05
-9.06427e-12
-2.28075e-05
-7.92411e-12
-2.28075e-05
-6.2706e-12
-2.28075e-05
-4.79692e-12
-2.28075e-05
-1.44115e-13
9.4985e-13
1.48581e-05
-5.50234e-13
1.48581e-05
-9.60797e-13
1.48581e-05
-5.5211e-12
1.48581e-05
-7.12208e-12
1.48581e-05
-1.1574e-11
1.48581e-05
-9.80315e-12
1.48581e-05
-1.36564e-11
1.48581e-05
-1.14808e-11
1.48581e-05
-1.42329e-11
1.48581e-05
-1.17841e-11
1.48581e-05
-1.33903e-11
1.48581e-05
-1.10836e-11
1.48581e-05
-1.14684e-11
1.48581e-05
-9.51124e-12
1.48581e-05
-8.50033e-12
1.48581e-05
-7.17548e-12
1.48581e-05
-5.78866e-12
1.48581e-05
-4.36983e-12
1.48581e-05
-6.1065e-15
9.7716e-13
5.88565e-05
-6.31627e-13
5.88565e-05
-1.27694e-12
5.88565e-05
-5.49883e-12
5.88565e-05
-6.44225e-12
5.88565e-05
-1.0787e-11
5.88565e-05
-8.82607e-12
5.88565e-05
-1.26031e-11
5.88565e-05
-1.02429e-11
5.88565e-05
-1.30924e-11
5.88565e-05
-1.04492e-11
5.88565e-05
-1.22715e-11
5.88565e-05
-9.78569e-12
5.88565e-05
-1.04517e-11
5.88565e-05
-8.35712e-12
5.88565e-05
-7.7161e-12
5.88565e-05
-6.25743e-12
5.88565e-05
-5.11958e-12
5.88565e-05
-3.83971e-12
5.88565e-05
5.29916e-14
9.34148e-13
0.000109188
-6.55019e-13
0.000109188
-1.54326e-12
0.000109188
-5.29085e-12
0.000109188
-5.61007e-12
0.000109188
-9.64737e-12
0.000109188
-7.62798e-12
0.000109188
-1.11679e-11
0.000109188
-8.74292e-12
0.000109188
-1.15671e-11
0.000109188
-8.85058e-12
0.000109188
-1.07983e-11
0.000109188
-8.24456e-12
0.000109188
-9.14488e-12
0.000109188
-6.98669e-12
0.000109188
-6.73262e-12
0.000109188
-5.19482e-12
0.000109188
-4.30935e-12
0.000109188
-3.20083e-12
0.000109188
2.70814e-14
8.38054e-13
0.000165852
-6.07352e-13
0.000165852
-1.66094e-12
0.000165852
-4.78488e-12
0.000165852
-4.60412e-12
0.000165852
-8.10254e-12
0.000165852
-6.17816e-12
0.000165852
-9.30888e-12
0.000165852
-6.961e-12
0.000165852
-9.62048e-12
0.000165852
-6.97421e-12
0.000165852
-8.94679e-12
0.000165852
-6.44738e-12
0.000165852
-7.53993e-12
0.000165852
-5.3966e-12
0.000165852
-5.54396e-12
0.000165852
-3.98209e-12
0.000165852
-3.4015e-12
0.000165852
-2.43369e-12
0.000165852
-6.21137e-14
7.19747e-13
0.000228849
-4.8728e-13
0.000228849
-1.52777e-12
0.000228849
-3.84211e-12
0.000228849
-3.3489e-12
0.000228849
-6.06666e-12
0.000228849
-4.3764e-12
0.000228849
-6.92624e-12
0.000228849
-4.79746e-12
0.000228849
-7.14554e-12
0.000228849
-4.72022e-12
0.000228849
-6.61886e-12
0.000228849
-4.29889e-12
0.000228849
-5.55511e-12
0.000228849
-3.51484e-12
0.000228849
-4.07936e-12
0.000228849
-2.55185e-12
0.000228849
-2.39283e-12
0.000228849
-1.4916e-12
0.000228849
-1.38637e-13
6.30733e-13
0.000298178
-3.74585e-13
0.000298178
-1.17111e-12
0.000298178
-2.50197e-12
0.000298178
-1.92754e-12
0.000298178
-3.66597e-12
0.000298178
-2.33479e-12
0.000298178
-4.13819e-12
0.000298178
-2.38575e-12
0.000298178
-4.24594e-12
0.000298178
-2.21921e-12
0.000298178
-3.89957e-12
0.000298178
-1.91552e-12
0.000298178
-3.24686e-12
0.000298178
-1.44434e-12
0.000298178
-2.36165e-12
0.000298178
-9.59989e-13
0.000298178
-1.30575e-12
0.000298178
-4.20674e-13
0.000298178
-1.05201e-13
6.03157e-13
0.000373841
-1.78784e-13
0.000373841
-4.88275e-13
0.000373841
-7.18358e-13
0.000373841
-1.98168e-13
0.000373841
-8.50521e-13
0.000373841
1.03199e-13
0.000373841
-8.46992e-13
0.000373841
4.4173e-13
0.000373841
-7.98607e-13
0.000373841
6.95721e-13
0.000373841
-6.49179e-13
0.000373841
8.47161e-13
0.000373841
-4.67939e-13
0.000373841
9.27494e-13
0.000373841
-2.56954e-13
0.000373841
8.70631e-13
0.000373841
-1.01731e-14
0.000373841
7.74902e-13
0.000373841
1.93806e-13
6.7853e-13
0.000455836
0.000455836
0.000455836
0.000455836
0.000455836
0.000455836
0.000455836
0.000455836
0.000455836
0.000455836
0.000455836
0.000455836
0.000455836
0.000455836
0.000455836
0.000455836
0.000455836
0.000455836
0.000455836
)
;

boundaryField
{
    top
    {
        type            calculated;
        value           uniform 0;
    }
    bottom
    {
        type            calculated;
        value           uniform 0;
    }
    inlet
    {
        type            calculated;
        value           nonuniform List<scalar> 
20
(
1.9164e-05
5.11593e-05
7.68218e-05
9.61514e-05
0.000109148
0.000115812
0.000116143
0.000110142
9.78075e-05
7.91403e-05
5.41403e-05
2.28075e-05
-1.48581e-05
-5.88565e-05
-0.000109188
-0.000165852
-0.000228849
-0.000298178
-0.000373841
-0.000455836
)
;
    }
    outlet
    {
        type            calculated;
        value           nonuniform List<scalar> 
20
(
-1.9164e-05
-5.11593e-05
-7.68218e-05
-9.61514e-05
-0.000109148
-0.000115812
-0.000116143
-0.000110142
-9.78075e-05
-7.91403e-05
-5.41403e-05
-2.28075e-05
1.48581e-05
5.88565e-05
0.000109188
0.000165852
0.000228849
0.000298178
0.000373841
0.000455836
)
;
    }
    frontAndBack
    {
        type            empty;
        value           nonuniform 0();
    }
}


// ************************************************************************* //
