/*--------------------------------*- C++ -*----------------------------------*\
| =========                 |                                                 |
| \\      /  F ield         | OpenFOAM: The Open Source CFD Toolbox           |
|  \\    /   O peration     | Version:  4.1                                   |
|   \\  /    A nd           | Web:      www.OpenFOAM.org                      |
|    \\/     M anipulation  |                                                 |
\*---------------------------------------------------------------------------*/
FoamFile
{
    version     2.0;
    format      ascii;
    class       volVectorField;
    location    "2.2";
    object      U;
}
// * * * * * * * * * * * * * * * * * * * * * * * * * * * * * * * * * * * * * //

dimensions      [0 1 -1 0 0 0 0];

internalField   nonuniform List<vector> 
400
(
(-0.383281 8.24798e-11 0)
(-0.383281 -2.62701e-10 0)
(-0.383281 -1.81749e-10 0)
(-0.383281 -6.27326e-10 0)
(-0.383281 -4.61126e-10 0)
(-0.383281 -9.05522e-10 0)
(-0.383281 -6.18721e-10 0)
(-0.383281 -1.08128e-09 0)
(-0.383281 -7.04497e-10 0)
(-0.383281 -1.14215e-09 0)
(-0.383281 -7.18262e-10 0)
(-0.383281 -1.09739e-09 0)
(-0.383281 -6.69111e-10 0)
(-0.383281 -9.50367e-10 0)
(-0.383281 -5.74765e-10 0)
(-0.383281 -7.31889e-10 0)
(-0.383281 -4.26926e-10 0)
(-0.383281 -4.79609e-10 0)
(-0.383281 -2.79089e-10 0)
(-0.383281 -1.52395e-10 0)
(-1.02319 9.13263e-10 0)
(-1.02319 -3.09433e-10 0)
(-1.02319 1.44854e-09 0)
(-1.02319 -8.79182e-10 0)
(-1.02319 1.3707e-09 0)
(-1.02319 -1.22354e-09 0)
(-1.02319 1.50876e-09 0)
(-1.02319 -1.51785e-09 0)
(-1.02319 1.50574e-09 0)
(-1.02319 -1.61038e-09 0)
(-1.02319 1.36798e-09 0)
(-1.02319 -1.56775e-09 0)
(-1.02319 1.12114e-09 0)
(-1.02319 -1.34479e-09 0)
(-1.02319 7.2853e-10 0)
(-1.02319 -9.80262e-10 0)
(-1.02319 3.4213e-10 0)
(-1.02319 -6.51041e-10 0)
(-1.02319 -3.34597e-11 0)
(-1.02319 -7.91011e-11 0)
(-1.53644 3.41913e-10 0)
(-1.53644 -1.32468e-09 0)
(-1.53644 -7.80777e-10 0)
(-1.53644 -3.45694e-09 0)
(-1.53644 -2.50745e-09 0)
(-1.53644 -4.81295e-09 0)
(-1.53644 -3.22947e-09 0)
(-1.53644 -5.71768e-09 0)
(-1.53644 -3.56874e-09 0)
(-1.53644 -5.97711e-09 0)
(-1.53644 -3.53461e-09 0)
(-1.53644 -5.71677e-09 0)
(-1.53644 -3.19234e-09 0)
(-1.53644 -4.91657e-09 0)
(-1.53644 -2.66281e-09 0)
(-1.53644 -3.73388e-09 0)
(-1.53644 -1.91482e-09 0)
(-1.53644 -2.44607e-09 0)
(-1.53644 -1.0052e-09 0)
(-1.53644 -5.22925e-10 0)
(-1.92303 3.14666e-10 0)
(-1.92303 -1.45607e-09 0)
(-1.92303 -1.25542e-09 0)
(-1.92303 -4.42775e-09 0)
(-1.92303 -3.83126e-09 0)
(-1.92303 -6.11287e-09 0)
(-1.92303 -4.79262e-09 0)
(-1.92303 -7.24806e-09 0)
(-1.92303 -5.18077e-09 0)
(-1.92303 -7.54937e-09 0)
(-1.92303 -5.02483e-09 0)
(-1.92303 -7.2092e-09 0)
(-1.92303 -4.44136e-09 0)
(-1.92303 -6.18864e-09 0)
(-1.92303 -3.58273e-09 0)
(-1.92303 -4.69824e-09 0)
(-1.92303 -2.48903e-09 0)
(-1.92303 -3.06859e-09 0)
(-1.92303 -1.03719e-09 0)
(-1.92303 -4.0486e-10 0)
(-2.18296 1.1431e-10 0)
(-2.18296 -1.55947e-09 0)
(-2.18296 -2.29546e-09 0)
(-2.18296 -5.74083e-09 0)
(-2.18296 -6.03678e-09 0)
(-2.18296 -7.95347e-09 0)
(-2.18296 -7.46837e-09 0)
(-2.18296 -9.43082e-09 0)
(-2.18296 -8.00439e-09 0)
(-2.18296 -9.82562e-09 0)
(-2.18296 -7.70474e-09 0)
(-2.18296 -9.38512e-09 0)
(-2.18296 -6.76198e-09 0)
(-2.18296 -8.06983e-09 0)
(-2.18296 -5.34833e-09 0)
(-2.18296 -6.16898e-09 0)
(-2.18296 -3.66195e-09 0)
(-2.18296 -4.00021e-09 0)
(-2.18296 -1.31025e-09 0)
(-2.18296 -4.26297e-10 0)
(-2.31625 2.78818e-11 0)
(-2.31625 -1.38696e-09 0)
(-2.31625 -3.01933e-09 0)
(-2.31625 -6.62818e-09 0)
(-2.31625 -7.73062e-09 0)
(-2.31625 -9.20449e-09 0)
(-2.31625 -9.51767e-09 0)
(-2.31625 -1.09298e-08 0)
(-2.31625 -1.01478e-08 0)
(-2.31625 -1.13937e-08 0)
(-2.31625 -9.72038e-09 0)
(-2.31625 -1.08881e-08 0)
(-2.31625 -8.49595e-09 0)
(-2.31625 -9.37458e-09 0)
(-2.31625 -6.63465e-09 0)
(-2.31625 -7.20495e-09 0)
(-2.31625 -4.52916e-09 0)
(-2.31625 -4.62259e-09 0)
(-2.31625 -1.36414e-09 0)
(-2.31625 -3.1436e-10 0)
(-2.32287 -1.16831e-11 0)
(-2.32287 -1.10148e-09 0)
(-2.32287 -3.60247e-09 0)
(-2.32287 -7.2813e-09 0)
(-2.32287 -9.13142e-09 0)
(-2.32287 -1.01234e-08 0)
(-2.32287 -1.12061e-08 0)
(-2.32287 -1.20343e-08 0)
(-2.32287 -1.1902e-08 0)
(-2.32287 -1.2548e-08 0)
(-2.32287 -1.13619e-08 0)
(-2.32287 -1.19898e-08 0)
(-2.32287 -9.90525e-09 0)
(-2.32287 -1.03324e-08 0)
(-2.32287 -7.65691e-09 0)
(-2.32287 -7.9717e-09 0)
(-2.32287 -5.23945e-09 0)
(-2.32287 -5.04404e-09 0)
(-2.32287 -1.29406e-09 0)
(-2.32287 -1.28968e-10 0)
(-2.20284 -3.67066e-11 0)
(-2.20284 -8.0685e-10 0)
(-2.20284 -4.0948e-09 0)
(-2.20284 -7.7521e-09 0)
(-2.20284 -1.0286e-08 0)
(-2.20284 -1.07796e-08 0)
(-2.20284 -1.25821e-08 0)
(-2.20284 -1.28217e-08 0)
(-2.20284 -1.33208e-08 0)
(-2.20284 -1.33648e-08 0)
(-2.20284 -1.26843e-08 0)
(-2.20284 -1.27596e-08 0)
(-2.20284 -1.10373e-08 0)
(-2.20284 -1.10024e-08 0)
(-2.20284 -8.45813e-09 0)
(-2.20284 -8.50437e-09 0)
(-2.20284 -5.81755e-09 0)
(-2.20284 -5.30352e-09 0)
(-2.20284 -1.13564e-09 0)
(-2.20284 9.91515e-11 0)
(-1.95615 -7.01717e-11 0)
(-1.95615 -5.63513e-10 0)
(-1.95615 -4.50136e-09 0)
(-1.95615 -8.03933e-09 0)
(-1.95615 -1.1167e-08 0)
(-1.95615 -1.117e-08 0)
(-1.95615 -1.3607e-08 0)
(-1.95615 -1.3283e-08 0)
(-1.95615 -1.43642e-08 0)
(-1.95615 -1.38314e-08 0)
(-1.95615 -1.365e-08 0)
(-1.95615 -1.31839e-08 0)
(-1.95615 -1.18574e-08 0)
(-1.95615 -1.13708e-08 0)
(-1.95615 -9.01638e-09 0)
(-1.95615 -8.78624e-09 0)
(-1.95615 -6.23961e-09 0)
(-1.95615 -5.4041e-09 0)
(-1.95615 -9.14778e-10 0)
(-1.95615 3.49739e-10 0)
(-1.58281 -1.28808e-10 0)
(-1.58281 -4.19392e-10 0)
(-1.58281 -4.83252e-09 0)
(-1.58281 -8.14312e-09 0)
(-1.58281 -1.17663e-08 0)
(-1.58281 -1.12991e-08 0)
(-1.58281 -1.42674e-08 0)
(-1.58281 -1.3423e-08 0)
(-1.58281 -1.50203e-08 0)
(-1.58281 -1.39533e-08 0)
(-1.58281 -1.42477e-08 0)
(-1.58281 -1.3271e-08 0)
(-1.58281 -1.23533e-08 0)
(-1.58281 -1.14458e-08 0)
(-1.58281 -9.32842e-09 0)
(-1.58281 -8.82247e-09 0)
(-1.58281 -6.48973e-09 0)
(-1.58281 -5.36804e-09 0)
(-1.58281 -6.64638e-10 0)
(-1.58281 5.90318e-10 0)
(-1.08281 -2.19689e-10 0)
(-1.08281 -4.03371e-10 0)
(-1.08281 -5.09534e-09 0)
(-1.08281 -8.06096e-09 0)
(-1.08281 -1.20722e-08 0)
(-1.08281 -1.11677e-08 0)
(-1.08281 -1.45485e-08 0)
(-1.08281 -1.32408e-08 0)
(-1.08281 -1.52745e-08 0)
(-1.08281 -1.37305e-08 0)
(-1.08281 -1.44619e-08 0)
(-1.08281 -1.30246e-08 0)
(-1.08281 -1.25087e-08 0)
(-1.08281 -1.12296e-08 0)
(-1.08281 -9.38695e-09 0)
(-1.08281 -8.6178e-09 0)
(-1.08281 -6.54546e-09 0)
(-1.08281 -5.21137e-09 0)
(-1.08281 -4.16015e-10 0)
(-1.08281 7.91677e-10 0)
(-0.456151 -3.37747e-10 0)
(-0.45615 -5.23739e-10 0)
(-0.45615 -5.2959e-09 0)
(-0.45615 -7.79553e-09 0)
(-0.45615 -1.20778e-08 0)
(-0.45615 -1.07811e-08 0)
(-0.45615 -1.44454e-08 0)
(-0.45615 -1.27408e-08 0)
(-0.45615 -1.51229e-08 0)
(-0.45615 -1.31692e-08 0)
(-0.45615 -1.42871e-08 0)
(-0.45615 -1.24546e-08 0)
(-0.45615 -1.23171e-08 0)
(-0.45615 -1.07285e-08 0)
(-0.45615 -9.19133e-09 0)
(-0.45615 -8.18377e-09 0)
(-0.45615 -6.3892e-09 0)
(-0.45615 -4.94579e-09 0)
(-0.45615 -1.96837e-10 0)
(-0.45615 9.30892e-10 0)
(0.297162 -4.65493e-10 0)
(0.297162 -7.6294e-10 0)
(0.297162 -5.4315e-09 0)
(0.297162 -7.35602e-09 0)
(0.297162 -1.1777e-08 0)
(0.297162 -1.01509e-08 0)
(0.297162 -1.39605e-08 0)
(0.297162 -1.1935e-08 0)
(0.297162 -1.45703e-08 0)
(0.297162 -1.22844e-08 0)
(0.297162 -1.37268e-08 0)
(0.297162 -1.15786e-08 0)
(0.297162 -1.17833e-08 0)
(0.297162 -9.95474e-09 0)
(0.297162 -8.74862e-09 0)
(0.297162 -7.53972e-09 0)
(0.297162 -6.01502e-09 0)
(0.297162 -4.57709e-09 0)
(0.297162 -3.0766e-11 0)
(0.297162 9.95091e-10 0)
(1.17713 -5.71086e-10 0)
(1.17713 -1.07106e-09 0)
(1.17713 -5.47168e-09 0)
(1.17713 -6.74809e-09 0)
(1.17713 -1.11504e-08 0)
(1.17713 -9.28165e-09 0)
(1.17713 -1.30888e-08 0)
(1.17713 -1.08316e-08 0)
(1.17713 -1.36162e-08 0)
(1.17713 -1.10891e-08 0)
(1.17713 -1.27838e-08 0)
(1.17713 -1.04119e-08 0)
(1.17713 -1.0916e-08 0)
(1.17713 -8.92001e-09 0)
(1.17713 -8.06927e-09 0)
(1.17713 -6.70568e-09 0)
(1.17713 -5.43329e-09 0)
(1.17713 -4.10353e-09 0)
(1.17713 6.51626e-11 0)
(1.17713 9.83756e-10 0)
(2.18375 -6.40477e-10 0)
(2.18375 -1.38278e-09 0)
(2.18375 -5.38507e-09 0)
(2.18375 -5.99999e-09 0)
(2.18375 -1.02058e-08 0)
(2.18375 -8.20758e-09 0)
(2.18375 -1.18618e-08 0)
(2.18375 -9.47725e-09 0)
(2.18375 -1.22989e-08 0)
(2.18375 -9.63788e-09 0)
(2.18375 -1.14997e-08 0)
(2.18375 -9.00817e-09 0)
(2.18375 -9.76146e-09 0)
(2.18375 -7.67113e-09 0)
(2.18375 -7.18978e-09 0)
(2.18375 -5.72718e-09 0)
(2.18375 -4.68827e-09 0)
(2.18375 -3.5288e-09 0)
(2.18375 7.32641e-11 0)
(2.18375 9.0806e-10 0)
(3.31704 -6.33237e-10 0)
(3.31704 -1.59064e-09 0)
(3.31704 -5.04325e-09 0)
(3.31704 -5.07464e-09 0)
(3.31704 -8.8589e-09 0)
(3.31704 -6.87462e-09 0)
(3.31704 -1.0204e-08 0)
(3.31704 -7.82389e-09 0)
(3.31704 -1.0549e-08 0)
(3.31704 -7.88732e-09 0)
(3.31704 -9.82097e-09 0)
(3.31704 -7.32749e-09 0)
(3.31704 -8.28797e-09 0)
(3.31704 -6.18028e-09 0)
(3.31704 -6.08909e-09 0)
(3.31704 -4.5836e-09 0)
(3.31704 -3.80959e-09 0)
(3.31704 -2.82603e-09 0)
(3.31704 1.26589e-11 0)
(3.31704 7.93888e-10 0)
(4.57697 -4.72518e-10 0)
(4.57697 -1.49415e-09 0)
(4.57697 -4.19275e-09 0)
(4.57697 -3.74822e-09 0)
(4.57697 -6.85144e-09 0)
(4.57697 -4.97931e-09 0)
(4.57697 -7.82193e-09 0)
(4.57697 -5.5355e-09 0)
(4.57697 -8.06017e-09 0)
(4.57697 -5.49601e-09 0)
(4.57697 -7.46127e-09 0)
(4.57697 -5.04809e-09 0)
(4.57697 -6.25576e-09 0)
(4.57697 -4.17979e-09 0)
(4.57697 -4.57532e-09 0)
(4.57697 -3.06658e-09 0)
(4.57697 -2.7181e-09 0)
(4.57697 -1.84394e-09 0)
(4.57697 -3.38096e-11 0)
(4.57697 7.21937e-10 0)
(5.96356 -6.82184e-10 0)
(5.96356 -1.72052e-09 0)
(5.96356 -3.65701e-09 0)
(5.96356 -3.3146e-09 0)
(5.96356 -5.55505e-09 0)
(5.96356 -4.28146e-09 0)
(5.96356 -6.36382e-09 0)
(5.96356 -4.6686e-09 0)
(5.96356 -6.58367e-09 0)
(5.96356 -4.58622e-09 0)
(5.96356 -6.12223e-09 0)
(5.96356 -4.16107e-09 0)
(5.96356 -5.1612e-09 0)
(5.96356 -3.38413e-09 0)
(5.96356 -3.8266e-09 0)
(5.96356 -2.44197e-09 0)
(5.96356 -2.24929e-09 0)
(5.96356 -1.39652e-09 0)
(5.96356 -3.33794e-10 0)
(5.96356 4.62258e-10 0)
(7.47681 -3.01651e-11 0)
(7.47681 -5.38732e-10 0)
(7.47681 -1.2008e-09 0)
(7.47681 -3.88615e-10 0)
(7.47681 -1.59053e-09 0)
(7.47681 -1.79374e-10 0)
(7.47681 -1.70784e-09 0)
(7.47681 1.36562e-10 0)
(7.47681 -1.70672e-09 0)
(7.47681 3.9271e-10 0)
(7.47681 -1.49323e-09 0)
(7.47681 5.58627e-10 0)
(7.47681 -1.18849e-09 0)
(7.47681 6.90869e-10 0)
(7.47681 -7.95149e-10 0)
(7.47681 6.63855e-10 0)
(7.47681 -3.17727e-10 0)
(7.47681 6.57045e-10 0)
(7.47681 1.202e-10 0)
(7.47681 7.67814e-10 0)
(9.11672 -2.88191e-10 0)
(9.11672 -5.52497e-10 0)
(9.11672 -7.73288e-10 0)
(9.11672 -8.08184e-10 0)
(9.11672 -1.07084e-09 0)
(9.11672 -9.61769e-10 0)
(9.11672 -1.23217e-09 0)
(9.11672 -9.97095e-10 0)
(9.11672 -1.28091e-09 0)
(9.11672 -9.41457e-10 0)
(9.11672 -1.19913e-09 0)
(9.11672 -8.14878e-10 0)
(9.11672 -1.02118e-09 0)
(9.11672 -6.23475e-10 0)
(9.11672 -7.73172e-10 0)
(9.11672 -4.08814e-10 0)
(9.11672 -4.61257e-10 0)
(9.11672 -1.75345e-10 0)
(9.11672 -1.37527e-10 0)
(9.11672 1.26811e-10 0)
)
;

boundaryField
{
    top
    {
        type            fixedValue;
        value           uniform (10 0 0);
    }
    bottom
    {
        type            fixedValue;
        value           uniform (0 0 0);
    }
    inlet
    {
        type            zeroGradient;
    }
    outlet
    {
        type            zeroGradient;
    }
    frontAndBack
    {
        type            empty;
    }
}


// ************************************************************************* //
