/*--------------------------------*- C++ -*----------------------------------*\
| =========                 |                                                 |
| \\      /  F ield         | OpenFOAM: The Open Source CFD Toolbox           |
|  \\    /   O peration     | Version:  4.1                                   |
|   \\  /    A nd           | Web:      www.OpenFOAM.org                      |
|    \\/     M anipulation  |                                                 |
\*---------------------------------------------------------------------------*/
FoamFile
{
    version     2.0;
    format      ascii;
    class       volScalarField;
    location    "0.7";
    object      p;
}
// * * * * * * * * * * * * * * * * * * * * * * * * * * * * * * * * * * * * * //

dimensions      [0 2 -2 0 0 0 0];

internalField   nonuniform List<scalar> 
400
(
2.44463e-06
1.98063e-06
1.2184e-06
1.37699e-06
1.02334e-06
1.17604e-06
9.39642e-07
1.02457e-06
8.5942e-07
8.84464e-07
7.74656e-07
7.49463e-07
6.86724e-07
6.17455e-07
5.98836e-07
4.90879e-07
5.2847e-07
4.2466e-07
6.65291e-07
1.02208e-06
2.43346e-06
1.96866e-06
1.21689e-06
1.37655e-06
1.02328e-06
1.17597e-06
9.3966e-07
1.02455e-06
8.59435e-07
8.84452e-07
7.74662e-07
7.49461e-07
6.8672e-07
6.17459e-07
5.98814e-07
4.9085e-07
5.28217e-07
4.24303e-07
6.55904e-07
1.01262e-06
2.42564e-06
1.95854e-06
1.21522e-06
1.37637e-06
1.02308e-06
1.17604e-06
9.39575e-07
1.0246e-06
8.59389e-07
8.84485e-07
7.74641e-07
7.49471e-07
6.86718e-07
6.17447e-07
5.98828e-07
4.90793e-07
5.28055e-07
4.23649e-07
6.47198e-07
1.0048e-06
2.42027e-06
1.95073e-06
1.21353e-06
1.37628e-06
1.02289e-06
1.17612e-06
9.3948e-07
1.02467e-06
8.59336e-07
8.84522e-07
7.74617e-07
7.49482e-07
6.86718e-07
6.17433e-07
5.98851e-07
4.90749e-07
5.27928e-07
4.22671e-07
6.39745e-07
9.9858e-07
2.41628e-06
1.94464e-06
1.21188e-06
1.37619e-06
1.02274e-06
1.17619e-06
9.39406e-07
1.02472e-06
8.59294e-07
8.84551e-07
7.74598e-07
7.4949e-07
6.86718e-07
6.17422e-07
5.98873e-07
4.90727e-07
5.27819e-07
4.21489e-07
6.33209e-07
9.93268e-07
2.41312e-06
1.93963e-06
1.21025e-06
1.37611e-06
1.02261e-06
1.17624e-06
9.39347e-07
1.02476e-06
8.59262e-07
8.84573e-07
7.74584e-07
7.49496e-07
6.86718e-07
6.17414e-07
5.98895e-07
4.90725e-07
5.27723e-07
4.20132e-07
6.27275e-07
9.88542e-07
2.41072e-06
1.93559e-06
1.20866e-06
1.37605e-06
1.02252e-06
1.17628e-06
9.393e-07
1.02479e-06
8.59236e-07
8.84591e-07
7.74572e-07
7.49501e-07
6.86718e-07
6.17408e-07
5.98917e-07
4.9074e-07
5.27644e-07
4.1866e-07
6.2193e-07
9.84363e-07
2.40896e-06
1.93241e-06
1.20717e-06
1.37599e-06
1.02245e-06
1.17631e-06
9.39265e-07
1.02481e-06
8.59217e-07
8.84604e-07
7.74564e-07
7.49504e-07
6.86718e-07
6.17403e-07
5.98939e-07
4.9077e-07
5.27581e-07
4.1714e-07
6.17136e-07
9.80648e-07
2.4077e-06
1.92998e-06
1.20581e-06
1.37593e-06
1.02241e-06
1.17634e-06
9.39242e-07
1.02483e-06
8.59204e-07
8.84612e-07
7.74559e-07
7.49506e-07
6.86719e-07
6.17401e-07
5.98962e-07
4.90815e-07
5.27532e-07
4.15632e-07
6.12814e-07
9.77276e-07
2.40679e-06
1.92816e-06
1.20464e-06
1.37587e-06
1.02239e-06
1.17635e-06
9.39231e-07
1.02484e-06
8.59198e-07
8.84616e-07
7.74556e-07
7.49506e-07
6.86719e-07
6.174e-07
5.98983e-07
4.90873e-07
5.27491e-07
4.14195e-07
6.08863e-07
9.74112e-07
2.40612e-06
1.92686e-06
1.20368e-06
1.37581e-06
1.02239e-06
1.17635e-06
9.39232e-07
1.02483e-06
8.59199e-07
8.84615e-07
7.74557e-07
7.49505e-07
6.86719e-07
6.17402e-07
5.99003e-07
4.9094e-07
5.27455e-07
4.12879e-07
6.05173e-07
9.71028e-07
2.40561e-06
1.92603e-06
1.20297e-06
1.37574e-06
1.02242e-06
1.17634e-06
9.39245e-07
1.02483e-06
8.59206e-07
8.8461e-07
7.74561e-07
7.49503e-07
6.8672e-07
6.17405e-07
5.99022e-07
4.91015e-07
5.2742e-07
4.11725e-07
6.01636e-07
9.67899e-07
2.4052e-06
1.92562e-06
1.20254e-06
1.37567e-06
1.02248e-06
1.17632e-06
9.3927e-07
1.02481e-06
8.59221e-07
8.846e-07
7.74568e-07
7.495e-07
6.8672e-07
6.17411e-07
5.99038e-07
4.91096e-07
5.27383e-07
4.10763e-07
5.98143e-07
9.64615e-07
2.4049e-06
1.92565e-06
1.2024e-06
1.37561e-06
1.02256e-06
1.1763e-06
9.39308e-07
1.02478e-06
8.59241e-07
8.84585e-07
7.74577e-07
7.49495e-07
6.86721e-07
6.17418e-07
5.99051e-07
4.9118e-07
5.27342e-07
4.10014e-07
5.94598e-07
9.6108e-07
2.40474e-06
1.92616e-06
1.20253e-06
1.37556e-06
1.02266e-06
1.17626e-06
9.39357e-07
1.02475e-06
8.59268e-07
8.84566e-07
7.7459e-07
7.49488e-07
6.86722e-07
6.17427e-07
5.99061e-07
4.91265e-07
5.27297e-07
4.09487e-07
5.90921e-07
9.57223e-07
2.40477e-06
1.92719e-06
1.20293e-06
1.37552e-06
1.02279e-06
1.17621e-06
9.39418e-07
1.02471e-06
8.59302e-07
8.84542e-07
7.74606e-07
7.49481e-07
6.86722e-07
6.17438e-07
5.99067e-07
4.91349e-07
5.27247e-07
4.09177e-07
5.87066e-07
9.53005e-07
2.40506e-06
1.92886e-06
1.20357e-06
1.37549e-06
1.02295e-06
1.17614e-06
9.39493e-07
1.02465e-06
8.59344e-07
8.84512e-07
7.74625e-07
7.49472e-07
6.86723e-07
6.17451e-07
5.99067e-07
4.91431e-07
5.27193e-07
4.09073e-07
5.83016e-07
9.48393e-07
2.40607e-06
1.93172e-06
1.20445e-06
1.37548e-06
1.02315e-06
1.17606e-06
9.39589e-07
1.02459e-06
8.59398e-07
8.84475e-07
7.74649e-07
7.49461e-07
6.86723e-07
6.17467e-07
5.99061e-07
4.91514e-07
5.27137e-07
4.09163e-07
5.78713e-07
9.43303e-07
2.40859e-06
1.93607e-06
1.20551e-06
1.37556e-06
1.02334e-06
1.176e-06
9.39673e-07
1.02453e-06
8.59444e-07
8.84443e-07
7.7467e-07
7.49451e-07
6.86724e-07
6.17481e-07
5.99057e-07
4.91581e-07
5.27098e-07
4.09463e-07
5.74019e-07
9.37763e-07
2.41409e-06
1.94198e-06
1.20654e-06
1.37591e-06
1.0234e-06
1.17607e-06
9.39653e-07
1.02456e-06
8.59427e-07
8.84456e-07
7.74663e-07
7.49455e-07
6.86727e-07
6.1748e-07
5.99082e-07
4.91599e-07
5.27138e-07
4.09897e-07
5.69418e-07
9.32934e-07
)
;

boundaryField
{
    top
    {
        type            zeroGradient;
    }
    bottom
    {
        type            zeroGradient;
    }
    inlet
    {
        type            fixedValue;
        value           uniform 0;
    }
    outlet
    {
        type            fixedValue;
        value           uniform 0;
    }
    frontAndBack
    {
        type            empty;
    }
}


// ************************************************************************* //
