/*--------------------------------*- C++ -*----------------------------------*\
| =========                 |                                                 |
| \\      /  F ield         | OpenFOAM: The Open Source CFD Toolbox           |
|  \\    /   O peration     | Version:  4.1                                   |
|   \\  /    A nd           | Web:      www.OpenFOAM.org                      |
|    \\/     M anipulation  |                                                 |
\*---------------------------------------------------------------------------*/
FoamFile
{
    version     2.0;
    format      ascii;
    class       surfaceScalarField;
    location    "0.7";
    object      phi;
}
// * * * * * * * * * * * * * * * * * * * * * * * * * * * * * * * * * * * * * //

dimensions      [0 3 -1 0 0 0 0];

internalField   nonuniform List<scalar> 
760
(
1.24649e-06
-4.15552e-12
1.24649e-06
-2.63877e-12
1.24649e-06
6.99521e-14
1.24649e-06
-2.36971e-13
1.24649e-06
1.54317e-13
1.24649e-06
-1.36375e-13
1.24649e-06
1.0656e-13
1.24649e-06
-8.46758e-14
1.24649e-06
6.36707e-14
1.24649e-06
-4.51799e-14
1.24649e-06
2.80491e-14
1.24649e-06
-1.2195e-14
1.24649e-06
-2.98574e-15
1.24649e-06
1.72692e-14
1.24649e-06
-3.28986e-14
1.24649e-06
4.10945e-14
1.24649e-06
-8.83901e-14
1.24649e-06
1.35246e-13
1.24649e-06
-1.99817e-12
-2.90665e-12
3.73955e-06
-1.22546e-11
3.73956e-06
-9.24998e-12
3.73956e-06
-1.87562e-13
3.73956e-06
-5.96085e-13
3.73956e-06
3.1228e-13
3.73956e-06
-3.00663e-13
3.73956e-06
2.27627e-13
3.73956e-06
-1.83078e-13
3.73956e-06
1.36734e-13
3.73956e-06
-9.70479e-14
3.73956e-06
5.98431e-14
3.73956e-06
-2.56461e-14
3.73956e-06
-7.50712e-15
3.73956e-06
3.76264e-14
3.73956e-06
-7.45267e-14
3.73956e-06
7.83406e-14
3.73956e-06
-2.47687e-13
3.73956e-06
3.38095e-13
3.73957e-06
-7.52303e-12
-9.58712e-12
6.23288e-06
-2.14983e-11
6.23289e-06
-1.78301e-11
6.23289e-06
-6.70736e-13
6.23289e-06
-8.85434e-13
6.23289e-06
3.99215e-13
6.23289e-06
-4.06753e-13
6.23289e-06
3.01772e-13
6.23289e-06
-2.44484e-13
6.23289e-06
1.81668e-13
6.23289e-06
-1.2879e-13
6.23289e-06
7.88327e-14
6.23289e-06
-3.30892e-14
6.23289e-06
-1.15511e-14
6.23289e-06
5.14221e-14
6.23289e-06
-1.03132e-13
6.23289e-06
9.52429e-14
6.23289e-06
-4.02912e-13
6.23289e-06
6.1026e-13
6.2329e-06
-1.56098e-11
-1.86042e-11
8.72663e-06
-3.02525e-11
8.72664e-06
-2.65499e-11
8.72664e-06
-1.21177e-12
8.72664e-06
-1.07271e-12
8.72664e-06
4.32523e-13
8.72664e-06
-4.57045e-13
8.72664e-06
3.34721e-13
8.72664e-06
-2.72279e-13
8.72664e-06
2.01503e-13
8.72664e-06
-1.4254e-13
8.72664e-06
8.65508e-14
8.72664e-06
-3.5376e-14
8.72664e-06
-1.46983e-14
8.72664e-06
5.92237e-14
8.72664e-06
-1.18294e-13
8.72664e-06
9.83489e-14
8.72664e-06
-5.34398e-13
8.72664e-06
9.56114e-13
8.72665e-06
-2.51467e-11
-2.88607e-11
1.1221e-05
-3.72873e-11
1.1221e-05
-3.40375e-11
1.1221e-05
-1.72562e-12
1.1221e-05
-1.15653e-12
1.1221e-05
4.20732e-13
1.1221e-05
-4.57648e-13
1.1221e-05
3.31711e-13
1.1221e-05
-2.70549e-13
1.1221e-05
1.99434e-13
1.1221e-05
-1.40644e-13
1.1221e-05
8.45889e-14
1.1221e-05
-3.33974e-14
1.1221e-05
-1.673e-14
1.1221e-05
6.14043e-14
1.1221e-05
-1.21105e-13
1.1221e-05
8.97771e-14
1.1221e-05
-6.37159e-13
1.1221e-05
1.34249e-12
1.1221e-05
-3.50688e-11
-3.92826e-11
1.3716e-05
-4.17372e-11
1.3716e-05
-3.92881e-11
1.3716e-05
-2.13842e-12
1.3716e-05
-1.13978e-12
1.3716e-05
3.72234e-13
1.3716e-05
-4.15591e-13
1.3716e-05
2.98366e-13
1.3716e-05
-2.43787e-13
1.3716e-05
1.78908e-13
1.3716e-05
-1.25619e-13
1.3716e-05
7.46107e-14
1.3716e-05
-2.80362e-14
1.3716e-05
-1.7529e-14
1.3716e-05
5.84884e-14
1.3716e-05
-1.12995e-13
1.3716e-05
7.16292e-14
1.3716e-05
-7.06978e-13
1.3716e-05
1.73409e-12
1.3716e-05
-4.43637e-11
-4.88505e-11
1.62119e-05
-4.31225e-11
1.62119e-05
-4.16926e-11
1.62119e-05
-2.39552e-12
1.62119e-05
-1.03044e-12
1.62119e-05
2.95128e-13
1.62119e-05
-3.38708e-13
1.62119e-05
2.4061e-13
1.62119e-05
-1.96808e-13
1.62119e-05
1.43565e-13
1.62119e-05
-1.00108e-13
1.62119e-05
5.83249e-14
1.62119e-05
-2.01521e-14
1.62119e-05
-1.70808e-14
1.62119e-05
5.11456e-14
1.62119e-05
-9.56975e-14
1.62119e-05
4.59762e-14
1.62119e-05
-7.41032e-13
1.62119e-05
2.0943e-12
1.62119e-05
-5.21451e-11
-5.66745e-11
1.87087e-05
-4.13462e-11
1.87087e-05
-4.10397e-11
1.87087e-05
-2.46512e-12
1.87087e-05
-8.41055e-13
1.87087e-05
1.9737e-13
1.87087e-05
-2.35395e-13
1.87087e-05
1.64603e-13
1.87087e-05
-1.34668e-13
1.87087e-05
9.7188e-14
1.87087e-05
-6.68363e-14
1.87087e-05
3.74594e-14
1.87087e-05
-1.05686e-14
1.87087e-05
-1.54664e-14
1.87087e-05
4.01884e-14
1.87087e-05
-7.11805e-14
1.87087e-05
1.49879e-14
1.87087e-05
-7.37958e-13
1.87087e-05
2.38838e-12
1.87087e-05
-5.77116e-11
-6.2055e-11
2.12065e-05
-3.66699e-11
2.12065e-05
-3.74969e-11
2.12065e-05
-2.34213e-12
2.12065e-05
-5.88868e-13
2.12065e-05
8.66739e-14
2.12065e-05
-1.1447e-13
2.12065e-05
7.66535e-14
2.12065e-05
-6.25791e-14
2.12065e-05
4.36409e-14
2.12065e-05
-2.85775e-14
2.12065e-05
1.374e-14
2.12065e-05
-6.57548e-17
2.12065e-05
-1.28541e-14
2.12065e-05
2.65544e-14
2.12065e-05
-4.15989e-14
2.12065e-05
-1.90863e-14
2.12065e-05
-6.98339e-13
2.12065e-05
2.58621e-12
2.12065e-05
-6.05919e-11
-6.4531e-11
2.37054e-05
-2.9668e-11
2.37054e-05
-3.15663e-11
2.37054e-05
-2.0486e-12
2.37054e-05
-2.95373e-13
2.37054e-05
-2.95293e-14
2.37054e-05
1.49796e-14
2.37054e-05
-1.68613e-14
2.37054e-05
1.41611e-14
2.37054e-05
-1.3175e-14
2.37054e-05
1.18858e-14
2.37054e-05
-1.11279e-14
2.37054e-05
1.06241e-14
2.37054e-05
-9.48765e-15
2.37054e-05
1.12844e-14
2.37054e-05
-9.24818e-15
2.37054e-05
-5.3936e-14
2.37054e-05
-6.25065e-13
2.37054e-05
2.66553e-12
2.37054e-05
-6.05711e-11
-6.39098e-11
2.62054e-05
-2.11593e-11
2.62054e-05
-2.40144e-11
2.62054e-05
-1.63054e-12
2.62054e-05
1.45398e-14
2.62054e-05
-1.44084e-13
2.62054e-05
1.43756e-13
2.62054e-05
-1.09569e-13
2.62054e-05
9.02423e-14
2.62054e-05
-6.93706e-14
2.62054e-05
5.17915e-14
2.62054e-05
-3.54737e-14
2.62054e-05
2.0816e-14
2.62054e-05
-5.67062e-15
2.62054e-05
-4.50447e-15
2.62054e-05
2.34887e-14
2.62054e-05
-8.72203e-14
2.62054e-05
-5.23537e-13
2.62054e-05
2.61485e-12
2.62054e-05
-5.76996e-11
-6.02779e-11
2.87066e-05
-1.21192e-11
2.87065e-05
-1.57804e-11
2.87065e-05
-1.15134e-12
2.87065e-05
3.1389e-13
2.87065e-05
-2.50056e-13
2.87065e-05
2.62712e-13
2.87065e-05
-1.95172e-13
2.87065e-05
1.60412e-13
2.87065e-05
-1.21112e-13
2.87065e-05
8.84268e-14
2.87065e-05
-5.76731e-14
2.87065e-05
2.9869e-14
2.87065e-05
-1.74698e-15
2.87065e-05
-1.96503e-14
2.87065e-05
5.41977e-14
2.87065e-05
-1.16609e-13
2.87065e-05
-4.01672e-13
2.87065e-05
2.43564e-12
2.87065e-05
-5.22818e-11
-5.39913e-11
3.12087e-05
-3.57627e-12
3.12087e-05
-7.86517e-12
3.12087e-05
-6.8205e-13
3.12087e-05
5.7527e-13
3.12087e-05
-3.40636e-13
3.12087e-05
3.62912e-13
3.12087e-05
-2.67509e-13
3.12087e-05
2.1954e-13
3.12087e-05
-1.64661e-13
3.12087e-05
1.19153e-13
3.12087e-05
-7.61559e-14
3.12087e-05
3.71797e-14
3.12087e-05
1.92099e-15
3.12087e-05
-3.29807e-14
3.12087e-05
8.04936e-14
3.12087e-05
-1.39836e-13
3.12087e-05
-2.69667e-13
3.12087e-05
2.14303e-12
3.12087e-05
-4.4847e-11
-4.56468e-11
3.37119e-05
3.50361e-12
3.37119e-05
-1.20643e-12
3.37119e-05
-2.89851e-13
3.37119e-05
7.72691e-13
3.37119e-05
-4.09018e-13
3.37119e-05
4.35789e-13
3.37119e-05
-3.20616e-13
3.37119e-05
2.62683e-13
3.37119e-05
-1.96407e-13
3.37119e-05
1.41428e-13
3.37119e-05
-8.94115e-14
3.37119e-05
4.21729e-14
3.37119e-05
4.97698e-15
3.37119e-05
-4.33497e-14
3.37119e-05
1.00079e-13
3.37119e-05
-1.54769e-13
3.37119e-05
-1.39526e-13
3.37119e-05
1.76497e-12
3.37119e-05
-3.61031e-11
-3.60327e-11
3.6216e-05
8.33924e-12
3.6216e-05
3.45279e-12
3.6216e-05
-2.59359e-14
3.6216e-05
8.83429e-13
3.6216e-05
-4.48268e-13
3.6216e-05
4.7329e-13
3.6216e-05
-3.48772e-13
3.6216e-05
2.85134e-13
3.6216e-05
-2.12903e-13
3.6216e-05
1.52821e-13
3.6216e-05
-9.59901e-14
3.6216e-05
4.42903e-14
3.6216e-05
7.09666e-15
3.6216e-05
-4.96752e-14
3.6216e-05
1.10808e-13
3.6216e-05
-1.59485e-13
3.6216e-05
-2.43466e-14
3.6216e-05
1.3393e-12
3.6216e-05
-2.68748e-11
-2.60638e-11
3.8721e-05
1.04576e-11
3.8721e-05
5.69603e-12
3.8721e-05
8.49934e-14
3.8721e-05
8.89578e-13
3.8721e-05
-4.51234e-13
3.8721e-05
4.68008e-13
3.8721e-05
-3.46549e-13
3.8721e-05
2.82478e-13
3.8721e-05
-2.10887e-13
3.8721e-05
1.51033e-13
3.8721e-05
-9.45034e-14
3.8721e-05
4.29772e-14
3.8721e-05
8.01419e-15
3.8721e-05
-5.09777e-14
3.8721e-05
1.1074e-13
3.8721e-05
-1.52367e-13
3.8721e-05
6.25786e-14
3.8721e-05
9.09126e-13
3.8721e-05
-1.80305e-11
-1.6701e-11
4.12267e-05
9.8119e-12
4.12267e-05
5.55857e-12
4.12267e-05
5.43349e-14
4.12267e-05
7.79882e-13
4.12267e-05
-4.10249e-13
4.12267e-05
4.1339e-13
4.12267e-05
-3.08839e-13
4.12267e-05
2.50652e-13
4.12267e-05
-1.87312e-13
4.12267e-05
1.33907e-13
4.12267e-05
-8.36244e-14
4.12267e-05
3.76718e-14
4.12267e-05
7.55307e-15
4.12267e-05
-4.64058e-14
4.12267e-05
9.82355e-14
4.12267e-05
-1.32108e-13
4.12267e-05
1.09066e-13
4.12267e-05
5.17649e-13
4.12267e-05
-1.03956e-11
-8.85852e-12
4.37329e-05
6.88807e-12
4.37329e-05
3.63435e-12
4.37329e-05
-6.94432e-14
4.37329e-05
5.49868e-13
4.37329e-05
-3.17202e-13
4.37329e-05
3.03806e-13
4.37329e-05
-2.30893e-13
4.37329e-05
1.85977e-13
4.37329e-05
-1.39367e-13
4.37329e-05
9.94403e-14
4.37329e-05
-6.20842e-14
4.37329e-05
2.77903e-14
4.37329e-05
5.65071e-15
4.37329e-05
-3.52718e-14
4.37329e-05
7.19978e-14
4.37329e-05
-9.78203e-14
4.37329e-05
1.05038e-13
4.37329e-05
2.00831e-13
4.37329e-05
-4.66266e-12
-3.30432e-12
4.62396e-05
2.77406e-12
4.62396e-05
1.2004e-12
4.62396e-05
-1.26902e-13
4.62396e-05
2.26918e-13
4.62396e-05
-1.55295e-13
4.62396e-05
1.37221e-13
4.62396e-05
-1.07392e-13
4.62396e-05
8.54274e-14
4.62396e-05
-6.43466e-14
4.62396e-05
4.57969e-14
4.62396e-05
-2.86278e-14
4.62396e-05
1.27478e-14
4.62396e-05
2.50498e-15
4.62396e-05
-1.66823e-14
4.62396e-05
3.21747e-14
4.62396e-05
-4.62891e-14
4.62396e-05
5.17025e-14
4.62396e-05
1.42778e-14
4.62396e-05
-1.1922e-12
-4.80584e-13
4.87465e-05
4.87465e-05
4.87465e-05
4.87465e-05
4.87465e-05
4.87465e-05
4.87465e-05
4.87465e-05
4.87465e-05
4.87465e-05
4.87465e-05
4.87465e-05
4.87465e-05
4.87465e-05
4.87465e-05
4.87465e-05
4.87465e-05
4.87465e-05
4.87465e-05
)
;

boundaryField
{
    top
    {
        type            calculated;
        value           uniform 0;
    }
    bottom
    {
        type            calculated;
        value           uniform 0;
    }
    inlet
    {
        type            calculated;
        value           nonuniform List<scalar> 
20
(
-1.24648e-06
-3.73954e-06
-6.23287e-06
-8.72662e-06
-1.12209e-05
-1.3716e-05
-1.62119e-05
-1.87087e-05
-2.12065e-05
-2.37055e-05
-2.62055e-05
-2.87066e-05
-3.12087e-05
-3.37119e-05
-3.6216e-05
-3.8721e-05
-4.12267e-05
-4.37329e-05
-4.62396e-05
-4.87465e-05
)
;
    }
    outlet
    {
        type            calculated;
        value           nonuniform List<scalar> 
20
(
1.24649e-06
3.73957e-06
6.2329e-06
8.72666e-06
1.1221e-05
1.3716e-05
1.62119e-05
1.87087e-05
2.12065e-05
2.37054e-05
2.62054e-05
2.87065e-05
3.12087e-05
3.37119e-05
3.6216e-05
3.8721e-05
4.12266e-05
4.37329e-05
4.62396e-05
4.87465e-05
)
;
    }
    frontAndBack
    {
        type            empty;
        value           nonuniform 0();
    }
}


// ************************************************************************* //
