/*--------------------------------*- C++ -*----------------------------------*\
| =========                 |                                                 |
| \\      /  F ield         | OpenFOAM: The Open Source CFD Toolbox           |
|  \\    /   O peration     | Version:  4.1                                   |
|   \\  /    A nd           | Web:      www.OpenFOAM.org                      |
|    \\/     M anipulation  |                                                 |
\*---------------------------------------------------------------------------*/
FoamFile
{
    version     2.0;
    format      ascii;
    class       volVectorField;
    location    "0.7";
    object      U;
}
// * * * * * * * * * * * * * * * * * * * * * * * * * * * * * * * * * * * * * //

dimensions      [0 1 -1 0 0 0 0];

internalField   nonuniform List<vector> 
400
(
(0.0249297 -2.00164e-09 0)
(0.0249298 -1.22884e-09 0)
(0.0249298 1.4785e-11 0)
(0.0249298 -1.31533e-10 0)
(0.0249298 7.71947e-11 0)
(0.0249298 -7.19753e-11 0)
(0.0249298 5.51274e-11 0)
(0.0249298 -4.42006e-11 0)
(0.0249298 3.3131e-11 0)
(0.0249298 -2.35709e-11 0)
(0.0249298 1.46461e-11 0)
(0.0249298 -6.43339e-12 0)
(0.0249298 -1.51791e-12 0)
(0.0249298 8.77036e-12 0)
(0.0249298 -1.73234e-11 0)
(0.0249298 2.02935e-11 0)
(0.0249298 -4.921e-11 0)
(0.0249298 3.11006e-11 0)
(0.0249298 -8.02424e-10 0)
(0.0249299 -1.23747e-09 0)
(0.0747909 -7.64271e-09 0)
(0.0747912 -5.25177e-09 0)
(0.0747912 2.83665e-11 0)
(0.0747912 -4.09617e-10 0)
(0.0747912 2.43158e-10 0)
(0.0747912 -2.22905e-10 0)
(0.0747912 1.71848e-10 0)
(0.0747912 -1.37246e-10 0)
(0.0747912 1.02915e-10 0)
(0.0747912 -7.30371e-11 0)
(0.0747912 4.52216e-11 0)
(0.0747912 -1.95514e-11 0)
(0.0747912 -5.15426e-12 0)
(0.0747912 2.80381e-11 0)
(0.0747912 -5.45626e-11 0)
(0.0747912 6.26977e-11 0)
(0.0747912 -1.59319e-10 0)
(0.0747912 2.44134e-10 0)
(0.0747912 -4.05183e-09 0)
(0.0747914 -5.56295e-09 0)
(0.124657 -1.67517e-08 0)
(0.124658 -1.33075e-08 0)
(0.124658 -4.20202e-10 0)
(0.124658 -7.59854e-10 0)
(0.124658 3.64078e-10 0)
(0.124658 -3.63684e-10 0)
(0.124658 2.71724e-10 0)
(0.124658 -2.19656e-10 0)
(0.124658 1.63563e-10 0)
(0.124658 -1.1608e-10 0)
(0.124658 7.13403e-11 0)
(0.124658 -3.03338e-11 0)
(0.124658 -9.62355e-12 0)
(0.124658 4.54245e-11 0)
(0.124658 -9.11299e-11 0)
(0.124658 8.89704e-11 0)
(0.124658 -3.29206e-10 0)
(0.124658 4.35833e-10 0)
(0.124658 -1.10662e-08 0)
(0.124658 -1.36039e-08 0)
(0.174532 -2.61091e-08 0)
(0.174533 -2.22772e-08 0)
(0.174533 -9.30832e-10 0)
(0.174533 -1.00293e-09 0)
(0.174533 4.28954e-10 0)
(0.174533 -4.45069e-10 0)
(0.174533 3.28068e-10 0)
(0.174533 -2.66354e-10 0)
(0.174533 1.97543e-10 0)
(0.174533 -1.39924e-10 0)
(0.174533 8.53512e-11 0)
(0.174533 -3.54309e-11 0)
(0.174533 -1.33627e-11 0)
(0.174533 5.67984e-11 0)
(0.174533 -1.13906e-10 0)
(0.174533 1.0024e-10 0)
(0.174533 -4.74237e-10 0)
(0.174533 7.69331e-10 0)
(0.174533 -2.01109e-08 0)
(0.174533 -2.35184e-08 0)
(0.224419 -3.43286e-08 0)
(0.224419 -3.07435e-08 0)
(0.224419 -1.48788e-09 0)
(0.224419 -1.14128e-09 0)
(0.224419 4.37444e-10 0)
(0.224419 -4.69521e-10 0)
(0.224419 3.41947e-10 0)
(0.224419 -2.78605e-10 0)
(0.224419 2.05787e-10 0)
(0.224419 -1.45385e-10 0)
(0.224419 8.79036e-11 0)
(0.224419 -3.53976e-11 0)
(0.224419 -1.60213e-11 0)
(0.224419 6.17225e-11 0)
(0.224419 -1.22748e-10 0)
(0.224419 9.69019e-11 0)
(0.224419 -5.94014e-10 0)
(0.224419 1.13949e-09 0)
(0.224419 -3.0143e-08 0)
(0.22442 -3.41622e-08 0)
(0.27432 -4.02367e-08 0)
(0.27432 -3.73174e-08 0)
(0.27432 -1.96818e-09 0)
(0.27432 -1.17258e-09 0)
(0.27432 4.04748e-10 0)
(0.27432 -4.46454e-10 0)
(0.27432 3.21963e-10 0)
(0.27432 -2.62902e-10 0)
(0.27432 1.93383e-10 0)
(0.27432 -1.36123e-10 0)
(0.27432 8.14129e-11 0)
(0.27432 -3.14641e-11 0)
(0.27432 -1.74464e-11 0)
(0.27432 6.11538e-11 0)
(0.27432 -1.19585e-10 0)
(0.27432 8.29186e-11 0)
(0.27432 -6.80806e-10 0)
(0.27432 1.53762e-09 0)
(0.27432 -3.99929e-08 0)
(0.27432 -4.4398e-08 0)
(0.324238 -4.32224e-08 0)
(0.324237 -4.12454e-08 0)
(0.324238 -2.31438e-09 0)
(0.324238 -1.10665e-09 0)
(0.324238 3.39813e-10 0)
(0.324238 -3.84802e-10 0)
(0.324238 2.74795e-10 0)
(0.324238 -2.24709e-10 0)
(0.324238 1.64456e-10 0)
(0.324238 -1.15136e-10 0)
(0.324238 6.78218e-11 0)
(0.324238 -2.46175e-11 0)
(0.324238 -1.76108e-11 0)
(0.324238 5.58244e-11 0)
(0.324238 -1.06375e-10 0)
(0.324238 6.04901e-11 0)
(0.324238 -7.3308e-10 0)
(0.324238 1.92245e-09 0)
(0.324238 -4.87298e-08 0)
(0.324238 -5.32926e-08 0)
(0.374174 -4.30038e-08 0)
(0.374174 -4.21239e-08 0)
(0.374174 -2.48223e-09 0)
(0.374174 -9.53557e-10 0)
(0.374174 2.50463e-10 0)
(0.374174 -2.92555e-10 0)
(0.374174 2.06372e-10 0)
(0.374174 -1.68874e-10 0)
(0.374174 1.22648e-10 0)
(0.374174 -8.50617e-11 0)
(0.374174 4.88176e-11 0)
(0.374174 -1.56844e-11 0)
(0.374174 -1.65485e-11 0)
(0.374174 4.64594e-11 0)
(0.374174 -8.49492e-11 0)
(0.374174 3.16534e-11 0)
(0.374174 -7.48594e-10 0)
(0.374174 2.25824e-09 0)
(0.374174 -5.55504e-08 0)
(0.374174 -6.0041e-08 0)
(0.424131 -3.9671e-08 0)
(0.424131 -3.99403e-08 0)
(0.424131 -2.45324e-09 0)
(0.424131 -7.28019e-10 0)
(0.424131 1.44349e-10 0)
(0.424131 -1.78207e-10 0)
(0.424131 1.22818e-10 0)
(0.424131 -1.00453e-10 0)
(0.424131 7.17201e-11 0)
(0.424131 -4.86061e-11 0)
(0.424131 2.60987e-11 0)
(0.424131 -5.45328e-12 0)
(0.424131 -1.43838e-11 0)
(0.424131 3.39184e-11 0)
(0.424131 -5.7343e-11 0)
(0.424131 -1.42841e-12 0)
(0.424131 -7.26808e-10 0)
(0.424131 2.51131e-09 0)
(0.424131 -5.98601e-08 0)
(0.424131 -6.40523e-08 0)
(0.474109 -3.36546e-08 0)
(0.474109 -3.50418e-08 0)
(0.474109 -2.23589e-09 0)
(0.474109 -4.49447e-10 0)
(0.474109 2.90578e-11 0)
(0.474109 -5.07251e-11 0)
(0.474109 3.04885e-11 0)
(0.474109 -2.47083e-11 0)
(0.474109 1.55623e-11 0)
(0.474109 -8.55016e-12 0)
(0.474109 1.38211e-12 0)
(0.474109 5.32041e-12 0)
(0.474109 -1.13252e-11 0)
(0.474109 1.91956e-11 0)
(0.474109 -2.57881e-11 0)
(0.474109 -3.64647e-11 0)
(0.474109 -6.69336e-10 0)
(0.474109 2.65478e-09 0)
(0.474109 -6.131e-08 0)
(0.474109 -6.49934e-08 0)
(0.524109 -2.5671e-08 0)
(0.524109 -2.80828e-08 0)
(0.524109 -1.86542e-09 0)
(0.524109 -1.41308e-10 0)
(0.524109 -8.81024e-11 0)
(0.524109 8.06936e-11 0)
(0.524109 -6.42122e-11 0)
(0.524109 5.30287e-11 0)
(0.524109 -4.19125e-11 0)
(0.524109 3.23213e-11 0)
(0.524109 -2.36378e-11 0)
(0.524109 1.5927e-11 0)
(0.524109 -7.65123e-12 0)
(0.524109 3.37903e-12 0)
(0.524109 7.3596e-12 0)
(0.524109 -7.11159e-11 0)
(0.524109 -5.80298e-10 0)
(0.524109 2.67107e-09 0)
(0.524109 -5.98183e-08 0)
(0.524109 -6.28108e-08 0)
(0.574131 -1.66415e-08 0)
(0.574131 -1.99422e-08 0)
(0.574131 -1.39865e-09 0)
(0.574131 1.70085e-10 0)
(0.574131 -2.00094e-10 0)
(0.574131 2.06828e-10 0)
(0.574131 -1.54926e-10 0)
(0.574131 1.27455e-10 0)
(0.574131 -9.68289e-11 0)
(0.574131 7.12613e-11 0)
(0.574131 -4.73094e-11 0)
(0.574131 2.57041e-11 0)
(0.574131 -3.69087e-12 0)
(0.574131 -1.23824e-11 0)
(0.574131 3.96852e-11 0)
(0.574131 -1.03032e-10 0)
(0.574131 -4.66381e-10 0)
(0.574131 2.55474e-09 0)
(0.574131 -5.55674e-08 0)
(0.574131 -5.77308e-08 0)
(0.624175 -7.59611e-09 0)
(0.624174 -1.16195e-08 0)
(0.624174 -9.05538e-10 0)
(0.624174 4.57092e-10 0)
(0.624174 -3.00053e-10 0)
(0.624174 3.18584e-10 0)
(0.624174 -2.35397e-10 0)
(0.624174 1.93354e-10 0)
(0.624174 -1.45384e-10 0)
(0.624174 1.05584e-10 0)
(0.624174 -6.8031e-11 0)
(0.624174 3.40302e-11 0)
(0.624174 1.96597e-13 0)
(0.624174 -2.69107e-11 0)
(0.624174 6.8771e-11 0)
(0.624174 -1.29894e-10 0)
(0.624174 -3.36726e-10 0)
(0.624174 2.31403e-09 0)
(0.624174 -4.89839e-08 0)
(0.624174 -5.02398e-08 0)
(0.674238 4.39458e-10 0)
(0.674238 -4.11514e-09 0)
(0.674238 -4.58111e-10 0)
(0.674238 6.92646e-10 0)
(0.674238 -3.81196e-10 0)
(0.674238 4.07193e-10 0)
(0.674238 -2.99559e-10 0)
(0.674238 2.45684e-10 0)
(0.674238 -1.83903e-10 0)
(0.674238 1.32698e-10 0)
(0.674238 -8.42644e-11 0)
(0.674238 4.03202e-11 0)
(0.674238 3.64608e-12 0)
(0.674238 -3.90378e-11 0)
(0.674238 9.22674e-11 0)
(0.674238 -1.4948e-10 0)
(0.674238 -2.02553e-10 0)
(0.674238 1.97095e-09 0)
(0.674238 -4.07002e-08 0)
(0.674238 -4.10449e-08 0)
(0.724321 6.56054e-09 0)
(0.72432 1.69497e-09 0)
(0.724321 -1.19023e-10 0)
(0.72432 8.52179e-10 0)
(0.724321 -4.36883e-10 0)
(0.72432 4.64464e-10 0)
(0.724321 -3.41684e-10 0)
(0.72432 2.79706e-10 0)
(0.724321 -2.08925e-10 0)
(0.72432 1.50167e-10 0)
(0.724321 -9.45625e-11 0)
(0.72432 4.40251e-11 0)
(0.724321 6.31349e-12 0)
(0.72432 -4.76613e-11 0)
(0.724321 1.0797e-10 0)
(0.72432 -1.59808e-10 0)
(0.724321 -7.65471e-11 0)
(0.72432 1.5594e-09 0)
(0.724321 -3.15e-08 0)
(0.72432 -3.10155e-08 0)
(0.77442 1.01099e-08 0)
(0.77442 5.19693e-09 0)
(0.77442 7.07727e-11 0)
(0.77442 9.15198e-10 0)
(0.77442 -4.60313e-10 0)
(0.77442 4.82792e-10 0)
(0.77442 -3.5632e-10 0)
(0.77442 2.90949e-10 0)
(0.77442 -2.17165e-10 0)
(0.77442 1.55678e-10 0)
(0.77442 -9.75406e-11 0)
(0.77442 4.46066e-11 0)
(0.77442 7.9e-12 0)
(0.77442 -5.17619e-11 0)
(0.77442 1.13864e-10 0)
(0.77442 -1.5912e-10 0)
(0.77442 2.79308e-11 0)
(0.77442 1.12071e-09 0)
(0.77442 -2.22476e-08 0)
(0.774419 -2.11078e-08 0)
(0.824533 1.07462e-08 0)
(0.824533 6.12671e-09 0)
(0.824533 9.67312e-11 0)
(0.824533 8.62815e-10 0)
(0.824533 -4.43392e-10 0)
(0.824533 4.53688e-10 0)
(0.824533 -3.37296e-10 0)
(0.824533 2.74366e-10 0)
(0.824533 -2.04893e-10 0)
(0.824533 1.46582e-10 0)
(0.824533 -9.15857e-11 0)
(0.824533 4.13922e-11 0)
(0.824533 8.14408e-12 0)
(0.824533 -5.02995e-11 0)
(0.824533 1.07728e-10 0)
(0.824533 -1.45851e-10 0)
(0.824533 9.68218e-11 0)
(0.824533 6.98962e-10 0)
(0.824533 -1.38061e-08 0)
(0.824533 -1.22837e-08 0)
(0.874658 8.77724e-09 0)
(0.874658 4.9503e-09 0)
(0.874658 2.17943e-11 0)
(0.874658 6.88482e-10 0)
(0.874658 -3.71527e-10 0)
(0.874658 3.68294e-10 0)
(0.874658 -2.76544e-10 0)
(0.874658 2.23908e-10 0)
(0.874658 -1.6744e-10 0)
(0.874658 1.19598e-10 0)
(0.874658 -7.46356e-11 0)
(0.874658 3.34855e-11 0)
(0.874658 6.88984e-12 0)
(0.874658 -4.19244e-11 0)
(0.874658 8.77155e-11 0)
(0.874658 -1.16415e-10 0)
(0.874658 1.18882e-10 0)
(0.874658 3.34416e-10 0)
(0.874658 -6.96752e-09 0)
(0.874658 -5.43667e-09 0)
(0.924791 4.81456e-09 0)
(0.924791 2.31164e-09 0)
(0.924791 -1.36809e-10 0)
(0.924791 3.88329e-10 0)
(0.924791 -2.45568e-10 0)
(0.924791 2.24561e-10 0)
(0.924791 -1.73572e-10 0)
(0.924791 1.38803e-10 0)
(0.924791 -1.04312e-10 0)
(0.924791 7.43128e-11 0)
(0.924791 -4.64161e-11 0)
(0.924791 2.06971e-11 0)
(0.924791 4.17053e-12 0)
(0.924791 -2.68395e-11 0)
(0.924791 5.27639e-11 0)
(0.924791 -7.48539e-11 0)
(0.924791 8.37388e-11 0)
(0.924791 7.68223e-11 0)
(0.924791 -2.41874e-09 0)
(0.924791 -1.31708e-09 0)
(0.97493 1.55118e-09 0)
(0.97493 7.51944e-10 0)
(0.97493 -3.58782e-11 0)
(0.97493 1.26737e-10 0)
(0.97493 -7.7666e-11 0)
(0.97493 7.22791e-11 0)
(0.97493 -5.54145e-11 0)
(0.97493 4.44594e-11 0)
(0.97493 -3.33683e-11 0)
(0.97493 2.37851e-11 0)
(0.97493 -1.48481e-11 0)
(0.97493 6.62512e-12 0)
(0.97493 1.3566e-12 0)
(0.97493 -8.50722e-12 0)
(0.97493 1.72864e-11 0)
(0.97493 -2.21964e-11 0)
(0.97493 3.21817e-11 0)
(0.97493 -4.02942e-12 0)
(0.97493 -3.4107e-10 0)
(0.97493 4.57704e-11 0)
)
;

boundaryField
{
    top
    {
        type            fixedValue;
        value           uniform (1 0 0);
    }
    bottom
    {
        type            fixedValue;
        value           uniform (0 0 0);
    }
    inlet
    {
        type            zeroGradient;
    }
    outlet
    {
        type            zeroGradient;
    }
    frontAndBack
    {
        type            empty;
    }
}


// ************************************************************************* //
