/*--------------------------------*- C++ -*----------------------------------*\
| =========                 |                                                 |
| \\      /  F ield         | OpenFOAM: The Open Source CFD Toolbox           |
|  \\    /   O peration     | Version:  4.1                                   |
|   \\  /    A nd           | Web:      www.OpenFOAM.org                      |
|    \\/     M anipulation  |                                                 |
\*---------------------------------------------------------------------------*/
FoamFile
{
    version     2.0;
    format      ascii;
    class       volScalarField;
    location    "4.8";
    object      p;
}
// * * * * * * * * * * * * * * * * * * * * * * * * * * * * * * * * * * * * * //

dimensions      [0 2 -2 0 0 0 0];

internalField   nonuniform List<scalar> 
400
(
4.81874e-13
5.40384e-13
4.60519e-13
4.89744e-13
4.33835e-13
4.51425e-13
4.02821e-13
4.11558e-13
3.78099e-13
3.75146e-13
3.5018e-13
3.41294e-13
3.32822e-13
3.15622e-13
3.07755e-13
2.74941e-13
2.66538e-13
2.32384e-13
2.36633e-13
2.18832e-13
4.8015e-13
5.38601e-13
4.60381e-13
4.89713e-13
4.33848e-13
4.51407e-13
4.02833e-13
4.1155e-13
3.78095e-13
3.75131e-13
3.50211e-13
3.4131e-13
3.32817e-13
3.15604e-13
3.07738e-13
2.74959e-13
2.66502e-13
2.32406e-13
2.35425e-13
2.17571e-13
4.7917e-13
5.37326e-13
4.60213e-13
4.89701e-13
4.33844e-13
4.51417e-13
4.0282e-13
4.11551e-13
3.78089e-13
3.75123e-13
3.50233e-13
3.4131e-13
3.32824e-13
3.15591e-13
3.0774e-13
2.74975e-13
2.66458e-13
2.32406e-13
2.34463e-13
2.16702e-13
4.78873e-13
5.36729e-13
4.60052e-13
4.89686e-13
4.33844e-13
4.5143e-13
4.02805e-13
4.11552e-13
3.78089e-13
3.75107e-13
3.50251e-13
3.41301e-13
3.32839e-13
3.15591e-13
3.07755e-13
2.74995e-13
2.66404e-13
2.32392e-13
2.33896e-13
2.16253e-13
4.7898e-13
5.366e-13
4.59902e-13
4.89665e-13
4.33863e-13
4.51436e-13
4.02793e-13
4.11557e-13
3.78096e-13
3.75089e-13
3.50254e-13
3.41289e-13
3.32862e-13
3.15606e-13
3.07786e-13
2.75008e-13
2.66341e-13
2.32373e-13
2.33643e-13
2.16102e-13
4.79364e-13
5.36785e-13
4.59753e-13
4.89626e-13
4.33889e-13
4.51444e-13
4.02779e-13
4.11545e-13
3.78116e-13
3.75091e-13
3.50252e-13
3.41256e-13
3.32902e-13
3.15628e-13
3.07824e-13
2.75021e-13
2.6628e-13
2.32365e-13
2.33628e-13
2.16174e-13
4.7996e-13
5.37197e-13
4.59597e-13
4.89571e-13
4.3393e-13
4.5145e-13
4.02752e-13
4.11532e-13
3.78152e-13
3.75096e-13
3.50234e-13
3.41217e-13
3.32946e-13
3.15657e-13
3.07867e-13
2.75041e-13
2.66219e-13
2.32378e-13
2.33796e-13
2.16425e-13
4.8063e-13
5.37736e-13
4.59469e-13
4.89488e-13
4.33974e-13
4.51459e-13
4.02705e-13
4.1152e-13
3.78197e-13
3.75092e-13
3.50234e-13
3.41179e-13
3.32999e-13
3.15678e-13
3.07897e-13
2.75059e-13
2.66176e-13
2.32389e-13
2.34141e-13
2.16814e-13
4.81326e-13
5.38275e-13
4.59338e-13
4.8939e-13
4.34042e-13
4.51476e-13
4.0266e-13
4.11504e-13
3.78243e-13
3.75088e-13
3.50248e-13
3.4113e-13
3.33061e-13
3.157e-13
3.07928e-13
2.75097e-13
2.66109e-13
2.32425e-13
2.34587e-13
2.17276e-13
4.8195e-13
5.38772e-13
4.59195e-13
4.89281e-13
4.34141e-13
4.51474e-13
4.02611e-13
4.1149e-13
3.78293e-13
3.75087e-13
3.50231e-13
3.41078e-13
3.33142e-13
3.15713e-13
3.07948e-13
2.75155e-13
2.66058e-13
2.32462e-13
2.35066e-13
2.17761e-13
4.8239e-13
5.39112e-13
4.59045e-13
4.89142e-13
4.34248e-13
4.5148e-13
4.02577e-13
4.11477e-13
3.78309e-13
3.75101e-13
3.5021e-13
3.41028e-13
3.33215e-13
3.1571e-13
3.07974e-13
2.75197e-13
2.66031e-13
2.32472e-13
2.35528e-13
2.18222e-13
4.82614e-13
5.39263e-13
4.58894e-13
4.89028e-13
4.34329e-13
4.51482e-13
4.02541e-13
4.11468e-13
3.78338e-13
3.75106e-13
3.50202e-13
3.40959e-13
3.33295e-13
3.15727e-13
3.07982e-13
2.75224e-13
2.65984e-13
2.32496e-13
2.35912e-13
2.18557e-13
4.82624e-13
5.39184e-13
4.58757e-13
4.88897e-13
4.34404e-13
4.51502e-13
4.025e-13
4.11471e-13
3.78405e-13
3.75069e-13
3.50211e-13
3.409e-13
3.33401e-13
3.15727e-13
3.07992e-13
2.75262e-13
2.65949e-13
2.32525e-13
2.36168e-13
2.18717e-13
4.82404e-13
5.38876e-13
4.58618e-13
4.88747e-13
4.34517e-13
4.51466e-13
4.02428e-13
4.11454e-13
3.78451e-13
3.75083e-13
3.5021e-13
3.40861e-13
3.33515e-13
3.15711e-13
3.07979e-13
2.75282e-13
2.65917e-13
2.32568e-13
2.36252e-13
2.18702e-13
4.8192e-13
5.38348e-13
4.5851e-13
4.88635e-13
4.34597e-13
4.51459e-13
4.02394e-13
4.1142e-13
3.78476e-13
3.75123e-13
3.50178e-13
3.40843e-13
3.33644e-13
3.1571e-13
3.07974e-13
2.75276e-13
2.65897e-13
2.326e-13
2.36135e-13
2.18478e-13
4.81238e-13
5.37667e-13
4.58433e-13
4.88518e-13
4.3469e-13
4.51474e-13
4.02374e-13
4.11415e-13
3.78436e-13
3.75166e-13
3.50189e-13
3.40816e-13
3.33722e-13
3.15714e-13
3.07997e-13
2.75296e-13
2.65847e-13
2.32592e-13
2.35907e-13
2.18042e-13
4.80389e-13
5.36947e-13
4.58363e-13
4.88424e-13
4.34736e-13
4.51473e-13
4.02367e-13
4.11438e-13
3.78378e-13
3.75202e-13
3.50197e-13
3.40807e-13
3.33795e-13
3.15734e-13
3.0802e-13
2.75267e-13
2.65771e-13
2.32598e-13
2.3551e-13
2.1746e-13
4.79539e-13
5.36258e-13
4.58311e-13
4.88394e-13
4.34721e-13
4.51493e-13
4.02371e-13
4.11433e-13
3.78335e-13
3.75169e-13
3.50238e-13
3.40776e-13
3.33879e-13
3.15734e-13
3.07995e-13
2.75262e-13
2.65758e-13
2.32639e-13
2.34945e-13
2.16762e-13
4.78919e-13
5.35699e-13
4.58271e-13
4.88373e-13
4.34738e-13
4.51478e-13
4.0234e-13
4.11433e-13
3.78314e-13
3.75104e-13
3.50283e-13
3.40785e-13
3.3393e-13
3.15692e-13
3.07941e-13
2.75323e-13
2.65741e-13
2.32654e-13
2.34293e-13
2.16012e-13
4.78777e-13
5.3542e-13
4.58257e-13
4.88357e-13
4.34687e-13
4.51538e-13
4.02303e-13
4.11464e-13
3.78258e-13
3.75099e-13
3.50315e-13
3.40791e-13
3.33946e-13
3.15674e-13
3.07929e-13
2.75332e-13
2.65732e-13
2.32646e-13
2.33699e-13
2.1543e-13
)
;

boundaryField
{
    top
    {
        type            zeroGradient;
    }
    bottom
    {
        type            zeroGradient;
    }
    inlet
    {
        type            fixedValue;
        value           uniform 0;
    }
    outlet
    {
        type            fixedValue;
        value           uniform 0;
    }
    frontAndBack
    {
        type            empty;
    }
}


// ************************************************************************* //
