/*--------------------------------*- C++ -*----------------------------------*\
| =========                 |                                                 |
| \\      /  F ield         | OpenFOAM: The Open Source CFD Toolbox           |
|  \\    /   O peration     | Version:  4.1                                   |
|   \\  /    A nd           | Web:      www.OpenFOAM.org                      |
|    \\/     M anipulation  |                                                 |
\*---------------------------------------------------------------------------*/
FoamFile
{
    version     2.0;
    format      ascii;
    class       surfaceScalarField;
    location    "4.8";
    object      phi;
}
// * * * * * * * * * * * * * * * * * * * * * * * * * * * * * * * * * * * * * //

dimensions      [0 3 -1 0 0 0 0];

internalField   nonuniform List<scalar> 
760
(
1.25e-06
-7.46524e-19
1.25e-06
-5.1586e-19
1.25e-06
4.38845e-21
1.25e-06
-3.20557e-20
1.25e-06
2.36711e-20
1.25e-06
-2.48776e-20
1.25e-06
2.25674e-20
1.25e-06
-1.37781e-20
1.25e-06
6.22076e-21
1.25e-06
-9.33253e-21
1.25e-06
1.18755e-20
1.25e-06
5.65319e-21
1.25e-06
-4.80661e-21
1.25e-06
-3.23601e-21
1.25e-06
-1.31323e-20
1.25e-06
1.10353e-20
1.25e-06
-1.3207e-20
1.25e-06
1.77192e-20
1.25e-06
-3.11739e-19
-4.57073e-19
3.75e-06
-2.25539e-18
3.75e-06
-1.80406e-18
3.75e-06
-4.38462e-20
3.75e-06
-7.26859e-20
3.75e-06
5.00854e-20
3.75e-06
-6.07149e-20
3.75e-06
5.36756e-20
3.75e-06
-2.93431e-20
3.75e-06
7.42441e-21
3.75e-06
-2.37164e-20
3.75e-06
3.66121e-20
3.75e-06
2.20569e-20
3.75e-06
-1.40827e-20
3.75e-06
-1.76197e-20
3.75e-06
-3.69939e-20
3.75e-06
2.77339e-20
3.75e-06
-3.42401e-20
3.75e-06
4.61596e-20
3.75e-06
-1.14617e-18
-1.47558e-18
6.25e-06
-4.07976e-18
6.25e-06
-3.55702e-18
6.25e-06
-1.52041e-19
6.25e-06
-1.03845e-19
6.25e-06
6.46153e-20
6.25e-06
-9.02256e-20
6.25e-06
7.95599e-20
6.25e-06
-3.82954e-20
6.25e-06
-1.3494e-21
6.25e-06
-3.63756e-20
6.25e-06
6.78533e-20
6.25e-06
4.25796e-20
6.25e-06
-2.27727e-20
6.25e-06
-4.2782e-20
6.25e-06
-6.36536e-20
6.25e-06
4.61689e-20
6.25e-06
-5.97792e-20
6.25e-06
7.47317e-20
6.25e-06
-2.34974e-18
-2.81736e-18
8.75e-06
-5.94167e-18
8.75e-06
-5.47222e-18
8.75e-06
-3.01067e-19
8.75e-06
-1.24231e-19
8.75e-06
6.70535e-20
8.75e-06
-1.15227e-19
8.75e-06
1.01079e-19
8.75e-06
-4.1539e-20
8.75e-06
-1.8716e-20
8.75e-06
-5.1876e-20
8.75e-06
1.06068e-19
8.75e-06
6.64092e-20
8.75e-06
-2.93996e-20
8.75e-06
-7.49964e-20
8.75e-06
-9.3384e-20
8.75e-06
6.89831e-20
8.75e-06
-8.82932e-20
8.75e-06
1.01769e-19
8.75e-06
-3.74868e-18
-4.31195e-18
1.125e-05
-7.60775e-18
1.125e-05
-7.28682e-18
1.125e-05
-4.69312e-19
1.125e-05
-1.29984e-19
1.125e-05
6.16997e-20
1.125e-05
-1.35811e-19
1.125e-05
1.20666e-19
1.125e-05
-3.22676e-20
1.125e-05
-4.54869e-20
1.125e-05
-7.16996e-20
1.125e-05
1.42939e-19
1.125e-05
9.41098e-20
1.125e-05
-3.43019e-20
1.125e-05
-1.08308e-19
1.125e-05
-1.21926e-19
1.125e-05
8.89953e-20
1.125e-05
-1.18548e-19
1.125e-05
1.23143e-19
1.125e-05
-5.16977e-18
-5.78306e-18
1.375e-05
-8.89554e-18
1.375e-05
-8.78954e-18
1.375e-05
-6.35256e-19
1.375e-05
-1.24897e-19
1.375e-05
4.65762e-20
1.375e-05
-1.48138e-19
1.375e-05
1.38207e-19
1.375e-05
-2.02633e-20
1.375e-05
-7.85046e-20
1.375e-05
-8.74056e-20
1.375e-05
1.81106e-19
1.375e-05
1.1539e-19
1.375e-05
-3.10518e-20
1.375e-05
-1.40227e-19
1.375e-05
-1.50622e-19
1.375e-05
1.04312e-19
1.375e-05
-1.41101e-19
1.375e-05
1.39378e-19
1.375e-05
-6.46075e-18
-7.08279e-18
1.625e-05
-9.66394e-18
1.625e-05
-9.82607e-18
1.625e-05
-7.89301e-19
1.625e-05
-1.06126e-19
1.625e-05
2.8284e-20
1.625e-05
-1.52898e-19
1.625e-05
1.52697e-19
1.625e-05
-4.96415e-21
1.625e-05
-1.14162e-19
1.625e-05
-9.66185e-20
1.625e-05
2.07981e-19
1.625e-05
1.302e-19
1.625e-05
-2.35407e-20
1.625e-05
-1.63828e-19
1.625e-05
-1.73406e-19
1.625e-05
1.13089e-19
1.625e-05
-1.59558e-19
1.625e-05
1.57253e-19
1.625e-05
-7.50691e-18
-8.08995e-18
1.875e-05
-9.87351e-18
1.875e-05
-1.0299e-17
1.875e-05
-9.02838e-19
1.875e-05
-8.02936e-20
1.875e-05
6.04618e-22
1.875e-05
-1.49901e-19
1.875e-05
1.56766e-19
1.875e-05
1.19848e-20
1.875e-05
-1.46344e-19
1.875e-05
-1.05022e-19
1.875e-05
2.31365e-19
1.875e-05
1.39989e-19
1.875e-05
-1.51242e-20
1.875e-05
-1.78989e-19
1.875e-05
-1.94797e-19
1.875e-05
1.10015e-19
1.875e-05
-1.59642e-19
1.875e-05
1.64584e-19
1.875e-05
-8.20316e-18
-8.71076e-18
2.125e-05
-9.51148e-18
2.125e-05
-1.02042e-17
2.125e-05
-9.66432e-19
2.125e-05
-4.68816e-20
2.125e-05
-3.15338e-20
2.125e-05
-1.31473e-19
2.125e-05
1.56265e-19
2.125e-05
2.62385e-20
2.125e-05
-1.77072e-19
2.125e-05
-1.1154e-19
2.125e-05
2.55907e-19
2.125e-05
1.3923e-19
2.125e-05
-6.80573e-21
2.125e-05
-1.82437e-19
2.125e-05
-2.05055e-19
2.125e-05
9.92071e-20
2.125e-05
-1.6161e-19
2.125e-05
1.73413e-19
2.125e-05
-8.49442e-18
-8.90255e-18
2.375e-05
-8.62736e-18
2.375e-05
-9.55255e-18
2.375e-05
-9.77269e-19
2.375e-05
-4.68541e-22
2.375e-05
-6.14932e-20
2.375e-05
-1.10512e-19
2.375e-05
1.43742e-19
2.375e-05
3.93902e-20
2.375e-05
-1.94873e-19
2.375e-05
-1.18978e-19
2.375e-05
2.65231e-19
2.375e-05
1.32828e-19
2.375e-05
6.08996e-21
2.375e-05
-1.77341e-19
2.375e-05
-2.09598e-19
2.375e-05
9.16786e-20
2.375e-05
-1.57816e-19
2.375e-05
1.80061e-19
2.375e-05
-8.3693e-18
-8.65291e-18
2.625e-05
-7.34174e-18
2.625e-05
-8.45064e-18
2.625e-05
-9.34896e-19
2.625e-05
3.62343e-20
2.625e-05
-8.69279e-20
2.625e-05
-7.82581e-20
2.625e-05
1.30423e-19
2.625e-05
4.92949e-20
2.625e-05
-2.15308e-19
2.625e-05
-1.18798e-19
2.625e-05
2.62829e-19
2.625e-05
1.25976e-19
2.625e-05
1.12558e-20
2.625e-05
-1.74065e-19
2.625e-05
-1.97224e-19
2.625e-05
8.13327e-20
2.625e-05
-1.42329e-19
2.625e-05
1.75435e-19
2.625e-05
-7.84755e-18
-7.98456e-18
2.875e-05
-5.793e-18
2.875e-05
-7.02042e-18
2.875e-05
-8.49836e-19
2.875e-05
7.87456e-20
2.875e-05
-1.15915e-19
2.875e-05
-4.69973e-20
2.875e-05
1.13941e-19
2.875e-05
5.53072e-20
2.875e-05
-2.31335e-19
2.875e-05
-1.10068e-19
2.875e-05
2.49843e-19
2.875e-05
1.09357e-19
2.875e-05
6.10816e-21
2.875e-05
-1.57893e-19
2.875e-05
-1.76777e-19
2.875e-05
6.38309e-20
2.875e-05
-1.28241e-19
2.875e-05
1.66203e-19
2.875e-05
-6.98863e-18
-6.97565e-18
3.125e-05
-4.13792e-18
3.125e-05
-5.42619e-18
3.125e-05
-7.30706e-19
3.125e-05
1.19329e-19
3.125e-05
-1.48656e-19
3.125e-05
-3.05237e-21
3.125e-05
9.81082e-20
3.125e-05
6.64535e-20
3.125e-05
-2.22163e-19
3.125e-05
-1.18458e-19
3.125e-05
2.29576e-19
3.125e-05
9.39817e-20
3.125e-05
7.64302e-22
3.125e-05
-1.44007e-19
3.125e-05
-1.4307e-19
3.125e-05
5.17039e-20
3.125e-05
-1.06542e-19
3.125e-05
1.48173e-19
3.125e-05
-5.88242e-18
-5.73779e-18
3.375e-05
-2.53438e-18
3.375e-05
-3.82868e-18
3.375e-05
-6.01428e-19
3.375e-05
1.37003e-19
3.375e-05
-1.56423e-19
3.375e-05
2.17025e-20
3.375e-05
6.3663e-20
3.375e-05
7.06347e-20
3.375e-05
-1.9774e-19
3.375e-05
-1.15239e-19
3.375e-05
2.04542e-19
3.375e-05
7.65649e-20
3.375e-05
-7.64443e-21
3.375e-05
-1.34098e-19
3.375e-05
-1.04739e-19
3.375e-05
4.14089e-20
3.375e-05
-8.69942e-20
3.375e-05
1.25104e-19
3.375e-05
-4.63537e-18
-4.37822e-18
3.625e-05
-1.16392e-18
3.625e-05
-2.39545e-18
3.625e-05
-4.6584e-19
3.625e-05
1.49679e-19
3.625e-05
-1.56751e-19
3.625e-05
4.30082e-20
3.625e-05
2.9064e-20
3.625e-05
6.02649e-20
3.625e-05
-1.52869e-19
3.625e-05
-1.00109e-19
3.625e-05
1.56473e-19
3.625e-05
6.55615e-20
3.625e-05
-3.93242e-21
3.625e-05
-1.16689e-19
3.625e-05
-7.24799e-20
3.625e-05
1.9737e-20
3.625e-05
-5.53832e-20
3.625e-05
1.00062e-19
3.625e-05
-3.38884e-18
-3.03046e-18
3.875e-05
-1.39261e-19
3.875e-05
-1.25994e-18
3.875e-05
-3.36549e-19
3.875e-05
1.3742e-19
3.875e-05
-1.32341e-19
3.875e-05
6.59488e-20
3.875e-05
-9.34057e-22
3.875e-05
4.1111e-20
3.875e-05
-1.12696e-19
3.875e-05
-7.35861e-20
3.875e-05
1.13963e-19
3.875e-05
4.7239e-20
3.875e-05
-7.48164e-21
3.875e-05
-9.73752e-20
3.875e-05
-3.74684e-20
3.875e-05
1.42808e-20
3.875e-05
-2.88882e-20
3.875e-05
6.73925e-20
3.875e-05
-2.22151e-18
-1.83026e-18
4.125e-05
4.35749e-19
4.125e-05
-4.79385e-19
4.125e-05
-2.23128e-19
4.125e-05
9.87864e-20
4.125e-05
-9.60738e-20
4.125e-05
6.88321e-20
4.125e-05
-1.70818e-20
4.125e-05
2.85229e-20
4.125e-05
-8.19082e-20
4.125e-05
-3.16448e-20
4.125e-05
6.73393e-20
4.125e-05
3.69791e-20
4.125e-05
-1.33216e-20
4.125e-05
-6.6509e-20
4.125e-05
-3.44183e-21
4.125e-05
-2.82398e-21
4.125e-05
-2.37613e-20
4.125e-05
3.02826e-20
4.125e-05
-1.23909e-18
-8.78666e-19
4.375e-05
5.56832e-19
4.375e-05
-6.5363e-20
4.375e-05
-1.3227e-19
4.375e-05
6.58723e-20
4.375e-05
-7.02883e-20
4.375e-05
6.47877e-20
4.375e-05
-1.22943e-20
4.375e-05
1.38978e-20
4.375e-05
-5.11362e-20
4.375e-05
-4.2679e-21
4.375e-05
3.32777e-20
4.375e-05
1.4246e-20
4.375e-05
-8.85612e-21
4.375e-05
-2.87783e-20
4.375e-05
1.27555e-20
4.375e-05
-2.14806e-20
4.375e-05
-9.31471e-21
4.375e-05
1.62587e-20
4.375e-05
-5.3435e-19
-2.56503e-19
4.625e-05
3.16538e-19
4.625e-05
3.77753e-20
4.625e-05
-6.03648e-20
4.625e-05
3.02355e-20
4.625e-05
-2.25573e-20
4.625e-05
2.44334e-20
4.625e-05
-5.38392e-21
4.625e-05
-8.12989e-22
4.625e-05
-1.46591e-20
4.625e-05
-4.57037e-21
4.625e-05
1.21791e-20
4.625e-05
6.16558e-21
4.625e-05
-2.30104e-21
4.625e-05
-1.34004e-20
4.625e-05
5.10636e-21
4.625e-05
-7.41867e-21
4.625e-05
-1.5563e-21
4.625e-05
7.62517e-21
4.625e-05
-1.30579e-19
4.03994e-21
4.875e-05
4.875e-05
4.875e-05
4.875e-05
4.875e-05
4.875e-05
4.875e-05
4.875e-05
4.875e-05
4.875e-05
4.875e-05
4.875e-05
4.875e-05
4.875e-05
4.875e-05
4.875e-05
4.875e-05
4.875e-05
4.875e-05
)
;

boundaryField
{
    top
    {
        type            calculated;
        value           uniform 0;
    }
    bottom
    {
        type            calculated;
        value           uniform 0;
    }
    inlet
    {
        type            calculated;
        value           nonuniform List<scalar> 
20
(
-1.25e-06
-3.75e-06
-6.25e-06
-8.75e-06
-1.125e-05
-1.375e-05
-1.625e-05
-1.875e-05
-2.125e-05
-2.375e-05
-2.625e-05
-2.875e-05
-3.125e-05
-3.375e-05
-3.625e-05
-3.875e-05
-4.125e-05
-4.375e-05
-4.625e-05
-4.875e-05
)
;
    }
    outlet
    {
        type            calculated;
        value           nonuniform List<scalar> 
20
(
1.25e-06
3.75e-06
6.25e-06
8.75e-06
1.125e-05
1.375e-05
1.625e-05
1.875e-05
2.125e-05
2.375e-05
2.625e-05
2.875e-05
3.125e-05
3.375e-05
3.625e-05
3.875e-05
4.125e-05
4.375e-05
4.625e-05
4.875e-05
)
;
    }
    frontAndBack
    {
        type            empty;
        value           nonuniform 0();
    }
}


// ************************************************************************* //
