/*--------------------------------*- C++ -*----------------------------------*\
| =========                 |                                                 |
| \\      /  F ield         | OpenFOAM: The Open Source CFD Toolbox           |
|  \\    /   O peration     | Version:  4.1                                   |
|   \\  /    A nd           | Web:      www.OpenFOAM.org                      |
|    \\/     M anipulation  |                                                 |
\*---------------------------------------------------------------------------*/
FoamFile
{
    version     2.0;
    format      ascii;
    class       volVectorField;
    location    "4.8";
    object      U;
}
// * * * * * * * * * * * * * * * * * * * * * * * * * * * * * * * * * * * * * //

dimensions      [0 1 -1 0 0 0 0];

internalField   nonuniform List<vector> 
400
(
(0.025 -3.32758e-16 0)
(0.025 -2.08604e-16 0)
(0.025 6.67712e-18 0)
(0.025 -1.67135e-17 0)
(0.025 1.25181e-17 0)
(0.025 -1.23857e-17 0)
(0.025 1.13313e-17 0)
(0.025 -7.24863e-18 0)
(0.025 3.93105e-18 0)
(0.025 -4.48443e-18 0)
(0.025 5.10188e-18 0)
(0.025 2.02707e-18 0)
(0.025 -2.28852e-18 0)
(0.025 -7.72259e-19 0)
(0.025 -6.01148e-18 0)
(0.025 5.34164e-18 0)
(0.025 -6.07971e-18 0)
(0.025 8.25161e-18 0)
(0.025 -1.18835e-16 0)
(0.025 -1.92419e-16 0)
(0.075 -1.39946e-15 0)
(0.075 -1.03854e-15 0)
(0.075 -6.15932e-18 0)
(0.075 -5.25867e-17 0)
(0.075 3.81486e-17 0)
(0.075 -4.25379e-17 0)
(0.075 3.78687e-17 0)
(0.075 -2.22573e-17 0)
(0.075 8.44793e-18 0)
(0.075 -1.61883e-17 0)
(0.075 2.23487e-17 0)
(0.075 1.2458e-17 0)
(0.075 -9.11847e-18 0)
(0.075 -7.96222e-18 0)
(0.075 -2.39479e-17 0)
(0.075 1.85297e-17 0)
(0.075 -2.2537e-17 0)
(0.075 3.14997e-17 0)
(0.075 -6.38759e-16 0)
(0.075 -8.78177e-16 0)
(0.125 -3.10361e-15 0)
(0.125 -2.59088e-15 0)
(0.125 -8.62608e-17 0)
(0.125 -9.00017e-17 0)
(0.125 5.92506e-17 0)
(0.125 -7.55581e-17 0)
(0.125 6.67119e-17 0)
(0.125 -3.51865e-17 0)
(0.125 5.25121e-18 0)
(0.125 -2.94117e-17 0)
(0.125 5.04518e-17 0)
(0.125 3.08428e-17 0)
(0.125 -1.85936e-17 0)
(0.125 -2.81245e-17 0)
(0.125 -4.9374e-17 0)
(0.125 3.62442e-17 0)
(0.125 -4.57115e-17 0)
(0.125 5.9797e-17 0)
(0.125 -1.6722e-15 0)
(0.125 -2.07639e-15 0)
(0.175 -5.02126e-15 0)
(0.175 -4.49673e-15 0)
(0.175 -2.18368e-16 0)
(0.175 -1.16946e-16 0)
(0.175 6.8509e-17 0)
(0.175 -1.04067e-16 0)
(0.175 9.14313e-17 0)
(0.175 -4.18406e-17 0)
(0.175 -7.88138e-18 0)
(0.175 -4.39769e-17 0)
(0.175 8.6163e-17 0)
(0.175 5.38998e-17 0)
(0.175 -2.68553e-17 0)
(0.175 -5.76358e-17 0)
(0.175 -7.81199e-17 0)
(0.175 5.75903e-17 0)
(0.175 -7.40116e-17 0)
(0.175 8.87393e-17 0)
(0.175 -3.01693e-15 0)
(0.175 -3.54324e-15 0)
(0.225 -6.84564e-15 0)
(0.225 -6.42869e-15 0)
(0.225 -3.8255e-16 0)
(0.225 -1.3021e-16 0)
(0.225 6.66871e-17 0)
(0.225 -1.2729e-16 0)
(0.225 1.11796e-16 0)
(0.225 -3.86727e-17 0)
(0.225 -3.03802e-17 0)
(0.225 -6.21385e-17 0)
(0.225 1.24831e-16 0)
(0.225 8.05938e-17 0)
(0.225 -3.29483e-17 0)
(0.225 -9.16555e-17 0)
(0.225 -1.07433e-16 0)
(0.225 7.94303e-17 0)
(0.225 -1.0428e-16 0)
(0.225 1.12881e-16 0)
(0.225 -4.47098e-15 0)
(0.225 -5.07082e-15 0)
(0.275 -8.36153e-15 0)
(0.275 -8.13358e-15 0)
(0.275 -5.54829e-16 0)
(0.275 -1.30143e-16 0)
(0.275 5.57585e-17 0)
(0.275 -1.43889e-16 0)
(0.275 1.30472e-16 0)
(0.275 -2.75919e-17 0)
(0.275 -6.07856e-17 0)
(0.275 -7.98674e-17 0)
(0.275 1.62572e-16 0)
(0.275 1.05882e-16 0)
(0.275 -3.40184e-17 0)
(0.275 -1.25196e-16 0)
(0.275 -1.36561e-16 0)
(0.275 9.80827e-17 0)
(0.275 -1.31671e-16 0)
(0.275 1.32186e-16 0)
(0.275 -5.86227e-15 0)
(0.275 -6.49031e-15 0)
(0.325 -9.4123e-15 0)
(0.325 -9.43344e-15 0)
(0.325 -7.19361e-16 0)
(0.325 -1.18242e-16 0)
(0.325 3.88566e-17 0)
(0.325 -1.52712e-16 0)
(0.325 1.46839e-16 0)
(0.325 -1.32393e-17 0)
(0.325 -9.57577e-17 0)
(0.325 -9.30369e-17 0)
(0.325 1.95494e-16 0)
(0.325 1.24498e-16 0)
(0.325 -2.80153e-17 0)
(0.325 -1.54065e-16 0)
(0.325 -1.62824e-16 0)
(0.325 1.10932e-16 0)
(0.325 -1.5268e-16 0)
(0.325 1.49264e-16 0)
(0.325 -7.05743e-15 0)
(0.325 -7.67009e-15 0)
(0.375 -9.90924e-15 0)
(0.375 -1.02027e-14 0)
(0.375 -8.56716e-16 0)
(0.375 -9.5497e-17 0)
(0.375 1.54142e-17 0)
(0.375 -1.53808e-16 0)
(0.375 1.56254e-16 0)
(0.375 3.70798e-18 0)
(0.375 -1.31004e-16 0)
(0.375 -1.01258e-16 0)
(0.375 2.21444e-16 0)
(0.375 1.36981e-16 0)
(0.375 -2.00844e-17 0)
(0.375 -1.73641e-16 0)
(0.375 -1.85683e-16 0)
(0.375 1.13067e-16 0)
(0.375 -1.61495e-16 0)
(0.375 1.61739e-16 0)
(0.375 -7.94729e-15 0)
(0.375 -8.5009e-15 0)
(0.425 -9.82629e-15 0)
(0.425 -1.0391e-14 0)
(0.425 -9.47643e-16 0)
(0.425 -6.58155e-17 0)
(0.425 -1.49462e-17 0)
(0.425 -1.42801e-16 0)
(0.425 1.58281e-16 0)
(0.425 1.95132e-17 0)
(0.425 -1.6261e-16 0)
(0.425 -1.09114e-16 0)
(0.425 2.45627e-16 0)
(0.425 1.41528e-16 0)
(0.425 -1.06427e-17 0)
(0.425 -1.83035e-16 0)
(0.425 -2.02374e-16 0)
(0.425 1.06637e-16 0)
(0.425 -1.62587e-16 0)
(0.425 1.70713e-16 0)
(0.425 -8.45041e-15 0)
(0.425 -8.9151e-15 0)
(0.475 -9.18292e-15 0)
(0.475 -1.00022e-14 0)
(0.475 -9.85626e-16 0)
(0.475 -2.49948e-17 0)
(0.475 -4.58573e-17 0)
(0.475 -1.22933e-16 0)
(0.475 1.5124e-16 0)
(0.475 3.34136e-17 0)
(0.475 -1.87329e-16 0)
(0.475 -1.15879e-16 0)
(0.475 2.62906e-16 0)
(0.475 1.37226e-16 0)
(0.475 1.07458e-19 0)
(0.475 -1.8141e-16 0)
(0.475 -2.09755e-16 0)
(0.475 9.60647e-17 0)
(0.475 -1.60879e-16 0)
(0.475 1.77799e-16 0)
(0.475 -8.53213e-15 0)
(0.475 -8.88324e-15 0)
(0.525 -8.06816e-15 0)
(0.525 -9.09877e-15 0)
(0.525 -9.69362e-16 0)
(0.525 1.78978e-17 0)
(0.525 -7.37197e-17 0)
(0.525 -9.62162e-17 0)
(0.525 1.38258e-16 0)
(0.525 4.50305e-17 0)
(0.525 -2.07722e-16 0)
(0.525 -1.18538e-16 0)
(0.525 2.66481e-16 0)
(0.525 1.30161e-16 0)
(0.525 1.00304e-17 0)
(0.525 -1.77136e-16 0)
(0.525 -2.06519e-16 0)
(0.525 8.67501e-17 0)
(0.525 -1.50797e-16 0)
(0.525 1.79405e-16 0)
(0.525 -8.19894e-15 0)
(0.525 -8.41144e-15 0)
(0.575 -6.61402e-15 0)
(0.575 -7.79699e-15 0)
(0.575 -9.01989e-16 0)
(0.575 5.81997e-17 0)
(0.575 -1.02612e-16 0)
(0.575 -6.2934e-17 0)
(0.575 1.23213e-16 0)
(0.575 5.26177e-17 0)
(0.575 -2.25978e-16 0)
(0.575 -1.15472e-16 0)
(0.575 2.5911e-16 0)
(0.575 1.17939e-16 0)
(0.575 1.00914e-17 0)
(0.575 -1.66321e-16 0)
(0.575 -1.89768e-16 0)
(0.575 7.31076e-17 0)
(0.575 -1.36745e-16 0)
(0.575 1.72763e-16 0)
(0.575 -7.48966e-15 0)
(0.575 -7.55117e-15 0)
(0.625 -4.97059e-15 0)
(0.625 -6.24431e-15 0)
(0.625 -7.96687e-16 0)
(0.625 1.00986e-16 0)
(0.625 -1.34093e-16 0)
(0.625 -2.46101e-17 0)
(0.625 1.0727e-16 0)
(0.625 6.17662e-17 0)
(0.625 -2.29978e-16 0)
(0.625 -1.15041e-16 0)
(0.625 2.42339e-16 0)
(0.625 1.01381e-16 0)
(0.625 3.92223e-18 0)
(0.625 -1.51152e-16 0)
(0.625 -1.61921e-16 0)
(0.625 5.75865e-17 0)
(0.625 -1.18255e-16 0)
(0.625 1.58783e-16 0)
(0.625 -6.4823e-15 0)
(0.625 -6.40012e-15 0)
(0.675 -3.30107e-15 0)
(0.675 -4.60842e-15 0)
(0.675 -6.69109e-16 0)
(0.675 1.31248e-16 0)
(0.675 -1.55697e-16 0)
(0.675 1.00102e-17 0)
(0.675 8.21953e-17 0)
(0.675 7.03412e-17 0)
(0.675 -2.13665e-16 0)
(0.675 -1.18825e-16 0)
(0.675 2.19295e-16 0)
(0.675 8.55777e-17 0)
(0.675 -2.72026e-18 0)
(0.675 -1.40083e-16 0)
(0.675 -1.25404e-16 0)
(0.675 4.67418e-17 0)
(0.675 -9.68018e-17 0)
(0.675 1.39063e-16 0)
(0.675 -5.27815e-15 0)
(0.675 -5.07126e-15 0)
(0.725 -1.77706e-15 0)
(0.725 -3.05749e-15 0)
(0.725 -5.32494e-16 0)
(0.725 1.47438e-16 0)
(0.725 -1.60579e-16 0)
(0.725 3.42216e-17 0)
(0.725 4.62725e-17 0)
(0.725 6.72662e-17 0)
(0.725 -1.77127e-16 0)
(0.725 -1.10125e-16 0)
(0.725 1.82262e-16 0)
(0.725 7.10587e-17 0)
(0.725 -6.2954e-18 0)
(0.725 -1.26401e-16 0)
(0.725 -8.78712e-17 0)
(0.725 3.04293e-17 0)
(0.725 -7.13024e-17 0)
(0.725 1.12732e-16 0)
(0.725 -4.00242e-15 0)
(0.725 -3.68498e-15 0)
(0.775 -5.5305e-16 0)
(0.775 -1.74774e-15 0)
(0.775 -3.98012e-16 0)
(0.775 1.47957e-16 0)
(0.775 -1.47216e-16 0)
(0.775 5.66314e-17 0)
(0.775 1.19683e-17 0)
(0.775 5.21334e-17 0)
(0.775 -1.33194e-16 0)
(0.775 -8.8225e-17 0)
(0.775 1.34996e-16 0)
(0.775 5.6965e-17 0)
(0.775 -5.99735e-18 0)
(0.775 -1.08329e-16 0)
(0.775 -5.33469e-17 0)
(0.775 1.68761e-17 0)
(0.775 -4.11689e-17 0)
(0.775 8.36566e-17 0)
(0.775 -2.7702e-15 0)
(0.775 -2.38233e-15 0)
(0.825 2.53701e-16 0)
(0.825 -7.81073e-16 0)
(0.825 -2.75362e-16 0)
(0.825 1.21798e-16 0)
(0.825 -1.16681e-16 0)
(0.825 7.17638e-17 0)
(0.825 -1.1939e-17 0)
(0.825 3.49496e-17 0)
(0.825 -9.75434e-17 0)
(0.825 -5.19357e-17 0)
(0.825 8.95236e-17 0)
(0.825 4.18178e-17 0)
(0.825 -1.02721e-17 0)
(0.825 -8.27003e-17 0)
(0.825 -1.75028e-17 0)
(0.825 4.30423e-18 0)
(0.825 -2.55009e-17 0)
(0.825 4.8207e-17 0)
(0.825 -1.67312e-15 0)
(0.825 -1.28266e-15 0)
(0.875 5.8706e-16 0)
(0.875 -1.9186e-16 0)
(0.875 -1.7147e-16 0)
(0.875 8.24065e-17 0)
(0.875 -8.4167e-17 0)
(0.875 7.08061e-17 0)
(0.875 -1.72862e-17 0)
(0.875 1.96654e-17 0)
(0.875 -6.5588e-17 0)
(0.875 -1.61862e-17 0)
(0.875 4.81265e-17 0)
(0.875 2.54686e-17 0)
(0.875 -1.24793e-17 0)
(0.875 -4.65729e-17 0)
(0.875 7.71504e-18 0)
(0.875 -1.38167e-17 0)
(0.875 -1.43847e-17 0)
(0.875 1.97161e-17 0)
(0.875 -8.15644e-16 0)
(0.875 -4.84262e-16 0)
(0.925 4.95094e-16 0)
(0.925 4.30131e-17 0)
(0.925 -9.21955e-17 0)
(0.925 4.85684e-17 0)
(0.925 -4.5247e-17 0)
(0.925 4.63938e-17 0)
(0.925 -1.06697e-17 0)
(0.925 5.29802e-18 0)
(0.925 -3.02603e-17 0)
(0.925 -2.34312e-18 0)
(0.925 2.03752e-17 0)
(0.925 8.90725e-18 0)
(0.925 -4.96203e-18 0)
(0.925 -1.97614e-17 0)
(0.925 1.07508e-17 0)
(0.925 -1.57425e-17 0)
(0.925 -5.0514e-18 0)
(0.925 1.14685e-17 0)
(0.925 -2.69566e-16 0)
(0.925 -5.54481e-17 0)
(0.975 1.85029e-16 0)
(0.975 4.28474e-17 0)
(0.975 -2.76531e-17 0)
(0.975 1.26632e-17 0)
(0.975 -1.24346e-17 0)
(0.975 1.54985e-17 0)
(0.975 -3.35017e-18 0)
(0.975 -1.42852e-18 0)
(0.975 -8.56682e-18 0)
(0.975 -8.24917e-19 0)
(0.975 5.35293e-18 0)
(0.975 2.98369e-18 0)
(0.975 -2.37624e-18 0)
(0.975 -5.37914e-18 0)
(0.975 3.90576e-18 0)
(0.975 -5.33902e-18 0)
(0.975 9.71719e-19 0)
(0.975 1.40676e-18 0)
(0.975 -3.68177e-17 0)
(0.975 3.38799e-17 0)
)
;

boundaryField
{
    top
    {
        type            fixedValue;
        value           uniform (1 0 0);
    }
    bottom
    {
        type            fixedValue;
        value           uniform (0 0 0);
    }
    inlet
    {
        type            zeroGradient;
    }
    outlet
    {
        type            zeroGradient;
    }
    frontAndBack
    {
        type            empty;
    }
}


// ************************************************************************* //
