/*--------------------------------*- C++ -*----------------------------------*\
| =========                 |                                                 |
| \\      /  F ield         | OpenFOAM: The Open Source CFD Toolbox           |
|  \\    /   O peration     | Version:  4.1                                   |
|   \\  /    A nd           | Web:      www.OpenFOAM.org                      |
|    \\/     M anipulation  |                                                 |
\*---------------------------------------------------------------------------*/
FoamFile
{
    version     2.0;
    format      ascii;
    class       surfaceScalarField;
    location    "1.8";
    object      phi;
}
// * * * * * * * * * * * * * * * * * * * * * * * * * * * * * * * * * * * * * //

dimensions      [0 3 -1 0 0 0 0];

internalField   nonuniform List<scalar> 
760
(
-1.9164e-05
4.23436e-13
-1.9164e-05
1.42021e-12
-1.9164e-05
9.70784e-13
-1.9164e-05
1.24861e-12
-1.9164e-05
3.764e-13
-1.9164e-05
2.3657e-12
-1.9164e-05
-2.09287e-13
-1.9164e-05
2.62465e-12
-1.9164e-05
-1.96169e-13
-1.9164e-05
2.55598e-12
-1.9164e-05
-2.60183e-13
-1.9164e-05
2.22037e-12
-1.9164e-05
-1.02021e-13
-1.9164e-05
1.73706e-12
-1.9164e-05
-3.43706e-13
-1.9164e-05
1.29404e-12
-1.9164e-05
3.42919e-13
-1.9164e-05
-2.84103e-13
-1.9164e-05
-1.40692e-13
1.2874e-12
-5.11591e-05
6.52952e-13
-5.11591e-05
1.7895e-12
-5.11591e-05
4.43202e-13
-5.11591e-05
-1.99971e-13
-5.11591e-05
-1.70261e-12
-5.11591e-05
1.11607e-12
-5.11591e-05
-3.34416e-12
-5.11591e-05
1.20515e-12
-5.11591e-05
-3.3728e-12
-5.11591e-05
9.64039e-13
-5.11591e-05
-3.25473e-12
-5.11591e-05
6.12248e-13
-5.11591e-05
-2.5521e-12
-5.11591e-05
2.93588e-13
-5.11591e-05
-2.40465e-12
-5.11591e-05
2.63149e-13
-5.11591e-05
-5.45809e-13
-5.11591e-05
-1.68438e-12
-5.11591e-05
-9.59063e-13
2.85315e-12
-7.68214e-05
1.22412e-12
-7.68214e-05
2.20026e-12
-7.68214e-05
-1.04585e-13
-7.68214e-05
-2.17928e-12
-7.68214e-05
-3.87267e-12
-7.68214e-05
-9.51067e-13
-7.68214e-05
-6.48257e-12
-7.68214e-05
-1.10222e-12
-7.68214e-05
-6.4592e-12
-7.68214e-05
-1.5277e-12
-7.68214e-05
-6.05682e-12
-7.68214e-05
-1.79912e-12
-7.68214e-05
-4.78243e-12
-7.68214e-05
-1.7898e-12
-7.68214e-05
-4.18757e-12
-7.68214e-05
-1.20017e-12
-7.68214e-05
-1.28414e-12
-7.68214e-05
-3.20341e-12
-7.68214e-05
-1.55677e-12
4.81562e-12
-9.61509e-05
2.29063e-12
-9.61509e-05
3.20128e-12
-9.61509e-05
-3.42721e-13
-9.61509e-05
-3.75188e-12
-9.61509e-05
-5.55924e-12
-9.61509e-05
-2.73635e-12
-9.61509e-05
-8.96936e-12
-9.61509e-05
-3.103e-12
-9.61509e-05
-8.85878e-12
-9.61509e-05
-3.71758e-12
-9.61509e-05
-8.17801e-12
-9.61509e-05
-3.93162e-12
-9.61509e-05
-6.41901e-12
-9.61509e-05
-3.64865e-12
-9.61509e-05
-5.46394e-12
-9.61509e-05
-2.50865e-12
-9.61509e-05
-1.73489e-12
-9.61509e-05
-4.61506e-12
-9.61509e-05
-1.76432e-12
6.9648e-12
-0.000109148
3.73962e-12
-0.000109148
4.62927e-12
-0.000109148
-2.69352e-13
-0.000109148
-4.84354e-12
-0.000109148
-6.76447e-12
-0.000109148
-4.08769e-12
-0.000109148
-1.07352e-11
-0.000109148
-4.67464e-12
-0.000109148
-1.04825e-11
-0.000109148
-5.47625e-12
-0.000109148
-9.53285e-12
-0.000109148
-5.67564e-12
-0.000109148
-7.38588e-12
-0.000109148
-5.17537e-12
-0.000109148
-6.18224e-12
-0.000109148
-3.61581e-12
-0.000109148
-1.83831e-12
-0.000109148
-5.79071e-12
-0.000109148
-1.64292e-12
9.236e-12
-0.000115812
5.40725e-12
-0.000115812
6.22946e-12
-0.000115812
-5.04284e-14
-0.000115812
-5.57715e-12
-0.000115812
-7.65399e-12
-0.000115812
-5.1938e-12
-0.000115812
-1.19248e-11
-0.000115812
-6.05287e-12
-0.000115812
-1.14972e-11
-0.000115812
-7.03931e-12
-0.000115812
-1.0294e-11
-0.000115812
-7.24965e-12
-0.000115812
-7.85556e-12
-0.000115812
-6.54812e-12
-0.000115812
-6.47723e-12
-0.000115812
-4.66908e-12
-0.000115812
-1.73765e-12
-0.000115812
-6.7044e-12
-0.000115812
-1.31724e-12
1.14003e-11
-0.000116143
7.13474e-12
-0.000116143
7.78612e-12
-0.000116143
2.1088e-13
-0.000116143
-6.02393e-12
-0.000116143
-8.29224e-12
-0.000116143
-6.15483e-12
-0.000116143
-1.25972e-11
-0.000116143
-7.34885e-12
-0.000116143
-1.19843e-11
-0.000116143
-8.51285e-12
-0.000116143
-1.05549e-11
-0.000116143
-8.74377e-12
-0.000116143
-7.93047e-12
-0.000116143
-7.84081e-12
-0.000116143
-6.43154e-12
-0.000116143
-5.71191e-12
-0.000116143
-1.55606e-12
-0.000116143
-7.30752e-12
-0.000116143
-8.9024e-13
1.32499e-11
-0.000110141
8.77125e-12
-0.000110141
9.11668e-12
-0.000110141
4.51832e-13
-0.000110141
-6.23738e-12
-0.000110141
-8.68294e-12
-0.000110141
-7.01848e-12
-0.000110141
-1.27751e-11
-0.000110141
-8.5936e-12
-0.000110141
-1.19888e-11
-0.000110141
-9.9191e-12
-0.000110141
-1.03775e-11
-0.000110141
-1.01637e-11
-0.000110141
-7.6841e-12
-0.000110141
-9.05951e-12
-0.000110141
-6.11013e-12
-0.000110141
-6.71599e-12
-0.000110141
-1.40855e-12
-0.000110141
-7.55446e-12
-0.000110141
-4.43443e-13
1.46014e-11
-9.78066e-05
1.01768e-11
-9.78066e-05
1.00735e-11
-9.78066e-05
6.28614e-13
-9.78066e-05
-6.2636e-12
-9.78066e-05
-8.80506e-12
-9.78066e-05
-7.79858e-12
-9.78066e-05
-1.24798e-11
-9.78066e-05
-9.76307e-12
-9.78066e-05
-1.15552e-11
-9.78066e-05
-1.12224e-11
-9.78066e-05
-9.82378e-12
-9.78066e-05
-1.14568e-11
-9.78066e-05
-7.1852e-12
-9.78066e-05
-1.0164e-11
-9.78066e-05
-5.57927e-12
-9.78066e-05
-7.60146e-12
-9.78066e-05
-1.40089e-12
-9.78066e-05
-7.41983e-12
-9.78066e-05
-2.99492e-14
1.53152e-11
-7.91394e-05
1.1226e-11
-7.91394e-05
1.05452e-11
-7.91394e-05
7.09575e-13
-7.91394e-05
-6.15154e-12
-7.91394e-05
-8.63833e-12
-7.91394e-05
-8.48268e-12
-7.91394e-05
-1.17534e-11
-7.91394e-05
-1.07952e-11
-7.91394e-05
-1.07436e-11
-7.91394e-05
-1.23474e-11
-7.91394e-05
-8.96862e-12
-7.91394e-05
-1.25336e-11
-7.91394e-05
-6.50381e-12
-7.91394e-05
-1.10834e-11
-7.91394e-05
-4.91239e-12
-7.91394e-05
-8.25854e-12
-7.91394e-05
-1.60936e-12
-7.91394e-05
-6.9147e-12
-7.91394e-05
3.25437e-13
1.53151e-11
-5.41394e-05
1.1816e-11
-5.41394e-05
1.0462e-11
-5.41394e-05
6.7237e-13
-5.41394e-05
-5.95292e-12
-5.41394e-05
-8.18311e-12
-5.41394e-05
-9.03905e-12
-5.41394e-05
-1.06688e-11
-5.41394e-05
-1.16086e-11
-5.41394e-05
-9.63694e-12
-5.41394e-05
-1.32003e-11
-5.41394e-05
-7.90286e-12
-5.41394e-05
-1.32923e-11
-5.41394e-05
-5.71201e-12
-5.41394e-05
-1.17344e-11
-5.41394e-05
-4.18925e-12
-5.41394e-05
-8.57803e-12
-5.41394e-05
-2.06058e-12
-5.41394e-05
-6.09548e-12
-5.41394e-05
6.19467e-13
1.45967e-11
-2.28066e-05
1.18742e-11
-2.28066e-05
9.80287e-12
-2.28066e-05
5.06876e-13
-2.28066e-05
-5.71389e-12
-2.28066e-05
-7.47018e-12
-2.28066e-05
-9.41998e-12
-2.28066e-05
-9.32741e-12
-2.28066e-05
-1.21164e-11
-2.28066e-05
-8.33619e-12
-2.28066e-05
-1.36849e-11
-2.28066e-05
-6.72585e-12
-2.28066e-05
-1.36392e-11
-2.28066e-05
-4.87747e-12
-2.28066e-05
-1.20366e-11
-2.28066e-05
-3.48586e-12
-2.28066e-05
-8.48076e-12
-2.28066e-05
-2.71435e-12
-2.28066e-05
-5.05996e-12
-2.28066e-05
8.57333e-13
1.32284e-11
1.4859e-05
1.13676e-11
1.4859e-05
8.6033e-12
1.4859e-05
2.21221e-13
1.4859e-05
-5.46055e-12
1.4859e-05
-6.559e-12
1.4859e-05
-9.56278e-12
1.4859e-05
-7.84482e-12
1.4859e-05
-1.22352e-11
1.4859e-05
-6.94607e-12
1.4859e-05
-1.37139e-11
1.4859e-05
-5.52912e-12
1.4859e-05
-1.35018e-11
1.4859e-05
-4.05247e-12
1.4859e-05
-1.19219e-11
1.4859e-05
-2.85742e-12
1.4859e-05
-7.94351e-12
1.4859e-05
-3.4571e-12
1.4859e-05
-3.92922e-12
1.4859e-05
1.04011e-12
1.13407e-11
5.88573e-05
1.03089e-11
5.88573e-05
6.96179e-12
5.88573e-05
-1.50294e-13
5.88573e-05
-5.18211e-12
5.88573e-05
-5.52338e-12
5.88573e-05
-9.38975e-12
5.88573e-05
-6.32607e-12
5.88573e-05
-1.18872e-11
5.88573e-05
-5.55219e-12
5.88573e-05
-1.32132e-11
5.88573e-05
-4.3742e-12
5.88573e-05
-1.28336e-11
5.88573e-05
-3.26019e-12
5.88573e-05
-1.13406e-11
5.88573e-05
-2.31754e-12
5.88573e-05
-7.01025e-12
5.88573e-05
-4.11231e-12
5.88573e-05
-2.81879e-12
5.88573e-05
1.15686e-12
9.11008e-12
0.000109188
8.76214e-12
0.000109188
5.04548e-12
0.000109188
-5.43962e-13
0.000109188
-4.82099e-12
0.000109188
-4.43165e-12
0.000109188
-8.8104e-12
0.000109188
-4.84289e-12
0.000109188
-1.0998e-11
0.000109188
-4.20164e-12
0.000109188
-1.2118e-11
0.000109188
-3.27558e-12
0.000109188
-1.1606e-11
0.000109188
-2.48556e-12
0.000109188
-1.02591e-11
0.000109188
-1.82401e-12
0.000109188
-5.78279e-12
0.000109188
-4.46459e-12
0.000109188
-1.81237e-12
0.000109188
1.19162e-12
6.74157e-12
0.000165852
6.84516e-12
0.000165852
3.09171e-12
0.000165852
-8.54112e-13
0.000165852
-4.25913e-12
0.000165852
-3.30553e-12
0.000165852
-7.71456e-12
0.000165852
-3.3907e-12
0.000165852
-9.48485e-12
0.000165852
-2.86289e-12
0.000165852
-1.03623e-11
0.000165852
-2.16763e-12
0.000165852
-9.79044e-12
0.000165852
-1.65193e-12
0.000165852
-8.64907e-12
0.000165852
-1.26167e-12
0.000165852
-4.38431e-12
0.000165852
-4.30176e-12
0.000165852
-9.29917e-13
0.000165852
1.13876e-12
4.45163e-12
0.000228849
4.76234e-12
0.000228849
1.42069e-12
0.000228849
-9.11441e-13
0.000228849
-3.30588e-12
0.000228849
-2.04384e-12
0.000228849
-5.94459e-12
0.000228849
-1.81032e-12
0.000228849
-7.2069e-12
0.000228849
-1.34546e-12
0.000228849
-7.82053e-12
0.000228849
-8.34118e-13
0.000228849
-7.29338e-12
0.000228849
-5.58695e-13
0.000228849
-6.43749e-12
0.000228849
-4.12246e-13
0.000228849
-2.85654e-12
0.000228849
-3.44093e-12
0.000228849
-1.06099e-13
0.000228849
1.06329e-12
2.46684e-12
0.000298179
2.6376e-12
0.000298179
2.68354e-13
0.000298179
-7.24429e-13
0.000298179
-1.99624e-12
0.000298179
-7.885e-13
0.000298179
-3.62618e-12
0.000298179
-2.78525e-13
0.000298179
-4.31665e-12
0.000298179
1.5608e-13
0.000298179
-4.64902e-12
0.000298179
5.35784e-13
0.000298179
-4.25985e-12
0.000298179
6.2925e-13
0.000298179
-3.74889e-12
0.000298179
6.02961e-13
0.000298179
-1.31075e-12
0.000298179
-1.93527e-12
0.000298179
5.52793e-13
0.000298179
1.04123e-12
1.00181e-12
0.000373841
9.12647e-13
0.000373841
6.92082e-14
0.000373841
-3.47696e-14
0.000373841
-1.45467e-13
0.000373841
7.70309e-13
0.000373841
-6.34864e-13
0.000373841
1.54962e-12
0.000373841
-6.92959e-13
0.000373841
1.98749e-12
0.000373841
-7.40912e-13
0.000373841
2.24591e-12
0.000373841
-5.84371e-13
0.000373841
2.15569e-12
0.000373841
-5.17152e-13
0.000373841
1.91755e-12
0.000373841
4.39501e-13
0.000373841
1.19342e-13
0.000373841
1.1216e-12
0.000373841
1.26095e-12
2.39968e-13
0.000455836
0.000455836
0.000455836
0.000455836
0.000455836
0.000455836
0.000455836
0.000455836
0.000455836
0.000455836
0.000455836
0.000455836
0.000455836
0.000455836
0.000455836
0.000455836
0.000455836
0.000455836
0.000455836
)
;

boundaryField
{
    top
    {
        type            calculated;
        value           uniform 0;
    }
    bottom
    {
        type            calculated;
        value           uniform 0;
    }
    inlet
    {
        type            calculated;
        value           nonuniform List<scalar> 
20
(
1.9164e-05
5.11591e-05
7.68214e-05
9.61509e-05
0.000109148
0.000115812
0.000116143
0.000110141
9.78066e-05
7.91394e-05
5.41394e-05
2.28066e-05
-1.4859e-05
-5.88573e-05
-0.000109188
-0.000165852
-0.000228849
-0.000298179
-0.000373841
-0.000455836
)
;
    }
    outlet
    {
        type            calculated;
        value           nonuniform List<scalar> 
20
(
-1.9164e-05
-5.11591e-05
-7.68214e-05
-9.61509e-05
-0.000109148
-0.000115812
-0.000116143
-0.000110141
-9.78066e-05
-7.91394e-05
-5.41394e-05
-2.28066e-05
1.4859e-05
5.88573e-05
0.000109188
0.000165852
0.000228849
0.000298179
0.000373841
0.000455836
)
;
    }
    frontAndBack
    {
        type            empty;
        value           nonuniform 0();
    }
}


// ************************************************************************* //
