/*--------------------------------*- C++ -*----------------------------------*\
| =========                 |                                                 |
| \\      /  F ield         | OpenFOAM: The Open Source CFD Toolbox           |
|  \\    /   O peration     | Version:  4.1                                   |
|   \\  /    A nd           | Web:      www.OpenFOAM.org                      |
|    \\/     M anipulation  |                                                 |
\*---------------------------------------------------------------------------*/
FoamFile
{
    version     2.0;
    format      ascii;
    class       volVectorField;
    location    "1.8";
    object      U;
}
// * * * * * * * * * * * * * * * * * * * * * * * * * * * * * * * * * * * * * //

dimensions      [0 1 -1 0 0 0 0];

internalField   nonuniform List<vector> 
400
(
(-0.383279 1.21004e-11 0)
(-0.383279 1.00732e-10 0)
(-0.383279 -2.44866e-10 0)
(-0.383279 -3.62536e-10 0)
(-0.383279 -6.19624e-10 0)
(-0.383279 -4.21159e-10 0)
(-0.383279 -9.47372e-10 0)
(-0.383279 -5.06401e-10 0)
(-0.383279 -1.02454e-09 0)
(-0.383279 -5.80691e-10 0)
(-0.383279 -1.01595e-09 0)
(-0.383279 -5.9904e-10 0)
(-0.383279 -8.8806e-10 0)
(-0.383279 -5.58848e-10 0)
(-0.383279 -7.62741e-10 0)
(-0.383279 -4.48417e-10 0)
(-0.383279 -4.36838e-10 0)
(-0.383279 -4.84109e-10 0)
(-0.383279 -3.39082e-10 0)
(-0.383279 1.23718e-10 0)
(-1.02318 5.19018e-10 0)
(-1.02318 1.83567e-09 0)
(-1.02318 1.31509e-09 0)
(-1.02318 1.27921e-09 0)
(-1.02318 -5.19231e-11 0)
(-1.02318 3.12007e-09 0)
(-1.02318 -1.10141e-09 0)
(-1.02318 3.44236e-09 0)
(-1.02318 -9.9136e-10 0)
(-1.02318 3.31705e-09 0)
(-1.02318 -9.73016e-10 0)
(-1.02318 2.83387e-09 0)
(-1.02318 -5.65544e-10 0)
(-1.02318 2.22017e-09 0)
(-1.02318 -8.28701e-10 0)
(-1.02318 1.65956e-09 0)
(-1.02318 4.99842e-10 0)
(-1.02318 -6.05807e-10 0)
(-1.02318 -4.64687e-10 0)
(-1.02318 2.47308e-09 0)
(-1.53643 7.02454e-10 0)
(-1.53643 1.50179e-09 0)
(-1.53643 -4.11852e-10 0)
(-1.53643 -1.91806e-09 0)
(-1.53643 -3.47655e-09 0)
(-1.53643 -1.08536e-09 0)
(-1.53643 -5.68233e-09 0)
(-1.53643 -1.28817e-09 0)
(-1.53643 -5.77685e-09 0)
(-1.53643 -1.66242e-09 0)
(-1.53643 -5.499e-09 0)
(-1.53643 -1.87981e-09 0)
(-1.53643 -4.46069e-09 0)
(-1.53643 -1.83479e-09 0)
(-1.53643 -3.89287e-09 0)
(-1.53643 -1.32548e-09 0)
(-1.53643 -1.44533e-09 0)
(-1.53643 -2.7687e-09 0)
(-1.53643 -1.56587e-09 0)
(-1.53643 3.36709e-09 0)
(-1.92302 1.72724e-09 0)
(-1.92302 2.69692e-09 0)
(-1.92302 -7.22848e-11 0)
(-1.92302 -2.76653e-09 0)
(-1.92302 -4.49269e-09 0)
(-1.92302 -1.55208e-09 0)
(-1.92302 -7.43648e-09 0)
(-1.92302 -1.77588e-09 0)
(-1.92302 -7.33819e-09 0)
(-1.92302 -2.28873e-09 0)
(-1.92302 -6.79539e-09 0)
(-1.92302 -2.55804e-09 0)
(-1.92302 -5.30973e-09 0)
(-1.92302 -2.45239e-09 0)
(-1.92302 -4.58519e-09 0)
(-1.92302 -1.67048e-09 0)
(-1.92302 -1.33542e-09 0)
(-1.92302 -3.74625e-09 0)
(-1.92302 -1.68664e-09 0)
(-1.92302 5.92462e-09 0)
(-2.18295 2.99756e-09 0)
(-2.18295 3.90883e-09 0)
(-2.18295 -2.97677e-10 0)
(-2.18295 -4.24701e-09 0)
(-2.18295 -6.09199e-09 0)
(-2.18295 -3.39251e-09 0)
(-2.18295 -9.75352e-09 0)
(-2.18295 -3.85749e-09 0)
(-2.18295 -9.57137e-09 0)
(-2.18295 -4.56577e-09 0)
(-2.18295 -8.75468e-09 0)
(-2.18295 -4.77188e-09 0)
(-2.18295 -6.82122e-09 0)
(-2.18295 -4.38617e-09 0)
(-2.18295 -5.73954e-09 0)
(-2.18295 -3.05002e-09 0)
(-2.18295 -1.77215e-09 0)
(-2.18295 -5.13837e-09 0)
(-2.18295 -1.74213e-09 0)
(-2.18295 8.03962e-09 0)
(-2.31623 4.58606e-09 0)
(-2.31623 5.4576e-09 0)
(-2.31623 -1.53591e-10 0)
(-2.31623 -5.17074e-09 0)
(-2.31623 -7.14597e-09 0)
(-2.31623 -4.63442e-09 0)
(-2.31623 -1.12449e-08 0)
(-2.31623 -5.33913e-09 0)
(-2.31623 -1.09018e-08 0)
(-2.31623 -6.23098e-09 0)
(-2.31623 -9.82039e-09 0)
(-2.31623 -6.43036e-09 0)
(-2.31623 -7.54165e-09 0)
(-2.31623 -5.83549e-09 0)
(-2.31623 -6.24533e-09 0)
(-2.31623 -4.1164e-09 0)
(-2.31623 -1.77453e-09 0)
(-2.31623 -6.19155e-09 0)
(-2.31623 -1.48222e-09 0)
(-2.31623 1.03017e-08 0)
(-2.32285 6.31565e-09 0)
(-2.32285 7.07146e-09 0)
(-2.32285 9.00049e-11 0)
(-2.32285 -5.77798e-09 0)
(-2.32285 -7.91566e-09 0)
(-2.32285 -5.67653e-09 0)
(-2.32285 -1.21906e-08 0)
(-2.32285 -6.68042e-09 0)
(-2.32285 -1.16633e-08 0)
(-2.32285 -7.7511e-09 0)
(-2.32285 -1.03397e-08 0)
(-2.32285 -7.96251e-09 0)
(-2.32285 -7.81596e-09 0)
(-2.32285 -7.16642e-09 0)
(-2.32285 -6.37339e-09 0)
(-2.32285 -5.15062e-09 0)
(-2.32285 -1.62856e-09 0)
(-2.32285 -6.96602e-09 0)
(-2.32285 -1.06373e-09 0)
(-2.32285 1.23595e-08 0)
(-2.20282 8.03188e-09 0)
(-2.20282 8.5555e-09 0)
(-2.20282 3.41128e-10 0)
(-2.20282 -6.11265e-09 0)
(-2.20282 -8.43888e-09 0)
(-2.20282 -6.59498e-09 0)
(-2.20282 -1.26304e-08 0)
(-2.20282 -7.95502e-09 0)
(-2.20282 -1.19234e-08 0)
(-2.20282 -9.19363e-09 0)
(-2.20282 -1.03956e-08 0)
(-2.20282 -9.41951e-09 0)
(-2.20282 -7.73968e-09 0)
(-2.20282 -8.42316e-09 0)
(-2.20282 -6.19976e-09 0)
(-2.20282 -6.16413e-09 0)
(-2.20282 -1.4661e-09 0)
(-2.20282 -7.4079e-09 0)
(-2.20282 -5.84615e-10 0)
(-2.20282 1.40005e-08 0)
(-1.95613 9.58489e-09 0)
(-1.95613 9.739e-09 0)
(-1.95613 5.59502e-10 0)
(-1.95613 -6.23293e-09 0)
(-1.95613 -8.699e-09 0)
(-1.95613 -7.41026e-09 0)
(-1.95613 -1.25825e-08 0)
(-1.95613 -9.15516e-09 0)
(-1.95613 -1.17188e-08 0)
(-1.95613 -1.05406e-08 0)
(-1.95613 -1.00411e-08 0)
(-1.95613 -1.07683e-08 0)
(-1.95613 -7.37366e-09 0)
(-1.95613 -9.5793e-09 0)
(-1.95613 -5.78483e-09 0)
(-1.95613 -7.09759e-09 0)
(-1.95613 -1.38463e-09 0)
(-1.95613 -7.48424e-09 0)
(-1.95613 -1.17433e-10 0)
(-1.95613 1.50692e-08 0)
(-1.58279 1.0838e-08 0)
(-1.58279 1.04877e-08 0)
(-1.58279 7.01992e-10 0)
(-1.58279 -6.18577e-09 0)
(-1.58279 -8.67981e-09 0)
(-1.58279 -8.13007e-09 0)
(-1.58279 -1.20819e-08 0)
(-1.58279 -1.02456e-08 0)
(-1.58279 -1.11071e-08 0)
(-1.58279 -1.17445e-08 0)
(-1.58279 -9.35004e-09 0)
(-1.58279 -1.19452e-08 0)
(-1.58279 -6.79341e-09 0)
(-1.58279 -1.05855e-08 0)
(-1.58279 -5.20181e-09 0)
(-1.58279 -7.86035e-09 0)
(-1.58279 -1.4812e-09 0)
(-1.58279 -7.18643e-09 0)
(-1.58279 2.91766e-10 0)
(-1.58279 1.54567e-08 0)
(-1.08279 1.16735e-08 0)
(-1.08279 1.07061e-08 0)
(-1.08279 7.39792e-10 0)
(-1.08279 -6.02243e-09 0)
(-1.08279 -8.3715e-09 0)
(-1.08279 -8.73432e-09 0)
(-1.08279 -1.11857e-08 0)
(-1.08279 -1.1156e-08 0)
(-1.08279 -1.01594e-08 0)
(-1.08279 -1.27223e-08 0)
(-1.08279 -8.40452e-09 0)
(-1.08279 -1.28558e-08 0)
(-1.08279 -6.0695e-09 0)
(-1.08279 -1.13655e-08 0)
(-1.08279 -4.52577e-09 0)
(-1.08279 -8.34656e-09 0)
(-1.08279 -1.80808e-09 0)
(-1.08279 -6.5456e-09 0)
(-1.08279 6.25506e-10 0)
(-1.08279 1.51189e-08 0)
(-0.456132 1.20006e-08 0)
(-0.456132 1.03441e-08 0)
(-0.456132 6.53802e-10 0)
(-0.456132 -5.79405e-09 0)
(-0.456132 -7.78956e-09 0)
(-0.456132 -9.18617e-09 0)
(-0.456132 -9.98037e-09 0)
(-0.456132 -1.18045e-08 0)
(-0.456132 -8.9665e-09 0)
(-0.456132 -1.33807e-08 0)
(-0.456132 -7.298e-09 0)
(-0.456132 -1.34034e-08 0)
(-0.456132 -5.27049e-09 0)
(-0.456132 -1.18384e-08 0)
(-0.456132 -3.83238e-09 0)
(-0.456132 -8.46217e-09 0)
(-0.456132 -2.35955e-09 0)
(-0.456132 -5.63595e-09 0)
(-0.456132 8.83869e-10 0)
(-0.456132 1.40778e-08 0)
(0.297179 1.17656e-08 0)
(0.297179 9.40471e-09 0)
(0.297179 4.3964e-10 0)
(0.297179 -5.53953e-09 0)
(0.297179 -6.97935e-09 0)
(0.297179 -9.43335e-09 0)
(0.297179 -8.57392e-09 0)
(0.297179 -1.21079e-08 0)
(0.297179 -7.63034e-09 0)
(0.297179 -1.36288e-08 0)
(0.297179 -6.12446e-09 0)
(0.297179 -1.35042e-08 0)
(0.297179 -4.45476e-09 0)
(0.297179 -1.19293e-08 0)
(0.297179 -3.18517e-09 0)
(0.297179 -8.15099e-09 0)
(0.297179 -3.05898e-09 0)
(0.297179 -4.56481e-09 0)
(0.297179 1.07181e-09 0)
(0.297179 1.24371e-08 0)
(1.17715 1.09614e-08 0)
(1.17715 7.95515e-09 0)
(1.17715 1.19824e-10 0)
(1.17715 -5.2638e-09 0)
(1.17715 -6.0005e-09 0)
(1.17715 -9.40346e-09 0)
(1.17715 -7.06694e-09 0)
(1.17715 -1.19848e-08 0)
(1.17715 -6.23531e-09 0)
(1.17715 -1.33871e-08 0)
(1.17715 -4.94969e-09 0)
(1.17715 -1.3099e-08 0)
(1.17715 -3.65068e-09 0)
(1.17715 -1.15779e-08 0)
(1.17715 -2.6106e-09 0)
(1.17715 -7.4218e-09 0)
(1.17715 -3.76414e-09 0)
(1.17715 -3.44248e-09 0)
(1.17715 1.18867e-09 0)
(1.17715 1.03487e-08 0)
(2.18377 9.61419e-09 0)
(2.18377 6.12266e-09 0)
(2.18377 -2.7122e-10 0)
(2.18377 -4.94762e-09 0)
(2.18377 -4.94372e-09 0)
(2.18377 -9.01907e-09 0)
(2.18377 -5.57342e-09 0)
(2.18377 -1.13581e-08 0)
(2.18377 -4.87375e-09 0)
(2.18377 -1.25798e-08 0)
(2.18377 -3.83616e-09 0)
(2.18377 -1.21457e-08 0)
(2.18377 -2.88067e-09 0)
(2.18377 -1.07383e-08 0)
(2.18377 -2.10961e-09 0)
(2.18377 -6.34502e-09 0)
(2.18377 -4.2642e-09 0)
(2.18377 -2.38951e-09 0)
(2.18377 1.22958e-09 0)
(2.18377 8.01183e-09 0)
(3.31705 7.82631e-09 0)
(3.31705 4.11242e-09 0)
(3.31705 -6.42558e-10 0)
(3.31705 -4.49359e-09 0)
(3.31705 -3.84401e-09 0)
(3.31705 -8.17953e-09 0)
(3.31705 -4.10977e-09 0)
(3.31705 -1.01555e-08 0)
(3.31705 -3.53574e-09 0)
(3.31705 -1.11557e-08 0)
(3.31705 -2.7411e-09 0)
(3.31705 -1.06273e-08 0)
(3.31705 -2.08739e-09 0)
(3.31705 -9.38556e-09 0)
(3.31705 -1.59106e-09 0)
(3.31705 -5.04263e-09 0)
(3.31705 -4.3602e-09 0)
(3.31705 -1.42791e-09 0)
(3.31705 1.17944e-09 0)
(3.31705 5.63391e-09 0)
(4.57698 5.89783e-09 0)
(4.57698 2.31741e-09 0)
(4.57698 -6.73792e-10 0)
(4.57698 -3.54549e-09 0)
(4.57698 -2.35743e-09 0)
(4.57698 -6.50462e-09 0)
(4.57698 -2.20748e-09 0)
(4.57698 -7.98316e-09 0)
(4.57698 -1.68094e-09 0)
(4.57698 -8.73548e-09 0)
(4.57698 -1.09157e-09 0)
(4.57698 -8.22782e-09 0)
(4.57698 -7.46363e-10 0)
(4.57698 -7.27728e-09 0)
(4.57698 -5.69071e-10 0)
(4.57698 -3.41423e-09 0)
(4.57698 -3.71663e-09 0)
(4.57698 -3.72741e-10 0)
(4.57698 1.1361e-09 0)
(4.57698 3.44504e-09 0)
(5.96357 3.22673e-09 0)
(5.96357 3.23876e-10 0)
(5.96357 -1.42831e-09 0)
(5.96357 -3.33196e-09 0)
(5.96357 -2.44342e-09 0)
(5.96357 -5.57301e-09 0)
(5.96357 -2.34983e-09 0)
(5.96357 -6.63514e-09 0)
(5.96357 -2.03843e-09 0)
(5.96357 -7.09532e-09 0)
(5.96357 -1.59949e-09 0)
(5.96357 -6.58718e-09 0)
(5.96357 -1.26657e-09 0)
(5.96357 -5.7572e-09 0)
(5.96357 -9.77026e-10 0)
(5.96357 -2.70121e-09 0)
(5.96357 -3.18254e-09 0)
(5.96357 -3.03739e-10 0)
(5.96357 6.52387e-10 0)
(5.96357 1.573e-09 0)
(7.47682 2.14098e-09 0)
(7.47682 3.44203e-10 0)
(7.47682 2.03591e-10 0)
(7.47682 -3.60063e-10 0)
(7.47682 1.12092e-09 0)
(7.47682 -1.33872e-09 0)
(7.47682 2.16118e-09 0)
(7.47682 -1.65575e-09 0)
(7.47682 2.77369e-09 0)
(7.47682 -1.88971e-09 0)
(7.47682 3.11828e-09 0)
(7.47682 -1.68987e-09 0)
(7.47682 2.92659e-09 0)
(7.47682 -1.55027e-09 0)
(7.47682 2.55677e-09 0)
(7.47682 1.08033e-10 0)
(7.47682 -4.58683e-10 0)
(7.47682 1.6117e-09 0)
(7.47682 1.35182e-09 0)
(7.47682 4.44205e-10 0)
(9.11672 -2.38926e-11 0)
(9.11672 -3.99435e-10 0)
(9.11672 -6.45371e-10 0)
(9.11672 -8.00824e-10 0)
(9.11672 -8.15497e-10 0)
(9.11672 -1.10034e-09 0)
(9.11672 -8.36125e-10 0)
(9.11672 -1.22309e-09 0)
(9.11672 -8.08102e-10 0)
(9.11672 -1.22782e-09 0)
(9.11672 -7.13024e-10 0)
(9.11672 -1.10013e-09 0)
(9.11672 -5.70766e-10 0)
(9.11672 -9.20466e-10 0)
(9.11672 -4.30924e-10 0)
(9.11672 -4.42694e-10 0)
(9.11672 -4.94693e-10 0)
(9.11672 -1.90295e-10 0)
(9.11672 1.71237e-10 0)
(9.11672 9.20275e-11 0)
)
;

boundaryField
{
    top
    {
        type            fixedValue;
        value           uniform (10 0 0);
    }
    bottom
    {
        type            fixedValue;
        value           uniform (0 0 0);
    }
    inlet
    {
        type            zeroGradient;
    }
    outlet
    {
        type            zeroGradient;
    }
    frontAndBack
    {
        type            empty;
    }
}


// ************************************************************************* //
