/*--------------------------------*- C++ -*----------------------------------*\
| =========                 |                                                 |
| \\      /  F ield         | OpenFOAM: The Open Source CFD Toolbox           |
|  \\    /   O peration     | Version:  4.1                                   |
|   \\  /    A nd           | Web:      www.OpenFOAM.org                      |
|    \\/     M anipulation  |                                                 |
\*---------------------------------------------------------------------------*/
FoamFile
{
    version     2.0;
    format      ascii;
    class       surfaceScalarField;
    location    "0.3";
    object      phi;
}
// * * * * * * * * * * * * * * * * * * * * * * * * * * * * * * * * * * * * * //

dimensions      [0 3 -1 0 0 0 0];

internalField   nonuniform List<scalar> 
760
(
3.02253e-05
2.42429e-10
3.02248e-05
4.92159e-10
3.02257e-05
-8.42277e-10
3.02255e-05
1.71934e-10
3.02256e-05
-1.1747e-10
3.02257e-05
-3.27487e-11
3.02256e-05
7.00147e-11
3.02257e-05
-9.35509e-11
3.02256e-05
1.25519e-10
3.02257e-05
-1.53695e-10
3.02256e-05
1.20483e-10
3.02257e-05
-9.26603e-11
3.02256e-05
1.0534e-10
3.02256e-05
-7.50308e-11
3.02256e-05
8.07974e-12
3.02256e-05
4.43019e-11
3.02257e-05
-1.1996e-10
3.02253e-05
3.59461e-10
3.0225e-05
3.39832e-10
-7.06933e-10
8.43789e-05
7.9844e-10
8.43781e-05
1.31326e-09
8.43794e-05
-2.15544e-09
8.43794e-05
1.88745e-10
8.43795e-05
-2.41123e-10
8.43795e-05
-1.01372e-10
8.43794e-05
1.68613e-10
8.43796e-05
-2.34141e-10
8.43794e-05
2.79314e-10
8.43796e-05
-3.27338e-10
8.43794e-05
2.77535e-10
8.43796e-05
-2.19681e-10
8.43794e-05
2.29184e-10
8.43795e-05
-1.63638e-10
8.43795e-05
2.668e-11
8.43794e-05
9.79204e-11
8.43797e-05
-3.28368e-10
8.43788e-05
1.24162e-09
8.43782e-05
9.2681e-10
-1.85548e-09
0.000132306
1.46035e-09
0.000132305
2.2005e-09
0.000132306
-3.22541e-09
0.000132306
3.42401e-11
0.000132306
-2.9122e-10
0.000132306
-1.78775e-10
0.000132306
2.50828e-10
0.000132306
-3.45344e-10
0.000132306
3.86302e-10
0.000132306
-4.42517e-10
0.000132306
3.87504e-10
0.000132306
-3.09285e-10
0.000132306
3.11349e-10
0.000132306
-2.2433e-10
0.000132306
3.92934e-11
0.000132306
1.50765e-10
0.000132306
-5.75477e-10
0.000132305
2.37682e-09
0.000132304
1.59406e-09
-2.98332e-09
0.000174072
2.02041e-09
0.000174072
3.07363e-09
0.000174072
-3.74495e-09
0.000174072
-1.45932e-10
0.000174072
-2.81884e-10
0.000174072
-2.40981e-10
0.000174072
3.07241e-10
0.000174072
-4.12066e-10
0.000174072
4.4598e-10
0.000174072
-5.05649e-10
0.000174072
4.4562e-10
0.000174072
-3.55794e-10
0.000174072
3.54641e-10
0.000174072
-2.58051e-10
0.000174072
4.04315e-11
0.000174072
2.06064e-10
0.000174073
-8.33999e-10
0.000174071
3.53435e-09
0.000174071
2.30272e-09
-3.9081e-09
0.000209743
2.32511e-09
0.000209742
3.83583e-09
0.000209742
-3.55944e-09
0.000209742
-2.556e-10
0.000209742
-2.30001e-10
0.000209742
-2.72489e-10
0.000209742
3.31573e-10
0.000209742
-4.31328e-10
0.000209742
4.58797e-10
0.000209742
-5.17948e-10
0.000209742
4.54515e-10
0.000209742
-3.61522e-10
0.000209742
3.60878e-10
0.000209742
-2.64918e-10
0.000209742
2.94259e-11
0.000209742
2.59623e-10
0.000209742
-1.06499e-09
0.000209741
4.53951e-09
0.00020974
3.001e-09
-4.49576e-09
0.000239373
2.27969e-09
0.000239373
4.39296e-09
0.000239372
-2.63861e-09
0.000239372
-2.31126e-10
0.000239372
-1.46096e-10
0.000239372
-2.65929e-10
0.000239372
3.21887e-10
0.000239372
-4.04627e-10
0.000239372
4.27916e-10
0.000239372
-4.8319e-10
0.000239372
4.19331e-10
0.000239372
-3.30614e-10
0.000239372
3.33669e-10
0.000239372
-2.47388e-10
0.000239372
7.7215e-12
0.000239372
3.05208e-10
0.000239372
-1.23123e-09
0.000239371
5.26085e-09
0.000239371
3.62098e-09
-4.66814e-09
0.000263015
1.85602e-09
0.000263014
4.67059e-09
0.000263013
-1.06605e-09
0.000263013
-4.86206e-11
0.000263012
-3.81705e-11
0.000263012
-2.21017e-10
0.000263012
2.80024e-10
0.000263012
-3.37005e-10
0.000263012
3.58888e-10
0.000263012
-4.07658e-10
0.000263012
3.46976e-10
0.000263012
-2.68698e-10
0.000263012
2.78199e-10
0.000263012
-2.0938e-10
0.000263012
-2.17928e-11
0.000263012
3.36066e-10
0.000263012
-1.30376e-09
0.000263012
5.61483e-09
0.000263012
4.08983e-09
-4.4057e-09
0.000280708
1.09381e-09
0.000280708
4.629e-09
0.000280706
9.81565e-10
0.000280705
2.75093e-10
0.000280705
8.52949e-11
0.000280705
-1.43416e-10
0.000280705
2.10835e-10
0.000280705
-2.36329e-10
0.000280705
2.59301e-10
0.000280705
-2.99698e-10
0.000280705
2.45636e-10
0.000280705
-1.82588e-10
0.000280705
2.00814e-10
0.000280705
-1.55676e-10
0.000280705
-5.55376e-11
0.000280705
3.46927e-10
0.000280705
-1.26745e-09
0.000280705
5.56859e-09
0.000280705
4.34478e-09
-3.74388e-09
0.000292485
9.24466e-11
0.000292485
4.27167e-09
0.000292483
3.26349e-09
0.000292482
6.88408e-10
0.000292482
2.13873e-10
0.000292482
-4.34229e-11
0.000292482
1.21434e-10
0.000292482
-1.12596e-10
0.000292482
1.38347e-10
0.000292482
-1.69218e-10
0.000292482
1.24404e-10
0.000292482
-7.99746e-11
0.000292482
1.08623e-10
0.000292482
-9.15058e-11
0.000292482
-8.99231e-11
0.000292482
3.35605e-10
0.000292482
-1.12425e-09
0.000292482
5.139e-09
0.000292482
4.3469e-09
-2.7641e-09
0.000298367
-1.00661e-09
0.000298368
3.64502e-09
0.000298366
5.50891e-09
0.000298365
1.11682e-09
0.000298365
3.35518e-10
0.000298365
6.56493e-11
0.000298365
2.05153e-11
0.000298365
2.27822e-11
0.000298365
6.32933e-12
0.000298365
-2.7153e-11
0.000298365
-7.02993e-12
0.000298365
3.08793e-11
0.000298365
9.16716e-12
0.000298365
-2.22709e-11
0.000298365
-1.21814e-10
0.000298365
3.0368e-10
0.000298365
-8.93356e-10
0.000298366
4.38763e-09
0.000298366
4.08984e-09
-1.58139e-09
0.000298367
-2.0442e-09
0.000298368
2.83006e-09
0.000298366
7.45205e-09
0.000298366
1.47863e-09
0.000298365
4.38306e-10
0.000298365
1.69337e-10
0.000298365
-8.22828e-11
0.000298365
1.57716e-10
0.000298365
-1.25859e-10
0.000298365
1.15049e-10
0.000298365
-1.38676e-10
0.000298365
1.41438e-10
0.000298365
-8.98443e-11
0.000298365
4.66433e-11
0.000298365
-1.48722e-10
0.000298365
2.56089e-10
0.000298365
-6.07917e-10
0.000298366
3.41188e-09
0.000298367
3.60195e-09
-3.30037e-10
0.000292484
-2.87053e-09
0.000292484
1.92807e-09
0.000292483
8.86461e-09
0.000292483
1.70174e-09
0.000292483
5.12765e-10
0.000292483
2.53982e-10
0.000292483
-1.77018e-10
0.000292483
2.80191e-10
0.000292483
-2.47295e-10
0.000292483
2.45951e-10
0.000292483
-2.60526e-10
0.000292483
2.43185e-10
0.000292483
-1.80759e-10
0.000292483
1.09977e-10
0.000292483
-1.68761e-10
0.000292483
1.99835e-10
0.000292482
-3.09032e-10
0.000292484
2.3328e-09
0.000292484
2.94162e-09
8.51433e-10
0.000280706
-3.37019e-09
0.000280707
1.04411e-09
0.000280706
9.5822e-09
0.000280706
1.7384e-09
0.000280706
5.53745e-10
0.000280706
3.0854e-10
0.000280706
-2.54145e-10
0.000280706
3.78991e-10
0.000280706
-3.47577e-10
0.000280706
3.54634e-10
0.000280706
-3.62841e-10
0.000280706
3.27911e-10
0.000280706
-2.56196e-10
0.000280706
1.62675e-10
0.000280706
-1.80489e-10
0.000280706
1.42264e-10
0.000280706
-3.81358e-11
0.000280707
1.28033e-09
0.000280708
2.18761e-09
1.83472e-09
0.000263013
-3.48075e-09
0.000263013
2.71982e-10
0.000263014
9.52269e-09
0.000263014
1.57565e-09
0.000263014
5.60945e-10
0.000263014
3.26048e-10
0.000263014
-3.05316e-10
0.000263014
4.44383e-10
0.000263014
-4.17377e-10
0.000263014
4.31224e-10
0.000263014
-4.36446e-10
0.000263014
3.88e-10
0.000263014
-3.09291e-10
0.000263014
1.9998e-10
0.000263014
-1.82775e-10
0.000263014
8.95218e-11
0.000263014
1.70675e-10
0.000263014
3.76883e-10
0.000263015
1.42653e-09
2.51515e-09
0.000239371
-3.20256e-09
0.000239372
-3.16657e-10
0.000239373
8.69557e-09
0.000239373
1.23984e-09
0.000239373
5.37563e-10
0.000239373
3.04682e-10
0.000239373
-3.24299e-10
0.000239373
4.68761e-10
0.000239373
-4.48958e-10
0.000239373
4.67406e-10
0.000239373
-4.73038e-10
0.000239373
4.16721e-10
0.000239373
-3.33996e-10
0.000239373
2.17603e-10
0.000239373
-1.74835e-10
0.000239373
4.57121e-11
0.000239373
2.96807e-10
0.000239374
-2.79674e-10
0.000239375
7.40525e-10
2.8233e-09
0.000209741
-2.59941e-09
0.000209741
-6.77632e-10
0.000209743
7.20331e-09
0.000209743
7.95003e-10
0.000209743
4.87144e-10
0.000209743
2.48486e-10
0.000209743
-3.07957e-10
0.000209743
4.47259e-10
0.000209743
-4.3663e-10
0.000209743
4.56943e-10
0.000209743
-4.65556e-10
0.000209743
4.08512e-10
0.000209743
-3.2546e-10
0.000209743
2.12015e-10
0.000209743
-1.56447e-10
0.000209743
1.30233e-11
0.000209743
3.36484e-10
0.000209744
-6.32339e-10
0.000209744
1.97566e-10
2.73453e-09
0.000174071
-1.79217e-09
0.000174071
-7.94428e-10
0.000174073
5.23691e-09
0.000174073
3.36031e-10
0.000174073
4.09218e-10
0.000174074
1.67972e-10
0.000174074
-2.57225e-10
0.000174074
3.78428e-10
0.000174074
-3.77135e-10
0.000174074
3.96094e-10
0.000174074
-4.08676e-10
0.000174074
3.59285e-10
0.000174074
-2.80402e-10
0.000174074
1.80947e-10
0.000174074
-1.28364e-10
0.000174074
-7.3002e-12
0.000174074
3.02481e-10
0.000174074
-6.78618e-10
0.000174074
-1.53783e-10
2.27553e-09
0.000132304
-9.49569e-10
0.000132304
-6.74362e-10
0.000132306
3.06965e-09
0.000132307
-2.11632e-11
0.000132307
2.94818e-10
0.000132307
8.09696e-11
0.000132307
-1.77788e-10
0.000132307
2.65069e-10
0.000132307
-2.69977e-10
0.000132307
2.83789e-10
0.000132307
-2.99539e-10
0.000132307
2.66677e-10
0.000132307
-1.97368e-10
0.000132307
1.24309e-10
0.000132307
-9.27001e-11
0.000132307
-1.37991e-11
0.000132307
2.20361e-10
0.000132307
-4.7973e-10
0.000132307
-2.84453e-10
1.52758e-09
8.43781e-05
-2.82957e-10
8.43778e-05
-3.35045e-10
8.43798e-05
1.07599e-09
8.43799e-05
-1.27034e-10
8.43801e-05
1.34073e-10
8.43801e-05
1.71494e-11
8.438e-05
-7.88803e-11
8.43802e-05
1.16407e-10
8.438e-05
-1.16746e-10
8.43802e-05
1.20932e-10
8.438e-05
-1.39775e-10
8.43802e-05
1.2928e-10
8.43801e-05
-7.73118e-11
8.43801e-05
4.51834e-11
8.43801e-05
-5.19809e-11
8.43801e-05
-4.68677e-12
8.43802e-05
1.12501e-10
8.43799e-05
-1.82284e-10
8.43798e-05
-1.88713e-10
6.27859e-10
3.02251e-05
3.02247e-05
3.02258e-05
3.02257e-05
3.02258e-05
3.02259e-05
3.02258e-05
3.02259e-05
3.02258e-05
3.02259e-05
3.02258e-05
3.02259e-05
3.02258e-05
3.02259e-05
3.02258e-05
3.02258e-05
3.02259e-05
3.02257e-05
3.02256e-05
)
;

boundaryField
{
    top
    {
        type            calculated;
        value           uniform 0;
    }
    bottom
    {
        type            calculated;
        value           uniform 0;
    }
    inlet
    {
        type            calculated;
        value           nonuniform List<scalar> 
20
(
-3.02256e-05
-8.43794e-05
-0.000132306
-0.000174073
-0.000209743
-0.000239373
-0.000263014
-0.000280707
-0.000292484
-0.000298366
-0.000298366
-0.000292483
-0.000280706
-0.000263013
-0.000239372
-0.000209741
-0.000174072
-0.000132305
-8.43788e-05
-3.02254e-05
)
;
    }
    outlet
    {
        type            calculated;
        value           nonuniform List<scalar> 
20
(
3.02257e-05
8.43793e-05
0.000132305
0.000174072
0.000209741
0.000239371
0.000263011
0.000280704
0.000292481
0.000298365
0.000298365
0.000292483
0.000280707
0.000263015
0.000239374
0.000209744
0.000174074
0.000132308
8.43807e-05
3.02262e-05
)
;
    }
    frontAndBack
    {
        type            empty;
        value           nonuniform 0();
    }
}


// ************************************************************************* //
