/*--------------------------------*- C++ -*----------------------------------*\
| =========                 |                                                 |
| \\      /  F ield         | OpenFOAM: The Open Source CFD Toolbox           |
|  \\    /   O peration     | Version:  4.1                                   |
|   \\  /    A nd           | Web:      www.OpenFOAM.org                      |
|    \\/     M anipulation  |                                                 |
\*---------------------------------------------------------------------------*/
FoamFile
{
    version     2.0;
    format      ascii;
    class       volVectorField;
    location    "0.3";
    object      U;
}
// * * * * * * * * * * * * * * * * * * * * * * * * * * * * * * * * * * * * * //

dimensions      [0 1 -1 0 0 0 0];

internalField   nonuniform List<vector> 
400
(
(0.604511 1.36133e-07 0)
(0.604498 2.24187e-07 0)
(0.604506 -4.63629e-07 0)
(0.604511 9.02593e-08 0)
(0.604516 -6.39772e-08 0)
(0.604508 -7.8762e-09 0)
(0.604517 3.25462e-08 0)
(0.604507 -5.3381e-08 0)
(0.604517 6.47428e-08 0)
(0.604508 -7.12262e-08 0)
(0.604517 6.32195e-08 0)
(0.604509 -5.42449e-08 0)
(0.604516 5.3303e-08 0)
(0.604509 -3.31474e-08 0)
(0.604515 4.83083e-09 0)
(0.604509 1.67667e-08 0)
(0.604516 -4.60893e-08 0)
(0.604511 1.80318e-07 0)
(0.6045 1.53917e-07 0)
(0.604509 -3.63327e-07 0)
(1.68759 4.64833e-07 0)
(1.68756 8.61724e-07 0)
(1.68758 -1.47525e-06 0)
(1.68758 2.18556e-07 0)
(1.6876 -1.9023e-07 0)
(1.68757 -6.76637e-08 0)
(1.68761 1.19574e-07 0)
(1.68757 -1.60986e-07 0)
(1.6876 2.05573e-07 0)
(1.68758 -2.49573e-07 0)
(1.6876 2.01453e-07 0)
(1.68758 -1.55419e-07 0)
(1.6876 1.715e-07 0)
(1.68758 -1.2481e-07 0)
(1.6876 1.69604e-08 0)
(1.68758 7.14087e-08 0)
(1.6876 -2.14783e-07 0)
(1.68759 7.05145e-07 0)
(1.68756 5.95856e-07 0)
(1.68758 -1.23748e-06 0)
(2.64612 1.14252e-06 0)
(2.64609 1.73035e-06 0)
(2.64611 -2.7903e-06 0)
(2.6461 1.2372e-07 0)
(2.64614 -2.77313e-07 0)
(2.64609 -1.36098e-07 0)
(2.64614 2.11168e-07 0)
(2.64609 -2.99486e-07 0)
(2.64614 3.40573e-07 0)
(2.6461 -3.88869e-07 0)
(2.64614 3.41248e-07 0)
(2.6461 -2.74953e-07 0)
(2.64613 2.76277e-07 0)
(2.6461 -1.95425e-07 0)
(2.64613 3.48523e-08 0)
(2.64611 1.19144e-07 0)
(2.64613 -4.35336e-07 0)
(2.64611 1.78682e-06 0)
(2.64608 1.22866e-06 0)
(2.6461 -2.44241e-06 0)
(3.48146 1.77961e-06 0)
(3.48143 2.6501e-06 0)
(3.48145 -3.63801e-06 0)
(3.48142 -5.79225e-08 0)
(3.48148 -2.98962e-07 0)
(3.48141 -2.15549e-07 0)
(3.48148 2.86234e-07 0)
(3.48141 -3.8986e-07 0)
(3.48148 4.2815e-07 0)
(3.48142 -4.87436e-07 0)
(3.48147 4.29124e-07 0)
(3.48142 -3.43044e-07 0)
(3.48147 3.42877e-07 0)
(3.48143 -2.48338e-07 0)
(3.48146 4.29466e-08 0)
(3.48143 1.77771e-07 0)
(3.48146 -7.04938e-07 0)
(3.48144 2.96672e-06 0)
(3.48141 1.93946e-06 0)
(3.48142 -3.51058e-06 0)
(4.19486 2.24945e-06 0)
(4.19484 3.49752e-06 0)
(4.19485 -3.8391e-06 0)
(4.1948 -2.2713e-07 0)
(4.19488 -2.65176e-07 0)
(4.19479 -2.65412e-07 0)
(4.19488 3.28129e-07 0)
(4.19479 -4.3398e-07 0)
(4.19488 4.6441e-07 0)
(4.1948 -5.2473e-07 0)
(4.19487 4.62417e-07 0)
(4.19481 -3.68934e-07 0)
(4.19486 3.67199e-07 0)
(4.19481 -2.68336e-07 0)
(4.19486 3.81988e-08 0)
(4.19482 2.33783e-07 0)
(4.19486 -9.60215e-07 0)
(4.19482 4.09481e-06 0)
(4.19482 2.6628e-06 0)
(4.19481 -4.2994e-06 0)
(4.78747 2.39473e-06 0)
(4.78746 4.18003e-06 0)
(4.78747 -3.27577e-06 0)
(4.78739 -2.83089e-07 0)
(4.78749 -1.94778e-07 0)
(4.78738 -2.78898e-07 0)
(4.78749 3.35346e-07 0)
(4.78738 -4.29051e-07 0)
(4.78748 4.53841e-07 0)
(4.78739 -5.11816e-07 0)
(4.78747 4.47269e-07 0)
(4.7874 -3.54658e-07 0)
(4.78746 3.55191e-07 0)
(4.78741 -2.61817e-07 0)
(4.78746 2.11166e-08 0)
(4.78741 2.85365e-07 0)
(4.78746 -1.16854e-06 0)
(4.78742 4.98412e-06 0)
(4.78743 3.34202e-06 0)
(4.78741 -4.68877e-06 0)
(5.26028 2.1584e-06 0)
(5.26029 4.61242e-06 0)
(5.26029 -1.99393e-06 0)
(5.2602 -1.80727e-07 0)
(5.26031 -9.68197e-08 0)
(5.26018 -2.5233e-07 0)
(5.26031 3.08642e-07 0)
(5.26019 -3.80144e-07 0)
(5.2603 4.02115e-07 0)
(5.2602 -4.54625e-07 0)
(5.26029 3.91426e-07 0)
(5.26021 -3.06575e-07 0)
(5.26028 3.12237e-07 0)
(5.26022 -2.32753e-07 0)
(5.26027 -5.39951e-09 0)
(5.26022 3.25453e-07 0)
(5.26027 -1.29445e-06 0)
(5.26022 5.53516e-06 0)
(5.26026 3.90537e-06 0)
(5.26022 -4.63987e-06 0)
(5.61414 1.54713e-06 0)
(5.61416 4.73457e-06 0)
(5.61416 -1.29838e-07 0)
(5.61405 8.20401e-08 0)
(5.61417 2.12618e-08 0)
(5.61403 -1.88961e-07 0)
(5.61417 2.51625e-07 0)
(5.61404 -2.93694e-07 0)
(5.61416 3.15711e-07 0)
(5.61405 -3.60621e-07 0)
(5.61415 3.02404e-07 0)
(5.61406 -2.3071e-07 0)
(5.61413 2.44127e-07 0)
(5.61407 -1.85642e-07 0)
(5.61413 -3.7956e-08 0)
(5.61408 3.47541e-07 0)
(5.61413 -1.31485e-06 0)
(5.61407 5.6899e-06 0)
(5.61413 4.2812e-06 0)
(5.61407 -4.16211e-06 0)
(5.84967 6.3441e-07 0)
(5.84971 4.52705e-06 0)
(5.84971 2.09989e-06 0)
(5.84958 4.68124e-07 0)
(5.84972 1.50303e-07 0)
(5.84957 -9.70384e-08 0)
(5.84971 1.70359e-07 0)
(5.84957 -1.78769e-07 0)
(5.8497 2.02996e-07 0)
(5.84959 -2.38794e-07 0)
(5.84969 1.8878e-07 0)
(5.8496 -1.34345e-07 0)
(5.84968 1.57507e-07 0)
(5.84961 -1.25385e-07 0)
(5.84967 -7.28418e-08 0)
(5.84961 3.47497e-07 0)
(5.84967 -1.22248e-06 0)
(5.8496 5.44151e-06 0)
(5.84969 4.41544e-06 0)
(5.84962 -3.31646e-06 0)
(5.96732 -4.54073e-07 0)
(5.96736 4.01637e-06 0)
(5.96737 4.43118e-06 0)
(5.96724 9.10672e-07 0)
(5.96738 2.7874e-07 0)
(5.96723 1.117e-08 0)
(5.96738 7.28926e-08 0)
(5.96723 -4.62219e-08 0)
(5.96736 7.3832e-08 0)
(5.96725 -9.96974e-08 0)
(5.96735 5.99835e-08 0)
(5.96726 -2.54963e-08 0)
(5.96734 5.97725e-08 0)
(5.96727 -5.73454e-08 0)
(5.96733 -1.0664e-07 0)
(5.96727 3.25e-07 0)
(5.96733 -1.02837e-06 0)
(5.96726 4.83077e-06 0)
(5.96736 4.28415e-06 0)
(5.96729 -2.20426e-06 0)
(5.96732 -1.56141e-06 0)
(5.96735 3.26982e-06 0)
(5.96737 6.58733e-06 0)
(5.96724 1.32707e-06 0)
(5.96738 3.93937e-07 0)
(5.96723 1.21249e-07 0)
(5.96738 -3.14454e-08 0)
(5.96724 9.19987e-08 0)
(5.96737 -6.10317e-08 0)
(5.96725 4.53297e-08 0)
(5.96735 -7.40629e-08 0)
(5.96727 8.7354e-08 0)
(5.96734 -4.13845e-08 0)
(5.96728 1.30417e-08 0)
(5.96733 -1.36528e-07 0)
(5.96728 2.8357e-07 0)
(5.96734 -7.59993e-07 0)
(5.96726 3.93979e-06 0)
(5.96738 3.89899e-06 0)
(5.9673 -9.53722e-07 0)
(5.84965 -2.52653e-06 0)
(5.84968 2.38315e-06 0)
(5.84971 8.31406e-06 0)
(5.84959 1.636e-06 0)
(5.84973 4.84529e-07 0)
(5.84958 2.1862e-07 0)
(5.84973 -1.32695e-07 0)
(5.84959 2.23646e-07 0)
(5.84972 -1.9054e-07 0)
(5.8496 1.84706e-07 0)
(5.8497 -2.03283e-07 0)
(5.84961 1.95604e-07 0)
(5.84969 -1.38229e-07 0)
(5.84962 8.04318e-08 0)
(5.84968 -1.60358e-07 0)
(5.84963 2.29631e-07 0)
(5.84969 -4.56382e-07 0)
(5.84961 2.88106e-06 0)
(5.84973 3.30558e-06 0)
(5.84965 2.95252e-07 0)
(5.61411 -3.21138e-06 0)
(5.61412 1.46411e-06 0)
(5.61417 9.40962e-06 0)
(5.61406 1.77408e-06 0)
(5.61419 5.42805e-07 0)
(5.61405 2.90494e-07 0)
(5.61419 -2.20919e-07 0)
(5.61406 3.36913e-07 0)
(5.61418 -3.03879e-07 0)
(5.61407 3.07112e-07 0)
(5.61417 -3.1772e-07 0)
(5.61408 2.90808e-07 0)
(5.61416 -2.23181e-07 0)
(5.61409 1.39645e-07 0)
(5.61415 -1.76518e-07 0)
(5.6141 1.70845e-07 0)
(5.61415 -1.60968e-07 0)
(5.61408 1.78384e-06 0)
(5.61419 2.57578e-06 0)
(5.61413 1.40598e-06 0)
(5.26025 -3.52372e-06 0)
(5.26025 6.15701e-07 0)
(5.2603 9.74792e-06 0)
(5.26022 1.70902e-06 0)
(5.26034 5.66144e-07 0)
(5.26021 3.27575e-07 0)
(5.26034 -2.86948e-07 0)
(5.26021 4.21174e-07 0)
(5.26033 -3.91071e-07 0)
(5.26023 4.02053e-07 0)
(5.26032 -4.0785e-07 0)
(5.26024 3.64972e-07 0)
(5.2603 -2.89098e-07 0)
(5.26025 1.85793e-07 0)
(5.2603 -1.83721e-07 0)
(5.26025 1.14326e-07 0)
(5.2603 8.64735e-08 0)
(5.26024 7.78193e-07 0)
(5.26034 1.79587e-06 0)
(5.26028 2.25929e-06 0)
(4.78743 -3.43093e-06 0)
(4.78742 -7.79038e-08 0)
(4.78748 9.29157e-06 0)
(4.78742 1.44679e-06 0)
(4.78752 5.56774e-07 0)
(4.78741 3.2523e-07 0)
(4.78752 -3.23364e-07 0)
(4.78741 4.67769e-07 0)
(4.78751 -4.43605e-07 0)
(4.78742 4.60412e-07 0)
(4.7875 -4.65058e-07 0)
(4.78743 4.11095e-07 0)
(4.78749 -3.29505e-07 0)
(4.78744 2.14328e-07 0)
(4.78749 -1.81159e-07 0)
(4.78744 6.53343e-08 0)
(4.78749 2.5732e-07 0)
(4.78743 -2.1539e-08 0)
(4.78752 1.05296e-06 0)
(4.78748 2.76584e-06 0)
(4.19483 -2.96586e-06 0)
(4.1948 -5.5854e-07 0)
(4.19487 8.09706e-06 0)
(4.19483 1.03312e-06 0)
(4.19491 5.19378e-07 0)
(4.19482 2.8439e-07 0)
(4.19491 -3.25155e-07 0)
(4.19482 4.70333e-07 0)
(4.19491 -4.54802e-07 0)
(4.19483 4.74997e-07 0)
(4.1949 -4.81648e-07 0)
(4.19484 4.22949e-07 0)
(4.19489 -3.39057e-07 0)
(4.19484 2.21474e-07 0)
(4.19489 -1.68081e-07 0)
(4.19484 2.67515e-08 0)
(4.19489 3.3883e-07 0)
(4.19484 -5.34076e-07 0)
(4.1949 4.23983e-07 0)
(4.19488 2.87718e-06 0)
(3.48143 -2.21787e-06 0)
(3.48139 -7.95667e-07 0)
(3.48146 6.29419e-06 0)
(3.48144 5.485e-07 0)
(3.4815 4.55115e-07 0)
(3.48143 2.10939e-07 0)
(3.48151 -2.90793e-07 0)
(3.48144 4.24612e-07 0)
(3.4815 -4.18689e-07 0)
(3.48144 4.38954e-07 0)
(3.4815 -4.50339e-07 0)
(3.48145 3.95199e-07 0)
(3.48149 -3.11822e-07 0)
(3.48145 2.02662e-07 0)
(3.48149 -1.45371e-07 0)
(3.48145 1.79358e-12 0)
(3.48149 3.3595e-07 0)
(3.48145 -7.21717e-07 0)
(3.48149 -3.19829e-08 0)
(3.48148 2.58414e-06 0)
(2.6461 -1.36064e-06 0)
(2.64606 -7.69675e-07 0)
(2.64612 4.15299e-06 0)
(2.64612 1.2213e-07 0)
(2.64616 3.58319e-07 0)
(2.64611 1.24299e-07 0)
(2.64616 -2.19654e-07 0)
(2.64611 3.26948e-07 0)
(2.64616 -3.31474e-07 0)
(2.64612 3.49787e-07 0)
(2.64616 -3.61144e-07 0)
(2.64612 3.17515e-07 0)
(2.64615 -2.47445e-07 0)
(2.64612 1.5874e-07 0)
(2.64615 -1.07755e-07 0)
(2.64612 -1.32998e-08 0)
(2.64615 2.66863e-07 0)
(2.64612 -6.29023e-07 0)
(2.64614 -2.63983e-07 0)
(2.64614 1.95067e-06 0)
(1.68758 -5.47745e-07 0)
(1.68754 -5.35111e-07 0)
(1.68758 1.94545e-06 0)
(1.68759 -1.36996e-07 0)
(1.68761 2.14177e-07 0)
(1.68759 3.84132e-08 0)
(1.68762 -1.30979e-07 0)
(1.68759 1.93653e-07 0)
(1.68762 -1.95812e-07 0)
(1.68759 2.03261e-07 0)
(1.68761 -2.25869e-07 0)
(1.68759 2.05388e-07 0)
(1.68761 -1.36172e-07 0)
(1.68759 8.28439e-08 0)
(1.68761 -7.82049e-08 0)
(1.68759 -1.16471e-08 0)
(1.68761 1.68623e-07 0)
(1.68759 -3.27607e-07 0)
(1.6876 -2.76939e-07 0)
(1.68761 1.06317e-06 0)
(0.604507 -1.4512e-07 0)
(0.604492 -1.67157e-07 0)
(0.604509 5.44821e-07 0)
(0.604514 -7.4958e-08 0)
(0.60452 7.28128e-08 0)
(0.604512 9.14076e-09 0)
(0.604522 -3.64719e-08 0)
(0.604512 5.71203e-08 0)
(0.604521 -6.09302e-08 0)
(0.604512 6.56175e-08 0)
(0.604521 -6.9066e-08 0)
(0.604513 6.1298e-08 0)
(0.60452 -4.48924e-08 0)
(0.604514 2.75058e-08 0)
(0.60452 -1.8547e-08 0)
(0.604514 -3.8328e-09 0)
(0.60452 5.15947e-08 0)
(0.604514 -1.14177e-07 0)
(0.604513 -1.02762e-07 0)
(0.604518 3.36758e-07 0)
)
;

boundaryField
{
    top
    {
        type            fixedValue;
        value           uniform (0 0 0);
    }
    bottom
    {
        type            fixedValue;
        value           uniform (0 0 0);
    }
    inlet
    {
        type            zeroGradient;
    }
    outlet
    {
        type            zeroGradient;
    }
    frontAndBack
    {
        type            empty;
    }
}


// ************************************************************************* //
