/*--------------------------------*- C++ -*----------------------------------*\
| =========                 |                                                 |
| \\      /  F ield         | OpenFOAM: The Open Source CFD Toolbox           |
|  \\    /   O peration     | Version:  4.1                                   |
|   \\  /    A nd           | Web:      www.OpenFOAM.org                      |
|    \\/     M anipulation  |                                                 |
\*---------------------------------------------------------------------------*/
FoamFile
{
    version     2.0;
    format      ascii;
    class       volScalarField;
    location    "0.5";
    object      p;
}
// * * * * * * * * * * * * * * * * * * * * * * * * * * * * * * * * * * * * * //

dimensions      [0 2 -2 0 0 0 0];

internalField   nonuniform List<scalar> 
400
(
1.46191e-05
1.15708e-05
6.48935e-06
7.48889e-06
5.19199e-06
6.2181e-06
4.73054e-06
5.32036e-06
4.31616e-06
4.50529e-06
3.87666e-06
3.72516e-06
3.41729e-06
2.96713e-06
2.96104e-06
2.2554e-06
2.63909e-06
1.98478e-06
3.74917e-06
6.00189e-06
1.45494e-05
1.14954e-05
6.47909e-06
7.48578e-06
5.19148e-06
6.21759e-06
4.73063e-06
5.32019e-06
4.31625e-06
4.50522e-06
3.87669e-06
3.72516e-06
3.41725e-06
2.96716e-06
2.96086e-06
2.25519e-06
2.6374e-06
1.98211e-06
3.69052e-06
5.94328e-06
1.44992e-05
1.14305e-05
6.46783e-06
7.48442e-06
5.19009e-06
6.21796e-06
4.73006e-06
5.32054e-06
4.31595e-06
4.50542e-06
3.87656e-06
3.7252e-06
3.41726e-06
2.96705e-06
2.96096e-06
2.25476e-06
2.63635e-06
1.97751e-06
3.63552e-06
5.89407e-06
1.44628e-05
1.13785e-05
6.45637e-06
7.48358e-06
5.18872e-06
6.21847e-06
4.72943e-06
5.32095e-06
4.31562e-06
4.50564e-06
3.87642e-06
3.72525e-06
3.41728e-06
2.96692e-06
2.96112e-06
2.25443e-06
2.63554e-06
1.97083e-06
3.58731e-06
5.85378e-06
1.44341e-05
1.13362e-05
6.4452e-06
7.48285e-06
5.18765e-06
6.21885e-06
4.72894e-06
5.32126e-06
4.31536e-06
4.50581e-06
3.87632e-06
3.72528e-06
3.41729e-06
2.96682e-06
2.96127e-06
2.25425e-06
2.63482e-06
1.96284e-06
3.54393e-06
5.81838e-06
1.44098e-05
1.12998e-05
6.43411e-06
7.48216e-06
5.18679e-06
6.21914e-06
4.72855e-06
5.32151e-06
4.31515e-06
4.50595e-06
3.87624e-06
3.72531e-06
3.4173e-06
2.96675e-06
2.96142e-06
2.25422e-06
2.63418e-06
1.95371e-06
3.50351e-06
5.78594e-06
1.439e-05
1.12692e-05
6.42337e-06
7.48157e-06
5.18613e-06
6.21938e-06
4.72824e-06
5.3217e-06
4.31499e-06
4.50605e-06
3.87617e-06
3.72533e-06
3.41731e-06
2.96669e-06
2.96158e-06
2.25431e-06
2.63365e-06
1.94385e-06
3.46617e-06
5.75638e-06
1.43742e-05
1.1244e-05
6.41331e-06
7.48107e-06
5.18565e-06
6.21956e-06
4.728e-06
5.32184e-06
4.31487e-06
4.50613e-06
3.87612e-06
3.72534e-06
3.41732e-06
2.96665e-06
2.96173e-06
2.25451e-06
2.63322e-06
1.93368e-06
3.43186e-06
5.72936e-06
1.43618e-05
1.12237e-05
6.40423e-06
7.48062e-06
5.18536e-06
6.21969e-06
4.72785e-06
5.32193e-06
4.31479e-06
4.50618e-06
3.87609e-06
3.72535e-06
3.41733e-06
2.96662e-06
2.96188e-06
2.25481e-06
2.63289e-06
1.92361e-06
3.40032e-06
5.70432e-06
1.43522e-05
1.12079e-05
6.39642e-06
7.48021e-06
5.18524e-06
6.21976e-06
4.72777e-06
5.32198e-06
4.31475e-06
4.5062e-06
3.87608e-06
3.72535e-06
3.41733e-06
2.96662e-06
2.96203e-06
2.25521e-06
2.63263e-06
1.914e-06
3.37114e-06
5.68066e-06
1.43449e-05
1.11964e-05
6.39013e-06
7.47982e-06
5.18529e-06
6.21978e-06
4.72778e-06
5.32197e-06
4.31476e-06
4.5062e-06
3.87608e-06
3.72534e-06
3.41733e-06
2.96663e-06
2.96217e-06
2.25569e-06
2.63241e-06
1.90521e-06
3.34387e-06
5.65777e-06
1.43397e-05
1.11888e-05
6.38557e-06
7.47944e-06
5.18553e-06
6.21974e-06
4.72787e-06
5.32191e-06
4.3148e-06
4.50616e-06
3.87611e-06
3.72533e-06
3.41733e-06
2.96666e-06
2.9623e-06
2.25622e-06
2.63221e-06
1.89749e-06
3.31803e-06
5.63507e-06
1.43362e-05
1.11851e-05
6.3829e-06
7.47911e-06
5.18593e-06
6.21964e-06
4.72803e-06
5.3218e-06
4.31489e-06
4.5061e-06
3.87615e-06
3.72532e-06
3.41733e-06
2.9667e-06
2.96241e-06
2.2568e-06
2.63202e-06
1.89106e-06
3.29312e-06
5.612e-06
1.43346e-05
1.11854e-05
6.3822e-06
7.47884e-06
5.18652e-06
6.21949e-06
4.72828e-06
5.32164e-06
4.31502e-06
4.50601e-06
3.8762e-06
3.72529e-06
3.41733e-06
2.96676e-06
2.96251e-06
2.25741e-06
2.63182e-06
1.88607e-06
3.26864e-06
5.58807e-06
1.43349e-05
1.11899e-05
6.38343e-06
7.47867e-06
5.18727e-06
6.21928e-06
4.7286e-06
5.32143e-06
4.31519e-06
4.5059e-06
3.87628e-06
3.72526e-06
3.41732e-06
2.96684e-06
2.96258e-06
2.25803e-06
2.63162e-06
1.88256e-06
3.24415e-06
5.56288e-06
1.43373e-05
1.11986e-05
6.38644e-06
7.47864e-06
5.18821e-06
6.21901e-06
4.729e-06
5.32117e-06
4.3154e-06
4.50576e-06
3.87637e-06
3.72523e-06
3.41731e-06
2.96693e-06
2.96262e-06
2.25865e-06
2.63141e-06
1.88053e-06
3.2193e-06
5.53613e-06
1.43418e-05
1.12119e-05
6.39102e-06
7.47869e-06
5.18935e-06
6.21864e-06
4.72951e-06
5.32085e-06
4.31567e-06
4.50558e-06
3.87648e-06
3.72519e-06
3.4173e-06
2.96704e-06
2.96263e-06
2.25928e-06
2.63119e-06
1.8799e-06
3.19387e-06
5.50751e-06
1.43512e-05
1.12329e-05
6.39726e-06
7.4789e-06
5.19076e-06
6.21815e-06
4.73014e-06
5.32043e-06
4.31601e-06
4.50535e-06
3.87662e-06
3.72514e-06
3.41728e-06
2.96718e-06
2.96258e-06
2.25991e-06
2.63097e-06
1.8806e-06
3.16723e-06
5.47624e-06
1.43698e-05
1.12631e-05
6.4047e-06
7.47971e-06
5.19216e-06
6.21779e-06
4.7307e-06
5.32008e-06
4.3163e-06
4.50516e-06
3.87674e-06
3.72509e-06
3.41727e-06
2.9673e-06
2.96255e-06
2.26046e-06
2.63091e-06
1.88273e-06
3.13831e-06
5.44218e-06
1.44061e-05
1.13029e-05
6.41209e-06
7.48234e-06
5.19265e-06
6.21833e-06
4.73059e-06
5.32027e-06
4.31619e-06
4.50524e-06
3.8767e-06
3.72511e-06
3.41731e-06
2.96729e-06
2.96277e-06
2.26064e-06
2.63144e-06
1.88577e-06
3.11001e-06
5.41217e-06
)
;

boundaryField
{
    top
    {
        type            zeroGradient;
    }
    bottom
    {
        type            zeroGradient;
    }
    inlet
    {
        type            fixedValue;
        value           uniform 0;
    }
    outlet
    {
        type            fixedValue;
        value           uniform 0;
    }
    frontAndBack
    {
        type            empty;
    }
}


// ************************************************************************* //
