/*--------------------------------*- C++ -*----------------------------------*\
| =========                 |                                                 |
| \\      /  F ield         | OpenFOAM: The Open Source CFD Toolbox           |
|  \\    /   O peration     | Version:  4.1                                   |
|   \\  /    A nd           | Web:      www.OpenFOAM.org                      |
|    \\/     M anipulation  |                                                 |
\*---------------------------------------------------------------------------*/
FoamFile
{
    version     2.0;
    format      ascii;
    class       surfaceScalarField;
    location    "0.5";
    object      phi;
}
// * * * * * * * * * * * * * * * * * * * * * * * * * * * * * * * * * * * * * //

dimensions      [0 3 -1 0 0 0 0];

internalField   nonuniform List<scalar> 
760
(
1.22899e-06
-2.52257e-11
1.229e-06
-1.62705e-11
1.229e-06
4.60465e-13
1.229e-06
-1.56184e-12
1.229e-06
9.9471e-13
1.229e-06
-8.91835e-13
1.229e-06
6.85601e-13
1.229e-06
-5.41784e-13
1.229e-06
3.98781e-13
1.229e-06
-2.73794e-13
1.229e-06
1.56921e-13
1.229e-06
-4.89939e-14
1.229e-06
-5.49539e-14
1.229e-06
1.50895e-13
1.229e-06
-2.5913e-13
1.229e-06
3.12144e-13
1.229e-06
-6.0934e-13
1.229e-06
8.86178e-13
1.22902e-06
-1.23527e-11
-1.76374e-11
3.68749e-06
-7.44324e-11
3.68753e-06
-5.68536e-11
3.68753e-06
-1.19497e-12
3.68753e-06
-3.94716e-12
3.68753e-06
1.99112e-12
3.68753e-06
-1.97755e-12
3.68753e-06
1.46024e-12
3.68753e-06
-1.17348e-12
3.68753e-06
8.55267e-13
3.68753e-06
-5.87659e-13
3.68753e-06
3.33052e-13
3.68753e-06
-1.00445e-13
3.68753e-06
-1.27749e-13
3.68753e-06
3.27868e-13
3.68753e-06
-5.87918e-13
3.68753e-06
6.04818e-13
3.68753e-06
-1.66472e-12
3.68753e-06
2.1509e-12
3.68757e-06
-4.63806e-11
-5.83573e-11
6.14754e-06
-1.3048e-10
6.1476e-06
-1.09174e-10
6.1476e-06
-4.20052e-12
6.1476e-06
-5.83764e-12
6.1476e-06
2.53319e-12
6.1476e-06
-2.68259e-12
6.1476e-06
1.93245e-12
6.1476e-06
-1.56825e-12
6.1476e-06
1.13486e-12
6.1476e-06
-7.78664e-13
6.1476e-06
4.36117e-13
6.1476e-06
-1.25005e-13
6.1476e-06
-1.83187e-13
6.1476e-06
4.4648e-13
6.1476e-06
-8.13142e-13
6.1476e-06
7.54352e-13
6.1476e-06
-2.62959e-12
6.1476e-06
3.83787e-12
6.14765e-06
-9.60592e-11
-1.13452e-10
8.61013e-06
-1.8336e-10
8.61019e-06
-1.61971e-10
8.61019e-06
-7.45006e-12
8.61019e-06
-7.00494e-12
8.61019e-06
2.74627e-12
8.61019e-06
-3.01652e-12
8.61019e-06
2.14162e-12
8.61019e-06
-1.74679e-12
8.61019e-06
1.25727e-12
8.61019e-06
-8.60081e-13
8.61019e-06
4.75689e-13
8.61019e-06
-1.27493e-13
8.61019e-06
-2.18796e-13
8.61019e-06
5.1207e-13
8.61019e-06
-9.30734e-13
8.61019e-06
8.07486e-13
8.61019e-06
-3.37909e-12
8.61019e-06
6.00704e-12
8.61025e-06
-1.54602e-10
-1.76248e-10
1.10762e-05
-2.25651e-10
1.10762e-05
-2.06994e-10
1.10762e-05
-1.04747e-11
1.10762e-05
-7.46786e-12
1.10762e-05
2.67872e-12
1.10762e-05
-3.02087e-12
1.10762e-05
2.12087e-12
1.10762e-05
-1.73548e-12
1.10762e-05
1.2427e-12
1.10762e-05
-8.46577e-13
1.10762e-05
4.61345e-13
1.10762e-05
-1.12861e-13
1.10762e-05
-2.3425e-13
1.10762e-05
5.27943e-13
1.10762e-05
-9.50087e-13
1.10762e-05
7.74466e-13
1.10762e-05
-3.90474e-12
1.10762e-05
8.4346e-12
1.10763e-05
-2.15561e-10
-2.40228e-10
1.35465e-05
-2.52149e-10
1.35465e-05
-2.38219e-10
1.35465e-05
-1.28586e-11
1.35465e-05
-7.26588e-12
1.35465e-05
2.38e-12
1.35465e-05
-2.74277e-12
1.35465e-05
1.90601e-12
1.35465e-05
-1.56327e-12
1.35465e-05
1.11287e-12
1.35465e-05
-7.53732e-13
1.35465e-05
4.0288e-13
1.35465e-05
-8.56833e-14
1.35465e-05
-2.30244e-13
1.35465e-05
4.98883e-13
1.35465e-05
-8.82989e-13
1.35465e-05
6.67108e-13
1.35465e-05
-4.19964e-12
1.35465e-05
1.0892e-11
1.35466e-05
-2.7277e-10
-2.99171e-10
1.60219e-05
-2.5998e-10
1.60219e-05
-2.5201e-10
1.60219e-05
-1.4287e-11
1.60219e-05
-6.46381e-12
1.60219e-05
1.89971e-12
1.60219e-05
-2.2342e-12
1.60219e-05
1.535e-12
1.60219e-05
-1.26116e-12
1.60219e-05
8.90707e-13
1.60219e-05
-5.97792e-13
1.60219e-05
3.10156e-13
1.60219e-05
-5.00894e-14
1.60219e-05
-2.08471e-13
1.60219e-05
4.31068e-13
1.60219e-05
-7.43405e-13
1.60219e-05
4.9869e-13
1.60219e-05
-4.26192e-12
1.60219e-05
1.31506e-11
1.60219e-05
-3.208e-10
-3.47613e-10
1.85028e-05
-2.48597e-10
1.85028e-05
-2.4715e-10
1.85028e-05
-1.45805e-11
1.85028e-05
-5.15294e-12
1.85028e-05
1.28709e-12
1.85028e-05
-1.55084e-12
1.85028e-05
1.04731e-12
1.85028e-05
-8.61692e-13
1.85028e-05
5.99948e-13
1.85028e-05
-3.95407e-13
1.85028e-05
1.92967e-13
1.85028e-05
-9.72708e-15
1.85028e-05
-1.71534e-13
1.85028e-05
3.31937e-13
1.85028e-05
-5.471e-13
1.85028e-05
2.83998e-13
1.85028e-05
-4.09702e-12
1.85028e-05
1.49943e-11
1.85029e-05
-3.5533e-10
-3.81227e-10
2.09899e-05
-2.19631e-10
2.09899e-05
-2.24726e-10
2.09899e-05
-1.37186e-11
2.09899e-05
-3.45135e-12
2.09899e-05
5.90405e-13
2.09899e-05
-7.51111e-13
2.09899e-05
4.83416e-13
2.09899e-05
-3.98402e-13
2.09899e-05
2.64805e-13
2.09899e-05
-1.63406e-13
2.09899e-05
6.0932e-14
2.09899e-05
3.2239e-14
2.09899e-05
-1.22836e-13
2.09899e-05
2.10011e-13
2.09899e-05
-3.11294e-13
2.09899e-05
3.91114e-14
2.09899e-05
-3.7204e-12
2.09899e-05
1.62368e-11
2.09899e-05
-3.73426e-10
-3.97126e-10
2.34834e-05
-1.76612e-10
2.34833e-05
-1.87856e-10
2.34833e-05
-1.18424e-11
2.34833e-05
-1.50157e-12
2.34833e-05
-1.43444e-13
2.34833e-05
1.04787e-13
2.34833e-05
-1.15788e-13
2.34833e-05
9.46275e-14
2.34833e-05
-9.03405e-14
2.34833e-05
8.13972e-14
2.34833e-05
-7.65797e-14
2.34833e-05
7.30953e-14
2.34833e-05
-6.64431e-14
2.34833e-05
7.46672e-14
2.34833e-05
-5.4276e-14
2.34833e-05
-2.18857e-13
2.34833e-05
-3.15956e-12
2.34833e-05
1.67402e-11
2.34833e-05
-3.73714e-10
-3.94048e-10
2.59834e-05
-1.24557e-10
2.59834e-05
-1.41265e-10
2.59833e-05
-9.23617e-12
2.59833e-05
5.34541e-13
2.59833e-05
-8.6897e-13
2.59833e-05
9.55959e-13
2.59833e-05
-7.09443e-13
2.59833e-05
5.83249e-13
2.59833e-05
-4.41227e-13
2.59833e-05
3.22376e-13
2.59833e-05
-2.10494e-13
2.59833e-05
1.1052e-13
2.59833e-05
-6.90014e-15
2.59833e-05
-6.41249e-14
2.59833e-05
2.05023e-13
2.59833e-05
-4.72104e-13
2.59833e-05
-2.45513e-12
2.59833e-05
1.64331e-11
2.59833e-05
-3.56438e-10
-3.72435e-10
2.849e-05
-6.94294e-11
2.84899e-05
-9.07259e-11
2.84899e-05
-6.28757e-12
2.84899e-05
2.48356e-12
2.84899e-05
-1.54189e-12
2.84899e-05
1.74187e-12
2.84899e-05
-1.25721e-12
2.84899e-05
1.0337e-12
2.84899e-05
-7.63972e-13
2.84899e-05
5.43246e-13
2.84899e-05
-3.32056e-13
2.84899e-05
1.42495e-13
2.84899e-05
5.09636e-14
2.84899e-05
-1.96092e-13
2.84899e-05
4.47482e-13
2.84899e-05
-7.0255e-13
2.84899e-05
-1.66093e-12
2.84899e-05
1.53234e-11
2.84899e-05
-3.23406e-10
-3.34385e-10
3.1003e-05
-1.7515e-11
3.10029e-05
-4.23797e-11
3.10029e-05
-3.42945e-12
3.10029e-05
4.17025e-12
3.10029e-05
-2.11866e-12
3.10029e-05
2.4034e-12
3.10029e-05
-1.71968e-12
3.10029e-05
1.41303e-12
3.10029e-05
-1.03531e-12
3.10029e-05
7.28185e-13
3.10029e-05
-4.32833e-13
3.10029e-05
1.672e-13
3.10029e-05
1.02259e-13
3.10029e-05
-3.10976e-13
3.10029e-05
6.54263e-13
3.10029e-05
-8.92343e-13
3.10029e-05
-8.42583e-13
3.10029e-05
1.35037e-11
3.10029e-05
-2.77814e-10
-2.83482e-10
3.35221e-05
2.52882e-11
3.3522e-05
-1.97619e-12
3.3522e-05
-1.07033e-12
3.3522e-05
5.42854e-12
3.3522e-05
-2.55588e-12
3.3522e-05
2.88391e-12
3.3522e-05
-2.05875e-12
3.3522e-05
1.68949e-12
3.3522e-05
-1.2328e-12
3.3522e-05
8.61943e-13
3.3522e-05
-5.0469e-13
3.3522e-05
1.82886e-13
3.3522e-05
1.4227e-13
3.3522e-05
-3.9886e-13
3.3522e-05
8.07287e-13
3.3522e-05
-1.02445e-12
3.3522e-05
-7.48385e-14
3.3522e-05
1.11457e-11
3.3522e-05
-2.23977e-10
-2.2451e-10
3.60467e-05
5.42168e-11
3.60467e-05
2.59338e-11
3.60467e-05
4.78073e-13
3.60467e-05
6.11225e-12
3.60467e-05
-2.80962e-12
3.60467e-05
3.13013e-12
3.60467e-05
-2.23795e-12
3.60467e-05
1.83288e-12
3.60467e-05
-1.33498e-12
3.60467e-05
9.2991e-13
3.60467e-05
-5.39755e-13
3.60467e-05
1.87735e-13
3.60467e-05
1.66697e-13
3.60467e-05
-4.50502e-13
3.60467e-05
8.89704e-13
3.60467e-05
-1.08329e-12
3.60467e-05
5.62525e-13
3.60467e-05
8.48297e-12
3.60466e-05
-1.66961e-10
-1.63063e-10
3.85764e-05
6.64007e-11
3.85764e-05
3.88084e-11
3.85764e-05
1.06437e-12
3.85764e-05
6.10444e-12
3.85764e-05
-2.83494e-12
3.85764e-05
3.09309e-12
3.85764e-05
-2.22276e-12
3.85764e-05
1.8149e-12
3.85764e-05
-1.32154e-12
3.85764e-05
9.1819e-13
3.85764e-05
-5.30372e-13
3.85764e-05
1.79722e-13
3.85764e-05
1.71894e-13
3.85764e-05
-4.57662e-13
3.85764e-05
8.86342e-13
3.85764e-05
-1.05551e-12
3.85764e-05
9.89906e-13
3.85764e-05
5.78253e-12
3.85763e-05
-1.12137e-10
-1.05062e-10
4.11103e-05
6.15972e-11
4.11103e-05
3.68835e-11
4.11103e-05
7.42298e-13
4.11103e-05
5.32432e-12
4.11103e-05
-2.58545e-12
4.11103e-05
2.729e-12
4.11103e-05
-1.98088e-12
4.11103e-05
1.60946e-12
4.11103e-05
-1.17351e-12
4.11103e-05
8.13665e-13
4.11103e-05
-4.69059e-13
4.11103e-05
1.56479e-13
4.11103e-05
1.55108e-13
4.11103e-05
-4.13402e-13
4.11103e-05
7.84201e-13
4.11103e-05
-9.30493e-13
4.11103e-05
1.13431e-12
4.11103e-05
3.30764e-12
4.11103e-05
-6.46711e-11
-5.61981e-11
4.36477e-05
4.28599e-11
4.36477e-05
2.38431e-11
4.36477e-05
-2.24455e-13
4.36477e-05
3.72717e-12
4.36477e-05
-2.01404e-12
4.36477e-05
1.9996e-12
4.36477e-05
-1.48257e-12
4.36477e-05
1.19286e-12
4.36477e-05
-8.73279e-13
4.36477e-05
6.04025e-13
4.36477e-05
-3.48459e-13
4.36477e-05
1.15166e-13
4.36477e-05
1.14692e-13
4.36477e-05
-3.12369e-13
4.36477e-05
5.72796e-13
4.36477e-05
-7.01139e-13
4.36477e-05
9.35395e-13
4.36477e-05
1.27267e-12
4.36477e-05
-2.89886e-11
-2.13403e-11
4.61876e-05
1.71064e-11
4.61876e-05
7.82764e-12
4.61876e-05
-7.65858e-13
4.61876e-05
1.51757e-12
4.61876e-05
-9.98659e-13
4.61876e-05
8.97779e-13
4.61876e-05
-6.91275e-13
4.61876e-05
5.4682e-13
4.61876e-05
-4.03403e-13
4.61876e-05
2.78018e-13
4.61876e-05
-1.60899e-13
4.61876e-05
5.27891e-14
4.61876e-05
5.15651e-14
4.61876e-05
-1.47055e-13
4.61876e-05
2.54714e-13
4.61876e-05
-3.37922e-13
4.61876e-05
4.23655e-13
4.61876e-05
6.71722e-14
4.61876e-05
-7.39633e-12
-3.32314e-12
4.8729e-05
4.8729e-05
4.8729e-05
4.8729e-05
4.8729e-05
4.8729e-05
4.8729e-05
4.8729e-05
4.8729e-05
4.8729e-05
4.8729e-05
4.8729e-05
4.8729e-05
4.8729e-05
4.8729e-05
4.8729e-05
4.8729e-05
4.8729e-05
4.8729e-05
)
;

boundaryField
{
    top
    {
        type            calculated;
        value           uniform 0;
    }
    bottom
    {
        type            calculated;
        value           uniform 0;
    }
    inlet
    {
        type            calculated;
        value           nonuniform List<scalar> 
20
(
-1.22896e-06
-3.68744e-06
-6.14749e-06
-8.61008e-06
-1.10761e-05
-1.35465e-05
-1.60219e-05
-1.85028e-05
-2.09899e-05
-2.34834e-05
-2.59835e-05
-2.849e-05
-3.1003e-05
-3.35221e-05
-3.60468e-05
-3.85764e-05
-4.11103e-05
-4.36477e-05
-4.61876e-05
-4.8729e-05
)
;
    }
    outlet
    {
        type            calculated;
        value           nonuniform List<scalar> 
20
(
1.22903e-06
3.68761e-06
6.14771e-06
8.61031e-06
1.10764e-05
1.35467e-05
1.6022e-05
1.85029e-05
2.09899e-05
2.34833e-05
2.59833e-05
2.84899e-05
3.10028e-05
3.35219e-05
3.60466e-05
3.85763e-05
4.11102e-05
4.36477e-05
4.61876e-05
4.8729e-05
)
;
    }
    frontAndBack
    {
        type            empty;
        value           nonuniform 0();
    }
}


// ************************************************************************* //
