/*--------------------------------*- C++ -*----------------------------------*\
| =========                 |                                                 |
| \\      /  F ield         | OpenFOAM: The Open Source CFD Toolbox           |
|  \\    /   O peration     | Version:  4.1                                   |
|   \\  /    A nd           | Web:      www.OpenFOAM.org                      |
|    \\/     M anipulation  |                                                 |
\*---------------------------------------------------------------------------*/
FoamFile
{
    version     2.0;
    format      ascii;
    class       volVectorField;
    location    "0.5";
    object      U;
}
// * * * * * * * * * * * * * * * * * * * * * * * * * * * * * * * * * * * * * //

dimensions      [0 1 -1 0 0 0 0];

internalField   nonuniform List<vector> 
400
(
(0.0245794 -1.22534e-08 0)
(0.02458 -7.73344e-09 0)
(0.0245801 5.49733e-11 0)
(0.02458 -8.837e-10 0)
(0.0245801 4.90123e-10 0)
(0.02458 -4.73096e-10 0)
(0.0245801 3.53377e-10 0)
(0.02458 -2.83105e-10 0)
(0.0245801 2.0727e-10 0)
(0.02458 -1.42927e-10 0)
(0.0245801 8.19835e-11 0)
(0.0245801 -2.62339e-11 0)
(0.0245801 -2.83769e-11 0)
(0.0245801 7.65007e-11 0)
(0.0245801 -1.37016e-10 0)
(0.02458 1.51882e-10 0)
(0.0245801 -3.48398e-10 0)
(0.02458 1.92842e-10 0)
(0.0245801 -5.02995e-09 0)
(0.0245806 -7.53088e-09 0)
(0.073749 -4.63489e-08 0)
(0.0737504 -3.22694e-08 0)
(0.0737508 1.99198e-10 0)
(0.0737505 -2.70712e-09 0)
(0.0737508 1.56034e-09 0)
(0.0737506 -1.46156e-09 0)
(0.0737507 1.10451e-09 0)
(0.0737506 -8.7895e-10 0)
(0.0737507 6.44339e-10 0)
(0.0737506 -4.42544e-10 0)
(0.0737507 2.52491e-10 0)
(0.0737506 -7.77661e-11 0)
(0.0737507 -9.17963e-11 0)
(0.0737506 2.44859e-10 0)
(0.0737507 -4.30024e-10 0)
(0.0737506 4.7938e-10 0)
(0.0737507 -1.08795e-09 0)
(0.0737506 1.58165e-09 0)
(0.0737507 -2.49685e-08 0)
(0.0737521 -3.37599e-08 0)
(0.12295 -1.01795e-07 0)
(0.122952 -8.17458e-08 0)
(0.122952 -2.68697e-09 0)
(0.122952 -5.03495e-09 0)
(0.122952 2.31e-09 0)
(0.122952 -2.39727e-09 0)
(0.122952 1.7407e-09 0)
(0.122952 -1.40877e-09 0)
(0.122952 1.02232e-09 0)
(0.122952 -7.02491e-10 0)
(0.122952 3.9596e-10 0)
(0.122952 -1.17152e-10 0)
(0.122952 -1.58434e-10 0)
(0.122952 3.95149e-10 0)
(0.122952 -7.19222e-10 0)
(0.122952 6.93248e-10 0)
(0.122952 -2.18926e-09 0)
(0.122952 2.74124e-09 0)
(0.122952 -6.81881e-08 0)
(0.122954 -8.28943e-08 0)
(0.172202 -1.58384e-07 0)
(0.172203 -1.36183e-07 0)
(0.172204 -5.778e-09 0)
(0.172204 -6.58642e-09 0)
(0.172204 2.72164e-09 0)
(0.172204 -2.93677e-09 0)
(0.172204 2.1e-09 0)
(0.172204 -1.70878e-09 0)
(0.172204 1.23342e-09 0)
(0.172204 -8.45288e-10 0)
(0.172204 4.70839e-10 0)
(0.172204 -1.3125e-10 0)
(0.172204 -2.05915e-10 0)
(0.172204 4.92374e-10 0)
(0.172204 -8.97403e-10 0)
(0.172204 8.05766e-10 0)
(0.172204 -3.05265e-09 0)
(0.172204 4.83518e-09 0)
(0.172204 -1.23683e-07 0)
(0.172206 -1.435e-07 0)
(0.221523 -2.07949e-07 0)
(0.221524 -1.87301e-07 0)
(0.221525 -9.093e-09 0)
(0.221524 -7.4158e-09 0)
(0.221525 2.78014e-09 0)
(0.221524 -3.09948e-09 0)
(0.221525 2.18711e-09 0)
(0.221524 -1.78741e-09 0)
(0.221525 1.28325e-09 0)
(0.221524 -8.7632e-10 0)
(0.221525 4.81456e-10 0)
(0.221524 -1.24109e-10 0)
(0.221525 -2.31736e-10 0)
(0.221524 5.32459e-10 0)
(0.221525 -9.6465e-10 0)
(0.221524 8.1241e-10 0)
(0.221525 -3.70267e-09 0)
(0.221524 7.15843e-09 0)
(0.221525 -1.85287e-07 0)
(0.221527 -2.08753e-07 0)
(0.27093 -2.43338e-07 0)
(0.27093 -2.26649e-07 0)
(0.270931 -1.18935e-08 0)
(0.270931 -7.52704e-09 0)
(0.270931 2.58157e-09 0)
(0.270931 -2.947e-09 0)
(0.270931 2.05775e-09 0)
(0.270931 -1.68625e-09 0)
(0.270931 1.20407e-09 0)
(0.270931 -8.182e-10 0)
(0.270931 4.42031e-10 0)
(0.270931 -1.01918e-10 0)
(0.270931 -2.36995e-10 0)
(0.270931 5.24031e-10 0)
(0.270931 -9.36614e-10 0)
(0.270931 7.38326e-10 0)
(0.270931 -4.11124e-09 0)
(0.270931 9.65898e-09 0)
(0.270931 -2.45847e-07 0)
(0.270933 -2.71691e-07 0)
(0.320437 -2.60905e-07 0)
(0.320437 -2.4975e-07 0)
(0.320438 -1.38637e-08 0)
(0.320437 -7.00326e-09 0)
(0.320438 2.17896e-09 0)
(0.320437 -2.53916e-09 0)
(0.320438 1.75445e-09 0)
(0.320437 -1.44057e-09 0)
(0.320438 1.02183e-09 0)
(0.320437 -6.89404e-10 0)
(0.320438 3.63813e-10 0)
(0.320437 -6.95038e-11 0)
(0.320438 -2.23511e-10 0)
(0.320437 4.73755e-10 0)
(0.320438 -8.29208e-10 0)
(0.320437 5.96923e-10 0)
(0.320438 -4.28806e-09 0)
(0.320437 1.20724e-08 0)
(0.320438 -2.99689e-07 0)
(0.320439 -3.26609e-07 0)
(0.370057 -2.58977e-07 0)
(0.370056 -2.54214e-07 0)
(0.370057 -1.47486e-08 0)
(0.370056 -5.92048e-09 0)
(0.370057 1.62061e-09 0)
(0.370056 -1.92893e-09 0)
(0.370057 1.31521e-09 0)
(0.370056 -1.08157e-09 0)
(0.370057 7.59424e-10 0)
(0.370056 -5.06085e-10 0)
(0.370057 2.56449e-10 0)
(0.370056 -3.06782e-11 0)
(0.370057 -1.93406e-10 0)
(0.370056 3.88316e-10 0)
(0.370057 -6.57116e-10 0)
(0.370056 4.01757e-10 0)
(0.370057 -4.23365e-09 0)
(0.370056 1.4177e-08 0)
(0.370057 -3.41878e-07 0)
(0.370058 -3.68546e-07 0)
(0.419799 -2.38143e-07 0)
(0.419797 -2.40032e-07 0)
(0.419798 -1.44479e-08 0)
(0.419797 -4.38223e-09 0)
(0.419798 9.54092e-10 0)
(0.419797 -1.1726e-09 0)
(0.419798 7.79314e-10 0)
(0.419797 -6.41778e-10 0)
(0.419798 4.40431e-10 0)
(0.419797 -2.84708e-10 0)
(0.419798 1.29477e-10 0)
(0.419797 1.12155e-11 0)
(0.419798 -1.49657e-10 0)
(0.419797 2.75564e-10 0)
(0.419798 -4.36618e-10 0)
(0.419797 1.67937e-10 0)
(0.419798 -3.95749e-09 0)
(0.419797 1.57642e-08 0)
(0.419798 -3.68732e-07 0)
(0.419798 -3.9383e-07 0)
(0.469668 -2.0106e-07 0)
(0.469666 -2.0938e-07 0)
(0.469667 -1.30218e-08 0)
(0.469666 -2.51892e-09 0)
(0.469667 2.27153e-10 0)
(0.469666 -3.29584e-10 0)
(0.469667 1.87516e-10 0)
(0.469666 -1.55058e-10 0)
(0.469667 8.91876e-11 0)
(0.469666 -4.21142e-11 0)
(0.469667 -7.60653e-12 0)
(0.469666 5.32539e-11 0)
(0.469667 -9.60258e-11 0)
(0.469666 1.44497e-10 0)
(0.469667 -1.85521e-10 0)
(0.469666 -8.78237e-11 0)
(0.469667 -3.48029e-09 0)
(0.469666 1.66675e-08 0)
(0.469667 -3.78063e-07 0)
(0.469666 -4.00345e-07 0)
(0.519669 -1.52122e-07 0)
(0.519667 -1.66306e-07 0)
(0.519667 -1.06901e-08 0)
(0.519667 -4.84385e-10 0)
(0.519667 -5.13895e-10 0)
(0.519667 5.39225e-10 0)
(0.519667 -4.19105e-10 0)
(0.519667 3.443e-10 0)
(0.519667 -2.69873e-10 0)
(0.519667 2.04907e-10 0)
(0.519667 -1.45553e-10 0)
(0.519667 9.29322e-11 0)
(0.519667 -3.68706e-11 0)
(0.519667 4.87664e-12 0)
(0.519667 7.7432e-11 0)
(0.519667 -3.47935e-10 0)
(0.519667 -2.836e-09 0)
(0.519667 1.67781e-08 0)
(0.519667 -3.69304e-07 0)
(0.519666 -3.87677e-07 0)
(0.569801 -9.6967e-08 0)
(0.569798 -1.16215e-07 0)
(0.569799 -7.80156e-09 0)
(0.569798 1.55152e-09 0)
(0.569799 -1.22418e-09 0)
(0.569798 1.37279e-09 0)
(0.569799 -9.99798e-10 0)
(0.569799 8.22198e-10 0)
(0.569799 -6.12591e-10 0)
(0.569799 4.39849e-10 0)
(0.569799 -2.75436e-10 0)
(0.569799 1.28102e-10 0)
(0.569799 2.30642e-11 0)
(0.569799 -1.33091e-10 0)
(0.569799 3.33081e-10 0)
(0.569799 -5.94322e-10 0)
(0.569799 -2.07202e-09 0)
(0.569798 1.60616e-08 0)
(0.569799 -3.4351e-07 0)
(0.569797 -3.57124e-07 0)
(0.620061 -4.18894e-08 0)
(0.620058 -6.52446e-08 0)
(0.620059 -4.78294e-09 0)
(0.620058 3.41178e-09 0)
(0.620059 -1.85978e-09 0)
(0.620058 2.11092e-09 0)
(0.620059 -1.51452e-09 0)
(0.620058 1.24512e-09 0)
(0.620059 -9.15297e-10 0)
(0.620058 6.466e-10 0)
(0.620059 -3.88649e-10 0)
(0.620058 1.5687e-10 0)
(0.620059 7.88565e-11 0)
(0.620058 -2.59041e-10 0)
(0.620059 5.62303e-10 0)
(0.620058 -8.08842e-10 0)
(0.620059 -1.24855e-09 0)
(0.620058 1.45677e-08 0)
(0.620059 -3.03239e-07 0)
(0.620057 -3.11584e-07 0)
(0.670442 6.844e-09 0)
(0.67044 -1.95307e-08 0)
(0.670441 -2.07214e-09 0)
(0.67044 4.92375e-09 0)
(0.67044 -2.37731e-09 0)
(0.67044 2.69566e-09 0)
(0.67044 -1.92447e-09 0)
(0.67044 1.58069e-09 0)
(0.67044 -1.15513e-09 0)
(0.67044 8.09632e-10 0)
(0.67044 -4.76929e-10 0)
(0.67044 1.77489e-10 0)
(0.67044 1.25653e-10 0)
(0.67044 -3.6281e-10 0)
(0.67044 7.46578e-10 0)
(0.67044 -9.73851e-10 0)
(0.67044 -4.36393e-10 0)
(0.67044 1.24315e-08 0)
(0.67044 -2.52332e-07 0)
(0.670438 -2.55329e-07 0)
(0.720935 4.37111e-08 0)
(0.720934 1.55583e-08 0)
(0.720934 -5.01599e-11 0)
(0.720934 5.93024e-09 0)
(0.720934 -2.73456e-09 0)
(0.720934 3.07282e-09 0)
(0.720934 -2.19312e-09 0)
(0.720934 1.79848e-09 0)
(0.720934 -1.31057e-09 0)
(0.720934 9.14325e-10 0)
(0.720934 -5.32475e-10 0)
(0.720934 1.88272e-10 0)
(0.720934 1.58946e-10 0)
(0.720934 -4.3492e-10 0)
(0.720934 8.68592e-10 0)
(0.720934 -1.07337e-09 0)
(0.720934 2.8654e-10 0)
(0.720934 9.86176e-09 0)
(0.720934 -1.95581e-07 0)
(0.720931 -1.93656e-07 0)
(0.771528 6.47088e-08 0)
(0.771527 3.62667e-08 0)
(0.771528 1.03478e-09 0)
(0.771527 6.29932e-09 0)
(0.771528 -2.88846e-09 0)
(0.771527 3.19216e-09 0)
(0.771528 -2.28573e-09 0)
(0.771527 1.86984e-09 0)
(0.771528 -1.36119e-09 0)
(0.771528 9.46745e-10 0)
(0.771528 -5.47726e-10 0)
(0.771528 1.87395e-10 0)
(0.771528 1.74765e-10 0)
(0.771528 -4.66724e-10 0)
(0.771528 9.12571e-10 0)
(0.771527 -1.09298e-09 0)
(0.771528 8.39839e-10 0)
(0.771527 7.1144e-09 0)
(0.771528 -1.3831e-07 0)
(0.771525 -1.32429e-07 0)
(0.822207 6.77616e-08 0)
(0.822206 4.09634e-08 0)
(0.822207 1.07943e-09 0)
(0.822206 5.90195e-09 0)
(0.822207 -2.78992e-09 0)
(0.822207 2.99699e-09 0)
(0.822207 -2.16328e-09 0)
(0.822207 1.76229e-09 0)
(0.822207 -1.28374e-09 0)
(0.822207 8.90833e-10 0)
(0.822207 -5.13704e-10 0)
(0.822207 1.72201e-10 0)
(0.822207 1.69277e-10 0)
(0.822207 -4.49514e-10 0)
(0.822207 8.60991e-10 0)
(0.822207 -1.02014e-09 0)
(0.822207 1.13695e-09 0)
(0.822207 4.45893e-09 0)
(0.822207 -8.58865e-08 0)
(0.822205 -7.75996e-08 0)
(0.872954 5.48751e-08 0)
(0.872954 3.26038e-08 0)
(0.872955 4.65623e-10 0)
(0.872954 4.68975e-09 0)
(0.872955 -2.34496e-09 0)
(0.872954 2.42958e-09 0)
(0.872955 -1.77371e-09 0)
(0.872954 1.43718e-09 0)
(0.872954 -1.04886e-09 0)
(0.872954 7.26552e-10 0)
(0.872954 -4.18614e-10 0)
(0.872954 1.38792e-10 0)
(0.872954 1.39213e-10 0)
(0.872954 -3.72085e-10 0)
(0.872954 6.99139e-10 0)
(0.872954 -8.26701e-10 0)
(0.872955 1.11301e-09 0)
(0.872954 2.14354e-09 0)
(0.872955 -4.33192e-08 0)
(0.872953 -3.47765e-08 0)
(0.923752 2.97631e-08 0)
(0.923752 1.50553e-08 0)
(0.923752 -7.69527e-10 0)
(0.923752 2.6119e-09 0)
(0.923752 -1.5714e-09 0)
(0.923752 1.47319e-09 0)
(0.923752 -1.11625e-09 0)
(0.923752 8.89387e-10 0)
(0.923752 -6.53882e-10 0)
(0.923752 4.51271e-10 0)
(0.923752 -2.607e-10 0)
(0.923752 8.56283e-11 0)
(0.923752 8.48764e-11 0)
(0.923752 -2.37002e-10 0)
(0.923752 4.18808e-10 0)
(0.923752 -5.42642e-10 0)
(0.923752 7.03861e-10 0)
(0.923752 4.67053e-10 0)
(0.923752 -1.50231e-08 0)
(0.923751 -8.76083e-09 0)
(0.97458 9.62346e-09 0)
(0.974581 4.9427e-09 0)
(0.974581 -1.75523e-10 0)
(0.974581 8.59158e-10 0)
(0.974581 -4.92326e-10 0)
(0.974581 4.75238e-10 0)
(0.974581 -3.55353e-10 0)
(0.974581 2.84826e-10 0)
(0.974581 -2.08897e-10 0)
(0.974581 1.4439e-10 0)
(0.974581 -8.33734e-11 0)
(0.974581 2.75481e-11 0)
(0.974581 2.72344e-11 0)
(0.974581 -7.47568e-11 0)
(0.974581 1.3707e-10 0)
(0.974581 -1.60777e-10 0)
(0.974581 2.57125e-10 0)
(0.974581 -2.45824e-11 0)
(0.974581 -2.07615e-09 0)
(0.97458 1.34074e-10 0)
)
;

boundaryField
{
    top
    {
        type            fixedValue;
        value           uniform (1 0 0);
    }
    bottom
    {
        type            fixedValue;
        value           uniform (0 0 0);
    }
    inlet
    {
        type            zeroGradient;
    }
    outlet
    {
        type            zeroGradient;
    }
    frontAndBack
    {
        type            empty;
    }
}


// ************************************************************************* //
