/*--------------------------------*- C++ -*----------------------------------*\
| =========                 |                                                 |
| \\      /  F ield         | OpenFOAM: The Open Source CFD Toolbox           |
|  \\    /   O peration     | Version:  4.1                                   |
|   \\  /    A nd           | Web:      www.OpenFOAM.org                      |
|    \\/     M anipulation  |                                                 |
\*---------------------------------------------------------------------------*/
FoamFile
{
    version     2.0;
    format      ascii;
    class       volScalarField;
    location    "1.4";
    object      p;
}
// * * * * * * * * * * * * * * * * * * * * * * * * * * * * * * * * * * * * * //

dimensions      [0 2 -2 0 0 0 0];

internalField   nonuniform List<scalar> 
400
(
8.47065e-08
9.36845e-08
8.0636e-08
8.55438e-08
7.59665e-08
7.84199e-08
7.11002e-08
7.16644e-08
6.59679e-08
6.51209e-08
6.06759e-08
5.86919e-08
5.53094e-08
5.23013e-08
4.99378e-08
4.58875e-08
4.46426e-08
3.95041e-08
3.98185e-08
3.81277e-08
8.43999e-08
9.33703e-08
8.06122e-08
8.55377e-08
7.59668e-08
7.8419e-08
7.11008e-08
7.16639e-08
6.59683e-08
6.51206e-08
6.06761e-08
5.86918e-08
5.53094e-08
5.23013e-08
4.99376e-08
4.58874e-08
4.46393e-08
3.95063e-08
3.96088e-08
3.79058e-08
8.42274e-08
9.3148e-08
8.05839e-08
8.55369e-08
7.59633e-08
7.84213e-08
7.10988e-08
7.16655e-08
6.59671e-08
6.51215e-08
6.06755e-08
5.86921e-08
5.53093e-08
5.23012e-08
4.9938e-08
4.58865e-08
4.46376e-08
3.95043e-08
3.94444e-08
3.77542e-08
8.41735e-08
9.30439e-08
8.0557e-08
8.55374e-08
7.59593e-08
7.84239e-08
7.10966e-08
7.16673e-08
6.59657e-08
6.51225e-08
6.06748e-08
5.86925e-08
5.53092e-08
5.2301e-08
4.99384e-08
4.58855e-08
4.46367e-08
3.94989e-08
3.93499e-08
3.76769e-08
8.4191e-08
9.3022e-08
8.05316e-08
8.55377e-08
7.59561e-08
7.8426e-08
7.10948e-08
7.16686e-08
6.59647e-08
6.51233e-08
6.06742e-08
5.86928e-08
5.53092e-08
5.23008e-08
4.99388e-08
4.58847e-08
4.46361e-08
3.94919e-08
3.93101e-08
3.76501e-08
8.42554e-08
9.30553e-08
8.05063e-08
8.55377e-08
7.59535e-08
7.84277e-08
7.10934e-08
7.16698e-08
6.59638e-08
6.51239e-08
6.06738e-08
5.8693e-08
5.53091e-08
5.23007e-08
4.99391e-08
4.58841e-08
4.46357e-08
3.94839e-08
3.9314e-08
3.76629e-08
8.43529e-08
9.31272e-08
8.04804e-08
8.55375e-08
7.59513e-08
7.84291e-08
7.10923e-08
7.16706e-08
6.59631e-08
6.51244e-08
6.06735e-08
5.86932e-08
5.53091e-08
5.23006e-08
4.99394e-08
4.58837e-08
4.46357e-08
3.94757e-08
3.93546e-08
3.77084e-08
8.44676e-08
9.32209e-08
8.04537e-08
8.55368e-08
7.59495e-08
7.84301e-08
7.10914e-08
7.16713e-08
6.59626e-08
6.51248e-08
6.06732e-08
5.86934e-08
5.5309e-08
5.23005e-08
4.99396e-08
4.58834e-08
4.46358e-08
3.94679e-08
3.94231e-08
3.77777e-08
8.45835e-08
9.33195e-08
8.0426e-08
8.55356e-08
7.59481e-08
7.84307e-08
7.10908e-08
7.16717e-08
6.59623e-08
6.5125e-08
6.06731e-08
5.86935e-08
5.5309e-08
5.23005e-08
4.99398e-08
4.58832e-08
4.46359e-08
3.94611e-08
3.9509e-08
3.786e-08
8.46856e-08
9.34076e-08
8.03976e-08
8.55336e-08
7.59472e-08
7.8431e-08
7.10906e-08
7.16719e-08
6.59621e-08
6.51251e-08
6.0673e-08
5.86935e-08
5.5309e-08
5.23004e-08
4.99399e-08
4.58831e-08
4.4636e-08
3.94559e-08
3.9601e-08
3.79442e-08
8.47614e-08
9.34721e-08
8.03688e-08
8.55308e-08
7.59466e-08
7.84309e-08
7.10906e-08
7.16719e-08
6.59621e-08
6.51251e-08
6.0673e-08
5.86935e-08
5.5309e-08
5.23004e-08
4.994e-08
4.58832e-08
4.46359e-08
3.94524e-08
3.96878e-08
3.80195e-08
8.48012e-08
9.35034e-08
8.03402e-08
8.55272e-08
7.59464e-08
7.84305e-08
7.10909e-08
7.16717e-08
6.59624e-08
6.5125e-08
6.06731e-08
5.86934e-08
5.53091e-08
5.23004e-08
4.99399e-08
4.58834e-08
4.46355e-08
3.94507e-08
3.97594e-08
3.80762e-08
8.47989e-08
9.34953e-08
8.03125e-08
8.55226e-08
7.59466e-08
7.84296e-08
7.10915e-08
7.16712e-08
6.59627e-08
6.51247e-08
6.06733e-08
5.86933e-08
5.53091e-08
5.23005e-08
4.99399e-08
4.58838e-08
4.46347e-08
3.94508e-08
3.9807e-08
3.81064e-08
8.47526e-08
9.34468e-08
8.02865e-08
8.55172e-08
7.59473e-08
7.84284e-08
7.10924e-08
7.16704e-08
6.59633e-08
6.51242e-08
6.06736e-08
5.86931e-08
5.53092e-08
5.23005e-08
4.99397e-08
4.58842e-08
4.46335e-08
3.94523e-08
3.98245e-08
3.81044e-08
8.46649e-08
9.33607e-08
8.02629e-08
8.55112e-08
7.59483e-08
7.84269e-08
7.10936e-08
7.16695e-08
6.5964e-08
6.51237e-08
6.0674e-08
5.86929e-08
5.53093e-08
5.23006e-08
4.99395e-08
4.58846e-08
4.46317e-08
3.94551e-08
3.98084e-08
3.80676e-08
8.45439e-08
9.32464e-08
8.02426e-08
8.55045e-08
7.59498e-08
7.8425e-08
7.1095e-08
7.16683e-08
6.59649e-08
6.5123e-08
6.06745e-08
5.86926e-08
5.53094e-08
5.23007e-08
4.99393e-08
4.58852e-08
4.46295e-08
3.94586e-08
3.97597e-08
3.79972e-08
8.43998e-08
9.31167e-08
8.02264e-08
8.54973e-08
7.59519e-08
7.84227e-08
7.10968e-08
7.16669e-08
6.5966e-08
6.51222e-08
6.0675e-08
5.86923e-08
5.53095e-08
5.23008e-08
4.99389e-08
4.58858e-08
4.46268e-08
3.94626e-08
3.96824e-08
3.78967e-08
8.42536e-08
9.29952e-08
8.0215e-08
8.54895e-08
7.59547e-08
7.84198e-08
7.10991e-08
7.16651e-08
6.59674e-08
6.51212e-08
6.06757e-08
5.86919e-08
5.53096e-08
5.2301e-08
4.99384e-08
4.58864e-08
4.46236e-08
3.94665e-08
3.95854e-08
3.77744e-08
8.41408e-08
9.2905e-08
8.02068e-08
8.54825e-08
7.59571e-08
7.84172e-08
7.1101e-08
7.16636e-08
6.59686e-08
6.51203e-08
6.06763e-08
5.86915e-08
5.53097e-08
5.23012e-08
4.9938e-08
4.58869e-08
4.46203e-08
3.94701e-08
3.94753e-08
3.76428e-08
8.41208e-08
9.28651e-08
8.01963e-08
8.54808e-08
7.59556e-08
7.8418e-08
7.11003e-08
7.16641e-08
6.59682e-08
6.51206e-08
6.06761e-08
5.86917e-08
5.53096e-08
5.23011e-08
4.99381e-08
4.58864e-08
4.46181e-08
3.94717e-08
3.9371e-08
3.754e-08
)
;

boundaryField
{
    top
    {
        type            zeroGradient;
    }
    bottom
    {
        type            zeroGradient;
    }
    inlet
    {
        type            fixedValue;
        value           uniform 0;
    }
    outlet
    {
        type            fixedValue;
        value           uniform 0;
    }
    frontAndBack
    {
        type            empty;
    }
}


// ************************************************************************* //
