/*--------------------------------*- C++ -*----------------------------------*\
| =========                 |                                                 |
| \\      /  F ield         | OpenFOAM: The Open Source CFD Toolbox           |
|  \\    /   O peration     | Version:  4.1                                   |
|   \\  /    A nd           | Web:      www.OpenFOAM.org                      |
|    \\/     M anipulation  |                                                 |
\*---------------------------------------------------------------------------*/
FoamFile
{
    version     2.0;
    format      ascii;
    class       surfaceScalarField;
    location    "1.4";
    object      phi;
}
// * * * * * * * * * * * * * * * * * * * * * * * * * * * * * * * * * * * * * //

dimensions      [0 3 -1 0 0 0 0];

internalField   nonuniform List<scalar> 
760
(
1.24985e-06
-1.31589e-13
1.24985e-06
-8.94213e-14
1.24985e-06
6.37734e-16
1.24985e-06
-5.92767e-15
1.24985e-06
3.88098e-15
1.24985e-06
-3.29803e-15
1.24985e-06
2.62936e-15
1.24985e-06
-2.09351e-15
1.24985e-06
1.62093e-15
1.24985e-06
-1.20254e-15
1.24985e-06
8.21963e-16
1.24985e-06
-4.65819e-16
1.24985e-06
1.21913e-16
1.24985e-06
2.18972e-16
1.24985e-06
-5.8383e-16
1.24985e-06
8.8461e-16
1.24985e-06
-1.99428e-15
1.24985e-06
2.95328e-15
1.24985e-06
-5.35138e-14
-7.98857e-14
3.74954e-06
-3.97262e-13
3.74954e-06
-3.136e-13
3.74954e-06
-7.57498e-15
3.74954e-06
-1.45221e-14
3.74954e-06
8.10726e-15
3.74954e-06
-7.14043e-15
3.74954e-06
5.6415e-15
3.74954e-06
-4.50052e-15
3.74954e-06
3.48301e-15
3.74954e-06
-2.58337e-15
3.74954e-06
1.76434e-15
3.74954e-06
-9.97188e-16
3.74954e-06
2.55491e-16
3.74954e-06
4.77318e-16
3.74954e-06
-1.28804e-15
3.74954e-06
1.81518e-15
3.74954e-06
-5.41405e-15
3.74954e-06
7.98063e-15
3.74954e-06
-1.97714e-13
-2.57535e-13
6.24925e-06
-7.18158e-13
6.24925e-06
-6.19037e-13
6.24925e-06
-2.56273e-14
6.24925e-06
-2.24336e-14
6.24925e-06
1.03884e-14
6.24925e-06
-9.59487e-15
6.24925e-06
7.49209e-15
6.24925e-06
-5.99157e-15
6.24925e-06
4.63356e-15
6.24925e-06
-3.43498e-15
6.24925e-06
2.34263e-15
6.24925e-06
-1.31835e-15
6.24925e-06
3.2661e-16
6.24925e-06
6.49071e-16
6.24925e-06
-1.77333e-15
6.24925e-06
2.27678e-15
6.24925e-06
-9.18726e-15
6.24925e-06
1.36791e-14
6.24925e-06
-4.06679e-13
-4.91936e-13
8.74898e-06
-1.04594e-12
8.74898e-06
-9.52936e-13
8.74898e-06
-5.01929e-14
8.74898e-06
-2.93091e-14
8.74898e-06
1.09781e-14
8.74898e-06
-1.07961e-14
8.74898e-06
8.30469e-15
8.74898e-06
-6.66186e-15
8.74898e-06
5.14631e-15
8.74898e-06
-3.8118e-15
8.74898e-06
2.59401e-15
8.74898e-06
-1.45071e-15
8.74898e-06
3.41906e-16
8.74898e-06
7.42812e-16
8.74898e-06
-2.05575e-15
8.74898e-06
2.3393e-15
8.74898e-06
-1.30334e-14
8.74898e-06
1.96315e-14
8.74898e-06
-6.49528e-13
-7.52289e-13
1.12487e-05
-1.33895e-12
1.12487e-05
-1.26879e-12
1.12487e-05
-7.77123e-14
1.12487e-05
-3.47659e-14
1.12487e-05
1.01516e-14
1.12487e-05
-1.089e-14
1.12487e-05
8.21299e-15
1.12487e-05
-6.61472e-15
1.12487e-05
5.10161e-15
1.12487e-05
-3.77348e-15
1.12487e-05
2.5596e-15
1.12487e-05
-1.41837e-15
1.12487e-05
3.09416e-16
1.12487e-05
7.67161e-16
1.12487e-05
-2.15263e-15
1.12487e-05
2.07417e-15
1.12487e-05
-1.66487e-14
1.12487e-05
2.54316e-14
1.12487e-05
-8.96603e-13
-1.00913e-12
1.37485e-05
-1.56528e-12
1.37485e-05
-1.5297e-12
1.37485e-05
-1.04697e-13
1.37485e-05
-3.84565e-14
1.37485e-05
8.19863e-15
1.37485e-05
-1.00342e-14
1.37485e-05
7.36018e-15
1.37485e-05
-5.96127e-15
1.37485e-05
4.58615e-15
1.37485e-05
-3.38466e-15
1.37485e-05
2.28424e-15
1.37485e-05
-1.24784e-15
1.37485e-05
2.38254e-16
1.37485e-05
7.31005e-16
1.37485e-05
-2.08346e-15
1.37485e-05
1.55265e-15
1.37485e-05
-1.974e-14
1.37485e-05
3.06513e-14
1.37485e-05
-1.1211e-12
-1.23595e-12
1.62483e-05
-1.70292e-12
1.62483e-05
-1.70878e-12
1.62483e-05
-1.28029e-13
1.62483e-05
-4.01162e-14
1.62483e-05
5.41474e-15
1.62483e-05
-8.39724e-15
1.62483e-05
5.89726e-15
1.62483e-05
-4.81917e-15
1.62483e-05
3.69185e-15
1.62483e-05
-2.71406e-15
1.62483e-05
1.81575e-15
1.62483e-05
-9.67553e-16
1.62483e-05
1.38316e-16
1.62483e-05
6.43613e-16
1.62483e-05
-1.87027e-15
1.62483e-05
8.44866e-16
1.62483e-05
-2.20502e-14
1.62483e-05
3.48486e-14
1.62483e-05
-1.30091e-12
-1.41108e-12
1.87482e-05
-1.74091e-12
1.87482e-05
-1.79062e-12
1.87482e-05
-1.45233e-13
1.87482e-05
-3.96067e-14
1.87482e-05
2.09202e-15
1.87482e-05
-6.15703e-15
1.87482e-05
3.98048e-15
1.87482e-05
-3.3108e-15
1.87482e-05
2.5144e-15
1.87482e-05
-1.83336e-15
1.87482e-05
1.20408e-15
1.87482e-05
-6.07191e-16
1.87482e-05
1.98429e-17
1.87482e-05
5.14734e-16
1.87482e-05
-1.53774e-15
1.87482e-05
1.86102e-17
1.87482e-05
-2.3382e-14
1.87482e-05
3.76028e-14
1.87482e-05
-1.41983e-12
-1.51891e-12
2.12481e-05
-1.67883e-12
2.12481e-05
-1.77096e-12
2.12481e-05
-1.54684e-13
2.12481e-05
-3.69464e-14
2.12481e-05
-1.48863e-15
2.12481e-05
-3.49923e-15
2.12481e-05
1.76941e-15
2.12481e-05
-1.56173e-15
2.12481e-05
1.15197e-15
2.12481e-05
-8.1614e-16
2.12481e-05
5.00495e-16
2.12481e-05
-1.97142e-16
2.12481e-05
-1.06914e-16
2.12481e-05
3.54697e-16
2.12481e-05
-1.11342e-15
2.12481e-05
-8.61115e-16
2.12481e-05
-2.36158e-14
2.12481e-05
3.85705e-14
2.12481e-05
-1.46841e-12
-1.55081e-12
2.3748e-05
-1.52625e-12
2.3748e-05
-1.65629e-12
2.3748e-05
-1.55731e-13
2.3748e-05
-3.23282e-14
2.3748e-05
-5.06396e-15
2.3748e-05
-6.15864e-16
2.3748e-05
-5.75128e-16
2.3748e-05
3.00819e-16
2.3748e-05
-2.96015e-16
2.3748e-05
2.63155e-16
2.3748e-05
-2.43264e-16
2.3748e-05
2.32129e-16
2.3748e-05
-2.32056e-16
2.3748e-05
1.74487e-16
2.3748e-05
-6.2766e-16
2.3748e-05
-1.7324e-15
2.3748e-05
-2.27228e-14
2.3748e-05
3.75487e-14
2.3748e-05
-1.44422e-12
-1.50546e-12
2.6248e-05
-1.30129e-12
2.6248e-05
-1.46244e-12
2.6248e-05
-1.48704e-13
2.6248e-05
-2.61199e-14
2.6248e-05
-8.3927e-15
2.6248e-05
2.29639e-15
2.6248e-05
-2.89288e-15
2.6248e-05
2.14938e-15
2.6248e-05
-1.73023e-15
2.6248e-05
1.3302e-15
2.6248e-05
-9.75685e-16
2.6248e-05
6.50567e-16
2.6248e-05
-3.46375e-16
2.6248e-05
-1.41077e-17
2.6248e-05
-1.13493e-16
2.6248e-05
-2.53659e-15
2.6248e-05
-2.07708e-14
2.6248e-05
3.45303e-14
2.6248e-05
-1.35172e-12
-1.3887e-12
2.87481e-05
-1.02856e-12
2.87481e-05
-1.21252e-12
2.87481e-05
-1.34823e-13
2.87481e-05
-1.88472e-14
2.87481e-05
-1.12576e-14
2.87481e-05
5.03818e-15
2.87481e-05
-5.02595e-15
2.87481e-05
3.85773e-15
2.87481e-05
-3.0525e-15
2.87481e-05
2.31172e-15
2.87481e-05
-1.64625e-15
2.87481e-05
1.02909e-15
2.87481e-05
-4.41605e-16
2.87481e-05
-1.98553e-16
2.87481e-05
3.93674e-16
2.87481e-05
-3.21846e-15
2.87481e-05
-1.79218e-14
2.87481e-05
2.97409e-14
2.87481e-05
-1.20147e-12
-1.21287e-12
3.12482e-05
-7.36931e-13
3.12482e-05
-9.34459e-13
3.12482e-05
-1.15975e-13
3.12482e-05
-1.11607e-14
3.12482e-05
-1.3465e-14
3.12482e-05
7.40979e-15
3.12482e-05
-6.82037e-15
3.12482e-05
5.30214e-15
3.12482e-05
-4.16693e-15
3.12482e-05
3.13638e-15
3.12482e-05
-2.20609e-15
3.12482e-05
1.33998e-15
3.12482e-05
-5.10631e-16
3.12482e-05
-3.65567e-16
3.12482e-05
8.56542e-16
3.12482e-05
-3.72666e-15
3.12482e-05
-1.44237e-14
3.12482e-05
2.36397e-14
3.12482e-05
-1.00913e-12
-9.95653e-13
3.37483e-05
-4.56244e-13
3.37483e-05
-6.57588e-13
3.37483e-05
-9.44342e-14
3.37483e-05
-3.78784e-15
3.37483e-05
-1.48427e-14
3.37483e-05
9.21345e-15
3.37483e-05
-8.12748e-15
3.37483e-05
6.36271e-15
3.37483e-05
-4.98094e-15
3.37483e-05
3.73559e-15
3.37483e-05
-2.60857e-15
3.37483e-05
1.55727e-15
3.37483e-05
-5.47601e-16
3.37483e-05
-5.01263e-16
3.37483e-05
1.23651e-15
3.37483e-05
-4.01439e-15
3.37483e-05
-1.05926e-14
3.37483e-05
1.68897e-14
3.37483e-05
-7.93656e-13
-7.58278e-13
3.62485e-05
-2.14813e-13
3.62485e-05
-4.09785e-13
3.62485e-05
-7.24743e-14
3.62485e-05
2.52146e-15
3.62485e-05
-1.52348e-14
3.62485e-05
1.02561e-14
3.62485e-05
-8.80513e-15
3.62485e-05
6.92444e-15
3.62485e-05
-5.40612e-15
3.62485e-05
4.04417e-15
3.62485e-05
-2.80975e-15
3.62485e-05
1.65698e-15
3.62485e-05
-5.47973e-16
3.62485e-05
-5.91297e-16
3.62485e-05
1.49438e-15
3.62485e-05
-4.04065e-15
3.62485e-05
-6.79118e-15
3.62485e-05
1.02748e-14
3.62485e-05
-5.75798e-13
-5.23853e-13
3.87487e-05
-3.49596e-14
3.87487e-05
-2.12775e-13
3.87487e-05
-5.20343e-14
3.87487e-05
7.05486e-15
3.87487e-05
-1.44972e-14
3.87487e-05
1.03518e-14
3.87487e-05
-8.71869e-15
3.87487e-05
6.87824e-15
3.87487e-05
-5.35899e-15
3.87487e-05
4.00087e-15
3.87487e-05
-2.76871e-15
3.87487e-05
1.61734e-15
3.87487e-05
-5.08511e-16
3.87487e-05
-6.21149e-16
3.87487e-05
1.5912e-15
3.87487e-05
-3.77163e-15
3.87487e-05
-3.40132e-15
3.87487e-05
4.60518e-15
3.87487e-05
-3.75285e-13
-3.14433e-13
4.1249e-05
6.84042e-14
4.1249e-05
-8.039e-14
4.1249e-05
-3.43317e-14
4.1249e-05
9.1872e-15
4.1249e-05
-1.2492e-14
4.1249e-05
9.3252e-15
4.1249e-05
-7.74221e-15
4.1249e-05
6.12209e-15
4.1249e-05
-4.76185e-15
4.1249e-05
3.54904e-15
4.1249e-05
-2.44801e-15
4.1249e-05
1.41885e-15
4.1249e-05
-4.27106e-16
4.1249e-05
-5.76549e-16
4.1249e-05
1.48924e-15
4.1249e-05
-3.18261e-15
4.1249e-05
-7.97312e-16
4.1249e-05
5.6389e-16
4.1249e-05
-2.09623e-13
-1.49593e-13
4.37492e-05
9.41081e-14
4.37492e-05
-1.21464e-14
4.37492e-05
-1.97093e-14
4.37492e-05
8.42192e-15
4.37492e-05
-9.08198e-15
4.37492e-05
7.01327e-15
4.37492e-05
-5.75876e-15
4.37492e-05
4.56159e-15
4.37492e-05
-3.54305e-15
4.37492e-05
2.63675e-15
4.37492e-05
-1.81365e-15
4.37492e-05
1.0442e-15
4.37492e-05
-3.0252e-16
4.37492e-05
-4.43854e-16
4.37492e-05
1.15272e-15
4.37492e-05
-2.25994e-15
4.37492e-05
6.8143e-16
4.37492e-05
-1.39373e-15
4.37492e-05
-8.98806e-14
-4.20766e-14
4.62495e-05
5.27174e-14
4.62495e-05
4.90952e-15
4.62495e-05
-7.48054e-15
4.62495e-05
4.39984e-15
4.62495e-05
-4.12484e-15
4.62495e-05
3.26584e-15
4.62495e-05
-2.65954e-15
4.62495e-05
2.10927e-15
4.62495e-05
-1.6364e-15
4.62495e-05
1.2163e-15
4.62495e-05
-8.34689e-16
4.62495e-05
4.77951e-16
4.62495e-05
-1.34034e-16
4.62495e-05
-2.10455e-16
4.62495e-05
5.48483e-16
4.62495e-05
-1.00201e-15
4.62495e-05
7.49623e-16
4.62495e-05
-1.20145e-15
4.62495e-05
-2.12472e-14
1.83396e-15
4.87498e-05
4.87498e-05
4.87498e-05
4.87498e-05
4.87498e-05
4.87498e-05
4.87498e-05
4.87498e-05
4.87498e-05
4.87498e-05
4.87498e-05
4.87498e-05
4.87498e-05
4.87498e-05
4.87498e-05
4.87498e-05
4.87498e-05
4.87498e-05
4.87498e-05
)
;

boundaryField
{
    top
    {
        type            calculated;
        value           uniform 0;
    }
    bottom
    {
        type            calculated;
        value           uniform 0;
    }
    inlet
    {
        type            calculated;
        value           nonuniform List<scalar> 
20
(
-1.24985e-06
-3.74954e-06
-6.24925e-06
-8.74898e-06
-1.12487e-05
-1.37485e-05
-1.62483e-05
-1.87482e-05
-2.12481e-05
-2.3748e-05
-2.6248e-05
-2.87481e-05
-3.12482e-05
-3.37483e-05
-3.62485e-05
-3.87487e-05
-4.1249e-05
-4.37492e-05
-4.62495e-05
-4.87498e-05
)
;
    }
    outlet
    {
        type            calculated;
        value           nonuniform List<scalar> 
20
(
1.24985e-06
3.74954e-06
6.24925e-06
8.74898e-06
1.12487e-05
1.37485e-05
1.62483e-05
1.87482e-05
2.12481e-05
2.3748e-05
2.6248e-05
2.87481e-05
3.12482e-05
3.37483e-05
3.62485e-05
3.87487e-05
4.1249e-05
4.37492e-05
4.62495e-05
4.87498e-05
)
;
    }
    frontAndBack
    {
        type            empty;
        value           nonuniform 0();
    }
}


// ************************************************************************* //
