/*--------------------------------*- C++ -*----------------------------------*\
| =========                 |                                                 |
| \\      /  F ield         | OpenFOAM: The Open Source CFD Toolbox           |
|  \\    /   O peration     | Version:  4.1                                   |
|   \\  /    A nd           | Web:      www.OpenFOAM.org                      |
|    \\/     M anipulation  |                                                 |
\*---------------------------------------------------------------------------*/
FoamFile
{
    version     2.0;
    format      ascii;
    class       volVectorField;
    location    "1.4";
    object      U;
}
// * * * * * * * * * * * * * * * * * * * * * * * * * * * * * * * * * * * * * //

dimensions      [0 1 -1 0 0 0 0];

internalField   nonuniform List<vector> 
400
(
(0.0249969 -5.83451e-11 0)
(0.0249969 -3.57048e-11 0)
(0.0249969 1.11815e-12 0)
(0.0249969 -2.94738e-12 0)
(0.0249969 2.04422e-12 0)
(0.0249969 -1.71764e-12 0)
(0.0249969 1.37387e-12 0)
(0.0249969 -1.09324e-12 0)
(0.0249969 8.46772e-13 0)
(0.0249969 -6.28443e-13 0)
(0.0249969 4.29908e-13 0)
(0.0249969 -2.44151e-13 0)
(0.0249969 6.48175e-14 0)
(0.0249969 1.13217e-13 0)
(0.0249969 -3.01471e-13 0)
(0.0249969 4.66832e-13 0)
(0.0249969 -9.47727e-13 0)
(0.0249969 1.27323e-12 0)
(0.0249969 -2.00377e-11 0)
(0.0249969 -3.34031e-11 0)
(0.0749908 -2.46199e-10 0)
(0.0749908 -1.79823e-10 0)
(0.0749908 -1.22462e-12 0)
(0.0749908 -1.00429e-11 0)
(0.0749908 6.20927e-12 0)
(0.0749908 -5.34195e-12 0)
(0.0749908 4.24521e-12 0)
(0.0749908 -3.38252e-12 0)
(0.0749908 2.61863e-12 0)
(0.0749908 -1.94264e-12 0)
(0.0749908 1.32753e-12 0)
(0.0749908 -7.51683e-13 0)
(0.0749908 1.95306e-13 0)
(0.0749908 3.55526e-13 0)
(0.0749908 -9.52545e-13 0)
(0.0749908 1.40555e-12 0)
(0.0749908 -3.52082e-12 0)
(0.0749908 5.31686e-12 0)
(0.0749908 -1.09575e-10 0)
(0.0749908 -1.53109e-10 0)
(0.124985 -5.46414e-10 0)
(0.124985 -4.50644e-10 0)
(0.124985 -1.4672e-11 0)
(0.124985 -1.85129e-11 0)
(0.124985 9.56303e-12 0)
(0.124985 -8.58297e-12 0)
(0.124985 6.74961e-12 0)
(0.124985 -5.38989e-12 0)
(0.124985 4.17028e-12 0)
(0.124985 -3.09269e-12 0)
(0.124985 2.11123e-12 0)
(0.124985 -1.1915e-12 0)
(0.124985 3.01749e-13 0)
(0.124985 5.75868e-13 0)
(0.124985 -1.56306e-12 0)
(0.124985 2.12114e-12 0)
(0.124985 -7.19758e-12 0)
(0.124985 1.05427e-11 0)
(0.124985 -2.88941e-10 0)
(0.124985 -3.6247e-10 0)
(0.17498 -8.83953e-10 0)
(0.17498 -7.82954e-10 0)
(0.17498 -3.65883e-11 0)
(0.17498 -2.61595e-11 0)
(0.17498 1.10783e-11 0)
(0.17498 -1.04924e-11 0)
(0.17498 8.14333e-12 0)
(0.17498 -6.52059e-12 0)
(0.17498 5.0406e-12 0)
(0.17498 -3.73558e-12 0)
(0.17498 2.54558e-12 0)
(0.17498 -1.42914e-12 0)
(0.17498 3.47411e-13 0)
(0.17498 7.14387e-13 0)
(0.17498 -1.96315e-12 0)
(0.17498 2.4002e-12 0)
(0.17498 -1.11199e-11 0)
(0.17498 1.65988e-11 0)
(0.17498 -5.22501e-10 0)
(0.17498 -6.18416e-10 0)
(0.224975 -1.20488e-09 0)
(0.224975 -1.11951e-09 0)
(0.224975 -6.361e-11 0)
(0.224975 -3.24507e-11 0)
(0.224975 1.08994e-11 0)
(0.224975 -1.11131e-11 0)
(0.224975 8.47758e-12 0)
(0.224975 -6.81213e-12 0)
(0.224975 5.259e-12 0)
(0.224975 -3.89321e-12 0)
(0.224975 2.646e-12 0)
(0.224975 -1.47435e-12 0)
(0.224975 3.37065e-13 0)
(0.224975 7.71974e-13 0)
(0.224975 -2.15029e-12 0)
(0.224975 2.28293e-12 0)
(0.224975 -1.49396e-11 0)
(0.224975 2.25773e-11 0)
(0.224975 -7.75194e-10 0)
(0.224975 -8.84788e-10 0)
(0.27497 -1.47128e-09 0)
(0.27497 -1.41601e-09 0)
(0.27497 -9.17377e-11 0)
(0.27497 -3.70867e-11 0)
(0.27497 9.42282e-12 0)
(0.27497 -1.06805e-11 0)
(0.27497 7.95978e-12 0)
(0.27497 -6.42628e-12 0)
(0.27497 4.95119e-12 0)
(0.27497 -3.65894e-12 0)
(0.27497 2.47677e-12 0)
(0.27497 -1.36445e-12 0)
(0.27497 2.82389e-13 0)
(0.27497 7.6316e-13 0)
(0.27497 -2.15716e-12 0)
(0.27497 1.86892e-12 0)
(0.27497 -1.83573e-11 0)
(0.27497 2.81974e-11 0)
(0.27497 -1.01712e-09 0)
(0.27497 -1.13262e-09 0)
(0.324967 -1.65729e-09 0)
(0.324967 -1.64126e-09 0)
(0.324967 -1.17624e-10 0)
(0.324967 -3.98086e-11 0)
(0.324967 6.97676e-12 0)
(0.324967 -9.38773e-12 0)
(0.324967 6.76098e-12 0)
(0.324967 -5.49649e-12 0)
(0.324967 4.22129e-12 0)
(0.324967 -3.11051e-12 0)
(0.324967 2.09181e-12 0)
(0.324967 -1.1313e-12 0)
(0.324967 1.94169e-13 0)
(0.324967 6.98845e-13 0)
(0.324967 -2.00961e-12 0)
(0.324967 1.23634e-12 0)
(0.324967 -2.11127e-11 0)
(0.324967 3.30191e-11 0)
(0.324967 -1.22398e-09 0)
(0.324967 -1.33816e-09 0)
(0.374964 -1.74654e-09 0)
(0.374964 -1.7742e-09 0)
(0.374964 -1.38426e-10 0)
(0.374964 -4.04013e-11 0)
(0.374964 3.852e-12 0)
(0.374964 -7.40423e-12 0)
(0.374964 5.03202e-12 0)
(0.374964 -4.14056e-12 0)
(0.374964 3.16141e-12 0)
(0.374964 -2.31687e-12 0)
(0.374964 1.53918e-12 0)
(0.374964 -8.03514e-13 0)
(0.374964 8.23946e-14 0)
(0.374964 5.88264e-13 0)
(0.374964 -1.7303e-12 0)
(0.374964 4.53085e-13 0)
(0.374964 -2.29731e-11 0)
(0.374964 3.66032e-11 0)
(0.374964 -1.37651e-09 0)
(0.374964 -1.48265e-09 0)
(0.424962 -1.7334e-09 0)
(0.424962 -1.80509e-09 0)
(0.424962 -1.52057e-10 0)
(0.424962 -3.87932e-11 0)
(0.424962 3.32297e-13 0)
(0.424962 -4.90847e-12 0)
(0.424962 2.92835e-12 0)
(0.424962 -2.48049e-12 0)
(0.424962 1.86696e-12 0)
(0.424962 -1.34954e-12 0)
(0.424962 8.68763e-13 0)
(0.424962 -4.10745e-13 0)
(0.424962 -4.27375e-14 0)
(0.424962 4.41187e-13 0)
(0.424962 -1.34471e-12 0)
(0.424962 -4.15435e-13 0)
(0.424962 -2.37748e-11 0)
(0.424962 3.85472e-11 0)
(0.424962 -1.46174e-09 0)
(0.424962 -1.55378e-09 0)
(0.474961 -1.62267e-09 0)
(0.474961 -1.73521e-09 0)
(0.474961 -1.57358e-10 0)
(0.474961 -3.50863e-11 0)
(0.474961 -3.30918e-12 0)
(0.474961 -2.08937e-12 0)
(0.474961 6.10415e-13 0)
(0.474961 -6.42848e-13 0)
(0.474961 4.36917e-13 0)
(0.474961 -2.82682e-13 0)
(0.474961 1.3218e-13 0)
(0.474961 1.64856e-14 0)
(0.474961 -1.71082e-13 0)
(0.474961 2.68228e-13 0)
(0.474961 -8.81741e-13 0)
(0.474961 -1.30579e-12 0)
(0.474961 -2.3441e-11 0)
(0.474961 3.85608e-11 0)
(0.474961 -1.47368e-09 0)
(0.474961 -1.5465e-09 0)
(0.524961 -1.42862e-09 0)
(0.524961 -1.57616e-09 0)
(0.524961 -1.54175e-10 0)
(0.524961 -2.95631e-11 0)
(0.524961 -6.81892e-12 0)
(0.524961 8.57945e-13 0)
(0.524961 -1.76055e-12 0)
(0.524961 1.24445e-12 0)
(0.524961 -1.02891e-12 0)
(0.524961 8.08962e-13 0)
(0.524961 -6.18677e-13 0)
(0.524961 4.4774e-13 0)
(0.524961 -2.92997e-13 0)
(0.524961 8.07834e-14 0)
(0.524961 -3.73193e-13 0)
(0.524961 -2.1576e-12 0)
(0.524961 -2.19905e-11 0)
(0.524961 3.65259e-11 0)
(0.524961 -1.41348e-09 0)
(0.524961 -1.4632e-09 0)
(0.574962 -1.17317e-09 0)
(0.574962 -1.34797e-09 0)
(0.574962 -1.43323e-10 0)
(0.574962 -2.26766e-11 0)
(0.574962 -9.96717e-12 0)
(0.574962 3.73477e-12 0)
(0.574962 -4.02491e-12 0)
(0.574962 3.05411e-12 0)
(0.574962 -2.43138e-12 0)
(0.574962 1.8513e-12 0)
(0.574962 -1.33258e-12 0)
(0.574962 8.53305e-13 0)
(0.574962 -3.99681e-13 0)
(0.574962 -1.08975e-13 0)
(0.574962 1.46583e-13 0)
(0.574962 -2.9138e-12 0)
(0.574962 -1.95395e-11 0)
(0.574962 3.25456e-11 0)
(0.574962 -1.28887e-09 0)
(0.574962 -1.3132e-09 0)
(0.624964 -8.83748e-10 0)
(0.624964 -1.07691e-09 0)
(0.624964 -1.26419e-10 0)
(0.624964 -1.50255e-11 0)
(0.624964 -1.25485e-11 0)
(0.624964 6.34067e-12 0)
(0.624964 -6.02611e-12 0)
(0.624964 4.66064e-12 0)
(0.624964 -3.67305e-12 0)
(0.624964 2.7717e-12 0)
(0.624964 -1.95959e-12 0)
(0.624964 1.20464e-12 0)
(0.624964 -4.8339e-13 0)
(0.624964 -2.88098e-13 0)
(0.624964 6.41048e-13 0)
(0.624964 -3.52092e-12 0)
(0.624964 -1.62965e-11 0)
(0.624964 2.69647e-11 0)
(0.624964 -1.11331e-09 0)
(0.624964 -1.11186e-09 0)
(0.674967 -5.90415e-10 0)
(0.674967 -7.9238e-10 0)
(0.674967 -1.05631e-10 0)
(0.674967 -7.31139e-12 0)
(0.674967 -1.43812e-11 0)
(0.674967 8.47659e-12 0)
(0.674967 -7.61276e-12 0)
(0.674967 5.94213e-12 0)
(0.674967 -4.65961e-12 0)
(0.674967 3.50014e-12 0)
(0.674967 -2.45192e-12 0)
(0.674967 1.47488e-12 0)
(0.674967 -5.3764e-13 0)
(0.674967 -4.42978e-13 0)
(0.674967 1.07212e-12 0)
(0.674967 -3.92978e-12 0)
(0.674967 -1.25483e-11 0)
(0.674967 2.03578e-11 0)
(0.674967 -9.04514e-10 0)
(0.674967 -8.79091e-10 0)
(0.72497 -3.23096e-10 0)
(0.72497 -5.23944e-10 0)
(0.72497 -8.33317e-11 0)
(0.72497 -2.81863e-13 0)
(0.72497 -1.53069e-11 0)
(0.72497 9.95012e-12 0)
(0.72497 -8.64216e-12 0)
(0.72497 6.78322e-12 0)
(0.72497 -5.30218e-12 0)
(0.72497 3.97093e-12 0)
(0.72497 -2.7651e-12 0)
(0.72497 1.63951e-12 0)
(0.72497 -5.57375e-13 0)
(0.72497 -5.59685e-13 0)
(0.72497 1.40135e-12 0)
(0.72497 -4.09716e-12 0)
(0.72497 -8.63864e-12 0)
(0.72497 1.34699e-11 0)
(0.72497 -6.82911e-10 0)
(0.72497 -6.37625e-10 0)
(0.774975 -1.07812e-10 0)
(0.774975 -2.9725e-10 0)
(0.774975 -6.17317e-11 0)
(0.774975 5.32484e-12 0)
(0.774975 -1.51821e-11 0)
(0.774975 1.05751e-11 0)
(0.774975 -8.97886e-12 0)
(0.774975 7.07414e-12 0)
(0.774975 -5.51659e-12 0)
(0.774975 4.12219e-12 0)
(0.774975 -2.85759e-12 0)
(0.774975 1.67617e-12 0)
(0.774975 -5.38847e-13 0)
(0.774975 -6.23999e-13 0)
(0.774975 1.59021e-12 0)
(0.774975 -3.98623e-12 0)
(0.774975 -4.94402e-12 0)
(0.774975 7.12703e-12 0)
(0.774975 -4.6919e-10 0)
(0.774975 -4.10522e-10 0)
(0.82498 3.52543e-11 0)
(0.82498 -1.31248e-10 0)
(0.82498 -4.24084e-11 0)
(0.82498 8.79355e-12 0)
(0.82498 -1.38292e-11 0)
(0.82498 1.01414e-11 0)
(0.82498 -8.46867e-12 0)
(0.82498 6.69033e-12 0)
(0.82498 -5.20748e-12 0)
(0.82498 3.88393e-12 0)
(0.82498 -2.68265e-12 0)
(0.82498 1.55987e-12 0)
(0.82498 -4.78133e-13 0)
(0.82498 -6.19653e-13 0)
(0.82498 1.59535e-12 0)
(0.82498 -3.55802e-12 0)
(0.82498 -1.85309e-12 0)
(0.82498 2.13096e-12 0)
(0.82498 -2.82504e-10 0)
(0.82498 -2.19387e-10 0)
(0.874985 9.71347e-11 0)
(0.874985 -3.23971e-11 0)
(0.874985 -2.60704e-11 0)
(0.874985 9.40155e-12 0)
(0.874985 -1.10139e-11 0)
(0.874985 8.3938e-12 0)
(0.874985 -6.92234e-12 0)
(0.874985 5.47966e-12 0)
(0.874985 -4.25858e-12 0)
(0.874985 3.17119e-12 0)
(0.874985 -2.18375e-12 0)
(0.874985 1.26066e-12 0)
(0.874985 -3.70924e-13 0)
(0.874985 -5.26518e-13 0)
(0.874985 1.36439e-12 0)
(0.874985 -2.772e-12 0)
(0.874985 2.16894e-13 0)
(0.874985 -9.44601e-13 0)
(0.874985 -1.37549e-10 0)
(0.874985 -8.13374e-11 0)
(0.924991 8.36569e-11 0)
(0.924991 5.76333e-12 0)
(0.924991 -1.26638e-11 0)
(0.924991 6.88662e-12 0)
(0.924991 -6.71286e-12 0)
(0.924991 5.275e-12 0)
(0.924991 -4.30779e-12 0)
(0.924991 3.41515e-12 0)
(0.924991 -2.65069e-12 0)
(0.924991 1.97116e-12 0)
(0.924991 -1.35389e-12 0)
(0.924991 7.76811e-13 0)
(0.924991 -2.20464e-13 0)
(0.924991 -3.37939e-13 0)
(0.924991 8.79078e-13 0)
(0.924991 -1.6504e-12 0)
(0.924991 9.79141e-13 0)
(0.924991 -1.65537e-12 0)
(0.924991 -4.45915e-11 0)
(0.924991 -7.51232e-12 0)
(0.974997 3.11524e-11 0)
(0.974997 6.57852e-12 0)
(0.974997 -3.45634e-12 0)
(0.974997 2.39579e-12 0)
(0.974997 -2.13409e-12 0)
(0.974997 1.70539e-12 0)
(0.974997 -1.38451e-12 0)
(0.974997 1.09876e-12 0)
(0.974997 -8.52184e-13 0)
(0.974997 6.33264e-13 0)
(0.974997 -4.34361e-13 0)
(0.974997 2.48405e-13 0)
(0.974997 -6.90727e-14 0)
(0.974997 -1.10311e-13 0)
(0.974997 2.88269e-13 0)
(0.974997 -5.15915e-13 0)
(0.974997 4.73377e-13 0)
(0.974997 -8.466e-13 0)
(0.974997 -5.89955e-12 0)
(0.974997 6.58314e-12 0)
)
;

boundaryField
{
    top
    {
        type            fixedValue;
        value           uniform (1 0 0);
    }
    bottom
    {
        type            fixedValue;
        value           uniform (0 0 0);
    }
    inlet
    {
        type            zeroGradient;
    }
    outlet
    {
        type            zeroGradient;
    }
    frontAndBack
    {
        type            empty;
    }
}


// ************************************************************************* //
