/*--------------------------------*- C++ -*----------------------------------*\
| =========                 |                                                 |
| \\      /  F ield         | OpenFOAM: The Open Source CFD Toolbox           |
|  \\    /   O peration     | Version:  4.1                                   |
|   \\  /    A nd           | Web:      www.OpenFOAM.org                      |
|    \\/     M anipulation  |                                                 |
\*---------------------------------------------------------------------------*/
FoamFile
{
    version     2.0;
    format      ascii;
    class       volScalarField;
    location    "4.3";
    object      p;
}
// * * * * * * * * * * * * * * * * * * * * * * * * * * * * * * * * * * * * * //

dimensions      [0 2 -2 0 0 0 0];

internalField   nonuniform List<scalar> 
400
(
2.84778e-12
3.18315e-12
2.72334e-12
2.91111e-12
2.56788e-12
2.66791e-12
2.40349e-12
2.43472e-12
2.23785e-12
2.21012e-12
2.0632e-12
1.99239e-12
1.89619e-12
1.78337e-12
1.72027e-12
1.55986e-12
1.53228e-12
1.33681e-12
1.36378e-12
1.28258e-12
2.83752e-12
3.17262e-12
2.72254e-12
2.91092e-12
2.5679e-12
2.66785e-12
2.40354e-12
2.43471e-12
2.23785e-12
2.21011e-12
2.06323e-12
1.99241e-12
1.89618e-12
1.78336e-12
1.72024e-12
1.55987e-12
1.53217e-12
1.33689e-12
1.35675e-12
1.27514e-12
2.83166e-12
3.16509e-12
2.72158e-12
2.91093e-12
2.56777e-12
2.66791e-12
2.40349e-12
2.43476e-12
2.23779e-12
2.21013e-12
2.06323e-12
1.99243e-12
1.89618e-12
1.78334e-12
1.72024e-12
1.55985e-12
1.53211e-12
1.33681e-12
1.35119e-12
1.27e-12
2.82981e-12
3.16156e-12
2.72067e-12
2.911e-12
2.56763e-12
2.66798e-12
2.40342e-12
2.43483e-12
2.23773e-12
2.21014e-12
2.06323e-12
1.99245e-12
1.89619e-12
1.78332e-12
1.72026e-12
1.55983e-12
1.53208e-12
1.33662e-12
1.34798e-12
1.26737e-12
2.83037e-12
3.16081e-12
2.71984e-12
2.91106e-12
2.56752e-12
2.66804e-12
2.40338e-12
2.43488e-12
2.23769e-12
2.21014e-12
2.06323e-12
1.99246e-12
1.8962e-12
1.78333e-12
1.72027e-12
1.55981e-12
1.53207e-12
1.33636e-12
1.34664e-12
1.26646e-12
2.83251e-12
3.1619e-12
2.71901e-12
2.91111e-12
2.56745e-12
2.66808e-12
2.40332e-12
2.43492e-12
2.23766e-12
2.21013e-12
2.06323e-12
1.99246e-12
1.89622e-12
1.78334e-12
1.72029e-12
1.55981e-12
1.53207e-12
1.33608e-12
1.34677e-12
1.26689e-12
2.83578e-12
3.1643e-12
2.71818e-12
2.91115e-12
2.56739e-12
2.66814e-12
2.40326e-12
2.43494e-12
2.23763e-12
2.21012e-12
2.06325e-12
1.99244e-12
1.89623e-12
1.78336e-12
1.72032e-12
1.55982e-12
1.53206e-12
1.33579e-12
1.34813e-12
1.26843e-12
2.83962e-12
3.16743e-12
2.71733e-12
2.91116e-12
2.56736e-12
2.66816e-12
2.40322e-12
2.43494e-12
2.23761e-12
2.21012e-12
2.06329e-12
1.99241e-12
1.89625e-12
1.78341e-12
1.72038e-12
1.55981e-12
1.53205e-12
1.33554e-12
1.35045e-12
1.27076e-12
2.84351e-12
3.17071e-12
2.71648e-12
2.91113e-12
2.56733e-12
2.66815e-12
2.40319e-12
2.43493e-12
2.23758e-12
2.21011e-12
2.06333e-12
1.99238e-12
1.89625e-12
1.78346e-12
1.72043e-12
1.55979e-12
1.53203e-12
1.33533e-12
1.35338e-12
1.27353e-12
2.84692e-12
3.17364e-12
2.71564e-12
2.91109e-12
2.56733e-12
2.66814e-12
2.40315e-12
2.43492e-12
2.2376e-12
2.21008e-12
2.06332e-12
1.99238e-12
1.89626e-12
1.78346e-12
1.7205e-12
1.55981e-12
1.53199e-12
1.33519e-12
1.35652e-12
1.27638e-12
2.84946e-12
3.17577e-12
2.71476e-12
2.91105e-12
2.56735e-12
2.6681e-12
2.40317e-12
2.43488e-12
2.23759e-12
2.21009e-12
2.06334e-12
1.99237e-12
1.89624e-12
1.78347e-12
1.72058e-12
1.55982e-12
1.53195e-12
1.33511e-12
1.35953e-12
1.27893e-12
2.85078e-12
3.17674e-12
2.7139e-12
2.91098e-12
2.56734e-12
2.66805e-12
2.4032e-12
2.43483e-12
2.23761e-12
2.2101e-12
2.06335e-12
1.9924e-12
1.8962e-12
1.7835e-12
1.72064e-12
1.55981e-12
1.53192e-12
1.33508e-12
1.36199e-12
1.28086e-12
2.85069e-12
3.17641e-12
2.71308e-12
2.91088e-12
2.56737e-12
2.66801e-12
2.4032e-12
2.43479e-12
2.23765e-12
2.2101e-12
2.06337e-12
1.99243e-12
1.89617e-12
1.78351e-12
1.72067e-12
1.55984e-12
1.53186e-12
1.33511e-12
1.36368e-12
1.28186e-12
2.84917e-12
3.17469e-12
2.7123e-12
2.91076e-12
2.56743e-12
2.66792e-12
2.40326e-12
2.43471e-12
2.23769e-12
2.21016e-12
2.06333e-12
1.99243e-12
1.89619e-12
1.78352e-12
1.72067e-12
1.55991e-12
1.53175e-12
1.33517e-12
1.36438e-12
1.28182e-12
2.84625e-12
3.1717e-12
2.71162e-12
2.91067e-12
2.56747e-12
2.6678e-12
2.40331e-12
2.43461e-12
2.23776e-12
2.21018e-12
2.06334e-12
1.99243e-12
1.89618e-12
1.78357e-12
1.72066e-12
1.55998e-12
1.53163e-12
1.33526e-12
1.36396e-12
1.28057e-12
2.84221e-12
3.16776e-12
2.71101e-12
2.91052e-12
2.56752e-12
2.6677e-12
2.40335e-12
2.43448e-12
2.23784e-12
2.21022e-12
2.06337e-12
1.99242e-12
1.89614e-12
1.78362e-12
1.72064e-12
1.56003e-12
1.53147e-12
1.33539e-12
1.36247e-12
1.27815e-12
2.83739e-12
3.1633e-12
2.71056e-12
2.91029e-12
2.56763e-12
2.66757e-12
2.40344e-12
2.43439e-12
2.23787e-12
2.21023e-12
2.06342e-12
1.99242e-12
1.89611e-12
1.78365e-12
1.72058e-12
1.56007e-12
1.53132e-12
1.33554e-12
1.36e-12
1.27473e-12
2.83253e-12
3.15915e-12
2.71023e-12
2.91006e-12
2.56778e-12
2.66738e-12
2.40358e-12
2.43435e-12
2.23789e-12
2.21022e-12
2.06351e-12
1.99237e-12
1.89611e-12
1.78367e-12
1.72046e-12
1.56015e-12
1.5312e-12
1.33569e-12
1.35683e-12
1.27056e-12
2.82877e-12
3.15604e-12
2.71003e-12
2.90985e-12
2.5679e-12
2.66721e-12
2.40363e-12
2.43437e-12
2.23792e-12
2.21018e-12
2.06355e-12
1.99238e-12
1.89606e-12
1.78367e-12
1.72041e-12
1.56025e-12
1.53103e-12
1.33583e-12
1.35319e-12
1.26609e-12
2.82807e-12
3.15462e-12
2.70971e-12
2.90987e-12
2.56783e-12
2.66716e-12
2.40365e-12
2.43441e-12
2.23787e-12
2.21017e-12
2.06355e-12
1.99241e-12
1.89602e-12
1.78361e-12
1.72044e-12
1.56025e-12
1.53092e-12
1.33591e-12
1.3497e-12
1.26263e-12
)
;

boundaryField
{
    top
    {
        type            zeroGradient;
    }
    bottom
    {
        type            zeroGradient;
    }
    inlet
    {
        type            fixedValue;
        value           uniform 0;
    }
    outlet
    {
        type            fixedValue;
        value           uniform 0;
    }
    frontAndBack
    {
        type            empty;
    }
}


// ************************************************************************* //
