/*--------------------------------*- C++ -*----------------------------------*\
| =========                 |                                                 |
| \\      /  F ield         | OpenFOAM: The Open Source CFD Toolbox           |
|  \\    /   O peration     | Version:  4.1                                   |
|   \\  /    A nd           | Web:      www.OpenFOAM.org                      |
|    \\/     M anipulation  |                                                 |
\*---------------------------------------------------------------------------*/
FoamFile
{
    version     2.0;
    format      ascii;
    class       surfaceScalarField;
    location    "4.3";
    object      phi;
}
// * * * * * * * * * * * * * * * * * * * * * * * * * * * * * * * * * * * * * //

dimensions      [0 3 -1 0 0 0 0];

internalField   nonuniform List<scalar> 
760
(
1.25e-06
-4.42188e-18
1.25e-06
-3.03819e-18
1.25e-06
3.29555e-20
1.25e-06
-2.11182e-19
1.25e-06
1.4368e-19
1.25e-06
-1.2722e-19
1.25e-06
1.0353e-19
1.25e-06
-7.43575e-20
1.25e-06
5.20626e-20
1.25e-06
-4.2087e-20
1.25e-06
3.13812e-20
1.25e-06
-3.12518e-21
1.25e-06
-8.25784e-21
1.25e-06
1.03216e-20
1.25e-06
-3.89435e-20
1.25e-06
4.58941e-20
1.25e-06
-7.97809e-20
1.25e-06
1.11728e-19
1.25e-06
-1.8218e-18
-2.68765e-18
3.75e-06
-1.33632e-17
3.75e-06
-1.0631e-17
3.75e-06
-2.3622e-19
3.75e-06
-5.08711e-19
3.75e-06
3.01602e-19
3.75e-06
-2.84084e-19
3.75e-06
2.29601e-19
3.75e-06
-1.56852e-19
3.75e-06
1.04114e-19
3.75e-06
-9.31278e-20
3.75e-06
7.7997e-20
3.75e-06
1.95476e-21
3.75e-06
-2.21899e-20
3.75e-06
1.21195e-20
3.75e-06
-9.42813e-20
3.75e-06
1.00936e-19
3.75e-06
-2.09702e-19
3.75e-06
2.93345e-19
3.75e-06
-6.70961e-18
-8.67708e-18
6.25e-06
-2.41756e-17
6.25e-06
-2.09629e-17
6.25e-06
-8.46568e-19
6.25e-06
-7.71758e-19
6.25e-06
3.86023e-19
6.25e-06
-3.94805e-19
6.25e-06
3.18748e-19
6.25e-06
-2.04839e-19
6.25e-06
1.25831e-19
6.25e-06
-1.29384e-19
6.25e-06
1.21258e-19
6.25e-06
1.70331e-20
6.25e-06
-3.66193e-20
6.25e-06
-9.23906e-22
6.25e-06
-1.43707e-19
6.25e-06
1.37296e-19
6.25e-06
-3.47718e-19
6.25e-06
4.923e-19
6.25e-06
-1.3778e-17
-1.65881e-17
8.75e-06
-3.52248e-17
8.75e-06
-3.22491e-17
8.75e-06
-1.68659e-18
8.75e-06
-9.86147e-19
8.75e-06
4.05463e-19
8.75e-06
-4.67355e-19
8.75e-06
3.75326e-19
8.75e-06
-2.18904e-19
8.75e-06
1.16979e-19
8.75e-06
-1.512e-19
8.75e-06
1.59031e-19
8.75e-06
3.9803e-20
8.75e-06
-4.71271e-20
8.75e-06
-2.79201e-20
8.75e-06
-1.82783e-19
8.75e-06
1.6023e-19
8.75e-06
-4.86038e-19
8.75e-06
6.9272e-19
8.75e-06
-2.19916e-17
-2.53813e-17
1.125e-05
-4.5105e-17
1.125e-05
-4.29224e-17
1.125e-05
-2.6344e-18
1.125e-05
-1.14449e-18
1.125e-05
3.72446e-19
1.125e-05
-5.00328e-19
1.125e-05
4.0765e-19
1.125e-05
-2.08038e-19
1.125e-05
8.72594e-20
1.125e-05
-1.66754e-19
1.125e-05
1.91918e-19
1.125e-05
6.79071e-20
1.125e-05
-5.60353e-20
1.125e-05
-6.20035e-20
1.125e-05
-2.13978e-19
1.125e-05
1.68582e-19
1.125e-05
-6.12971e-19
1.125e-05
8.80458e-19
1.125e-05
-3.03373e-17
-3.40573e-17
1.375e-05
-5.27477e-17
1.375e-05
-5.17405e-17
1.375e-05
-3.56924e-18
1.375e-05
-1.23527e-18
1.375e-05
2.97824e-19
1.375e-05
-5.00045e-19
1.375e-05
4.07267e-19
1.375e-05
-1.67237e-19
1.375e-05
3.73192e-20
1.375e-05
-1.74346e-19
1.375e-05
2.14068e-19
1.375e-05
9.73511e-20
1.375e-05
-5.24613e-20
1.375e-05
-9.81908e-20
1.375e-05
-2.41084e-19
1.375e-05
1.6347e-19
1.375e-05
-7.10645e-19
1.375e-05
1.04391e-18
1.375e-05
-3.79238e-17
-4.17256e-17
1.625e-05
-5.73957e-17
1.625e-05
-5.77959e-17
1.625e-05
-4.38608e-18
1.625e-05
-1.25148e-18
1.625e-05
1.92134e-19
1.625e-05
-4.57423e-19
1.625e-05
3.82337e-19
1.625e-05
-1.14199e-19
1.625e-05
-2.53485e-20
1.625e-05
-1.70041e-19
1.625e-05
2.30215e-19
1.625e-05
1.23055e-19
1.625e-05
-4.79231e-20
1.625e-05
-1.35405e-19
1.625e-05
-2.56385e-19
1.625e-05
1.49863e-19
1.625e-05
-7.7979e-19
1.625e-05
1.16793e-18
1.625e-05
-4.40011e-17
-4.76491e-17
1.875e-05
-5.8685e-17
1.875e-05
-6.05577e-17
1.875e-05
-5.00117e-18
1.875e-05
-1.19747e-18
1.875e-05
6.62747e-20
1.875e-05
-3.86234e-19
1.875e-05
3.3364e-19
1.875e-05
-5.07978e-20
1.875e-05
-9.68236e-20
1.875e-05
-1.53679e-19
1.875e-05
2.41501e-19
1.875e-05
1.36403e-19
1.875e-05
-3.8056e-20
1.875e-05
-1.63529e-19
1.875e-05
-2.56885e-19
1.875e-05
1.22656e-19
1.875e-05
-8.07825e-19
1.875e-05
1.2469e-18
1.875e-05
-4.80248e-17
-5.13054e-17
2.125e-05
-5.65972e-17
2.125e-05
-5.98963e-17
2.125e-05
-5.34897e-18
2.125e-05
-1.07426e-18
2.125e-05
-7.4663e-20
2.125e-05
-2.93362e-19
2.125e-05
2.72449e-19
2.125e-05
1.29791e-20
2.125e-05
-1.77699e-19
2.125e-05
-1.25585e-19
2.125e-05
2.56559e-19
2.125e-05
1.38434e-19
2.125e-05
-3.1874e-20
2.125e-05
-1.74854e-19
2.125e-05
-2.51669e-19
2.125e-05
7.94952e-20
2.125e-05
-7.97709e-19
2.125e-05
1.26913e-18
2.125e-05
-4.96634e-17
-5.23978e-17
2.375e-05
-5.14647e-17
2.375e-05
-5.60229e-17
2.375e-05
-5.39492e-18
2.375e-05
-8.94344e-19
2.375e-05
-2.1545e-19
2.375e-05
-1.75943e-19
2.375e-05
1.85601e-19
2.375e-05
7.84597e-20
2.375e-05
-2.39663e-19
2.375e-05
-1.07455e-19
2.375e-05
2.45264e-19
2.375e-05
1.40104e-19
2.375e-05
-1.76243e-20
2.375e-05
-1.92239e-19
2.375e-05
-2.34158e-19
2.375e-05
4.23211e-20
2.375e-05
-7.54213e-19
2.375e-05
1.22871e-18
2.375e-05
-4.88464e-17
-5.08787e-17
2.625e-05
-4.38895e-17
2.625e-05
-4.94655e-17
2.625e-05
-5.16831e-18
2.625e-05
-6.63753e-19
2.625e-05
-3.43185e-19
2.625e-05
-4.9811e-20
2.625e-05
1.0024e-19
2.625e-05
1.37388e-19
2.625e-05
-2.96918e-19
2.625e-05
-7.9104e-20
2.625e-05
2.27178e-19
2.625e-05
1.28107e-19
2.625e-05
-5.26467e-21
2.625e-05
-2.04868e-19
2.625e-05
-1.93921e-19
2.625e-05
4.05548e-21
2.625e-05
-6.79953e-19
2.625e-05
1.12649e-18
2.625e-05
-4.57027e-17
-4.69439e-17
2.875e-05
-3.47088e-17
2.875e-05
-4.10219e-17
2.875e-05
-4.70309e-18
2.875e-05
-4.08773e-19
2.875e-05
-4.64618e-19
2.875e-05
7.46682e-20
2.875e-05
2.32052e-20
2.875e-05
1.86587e-19
2.875e-05
-3.41702e-19
2.875e-05
-5.14195e-20
2.875e-05
1.97972e-19
2.875e-05
1.20999e-19
2.875e-05
-5.45887e-21
2.875e-05
-2.0782e-19
2.875e-05
-1.43033e-19
2.875e-05
-4.10999e-20
2.875e-05
-5.69135e-19
2.875e-05
9.64628e-19
2.875e-05
-4.06228e-17
-4.10068e-17
3.125e-05
-2.48929e-17
3.125e-05
-3.16143e-17
3.125e-05
-4.05966e-18
3.125e-05
-1.48954e-19
3.125e-05
-5.57123e-19
3.125e-05
1.99083e-19
3.125e-05
-6.86712e-20
3.125e-05
2.39086e-19
3.125e-05
-3.63931e-19
3.125e-05
-4.53798e-20
3.125e-05
1.70786e-19
3.125e-05
1.1703e-19
3.125e-05
-1.0123e-20
3.125e-05
-2.08027e-19
3.125e-05
-8.23753e-20
3.125e-05
-8.21118e-20
3.125e-05
-4.37779e-19
3.125e-05
7.69156e-19
3.125e-05
-3.41242e-17
-3.36859e-17
3.375e-05
-1.54307e-17
3.375e-05
-2.22494e-17
3.375e-05
-3.32928e-18
3.375e-05
7.87754e-20
3.375e-05
-6.03528e-19
3.375e-05
2.96952e-19
3.375e-05
-1.41137e-19
3.375e-05
2.69461e-19
3.375e-05
-3.64954e-19
3.375e-05
-1.7765e-20
3.375e-05
1.19409e-19
3.375e-05
1.08707e-19
3.375e-05
-4.42338e-21
3.375e-05
-2.07505e-19
3.375e-05
-2.81239e-20
3.375e-05
-1.04208e-19
3.375e-05
-3.07341e-19
3.375e-05
5.47825e-19
3.375e-05
-2.68408e-17
-2.5669e-17
3.625e-05
-7.29673e-18
3.625e-05
-1.38632e-17
3.625e-05
-2.56449e-18
3.625e-05
2.70632e-19
3.625e-05
-6.13377e-19
3.625e-05
3.55983e-19
3.625e-05
-2.01295e-19
3.625e-05
2.85562e-19
3.625e-05
-3.41944e-19
3.625e-05
-2.46505e-21
3.625e-05
7.03584e-20
3.625e-05
9.58827e-20
3.625e-05
6.22752e-21
3.625e-05
-1.88493e-19
3.625e-05
2.11388e-20
3.625e-05
-1.16268e-19
3.625e-05
-1.75465e-19
3.625e-05
3.24564e-19
3.625e-05
-1.94868e-17
-1.77559e-17
3.875e-05
-1.2299e-18
3.875e-05
-7.19303e-18
3.875e-05
-1.86201e-18
3.875e-05
3.96032e-19
3.875e-05
-5.82379e-19
3.875e-05
3.86155e-19
3.875e-05
-2.41653e-19
3.875e-05
2.643e-19
3.875e-05
-2.90613e-19
3.875e-05
2.69119e-20
3.875e-05
3.1233e-20
3.875e-05
7.64613e-20
3.875e-05
9.58013e-22
3.875e-05
-1.54733e-19
3.875e-05
6.3751e-20
3.875e-05
-1.20429e-19
3.875e-05
-7.12754e-20
3.875e-05
1.32966e-19
3.875e-05
-1.27085e-17
-1.06846e-17
4.125e-05
2.25305e-18
4.125e-05
-2.71075e-18
4.125e-05
-1.23704e-18
4.125e-05
4.17905e-19
4.125e-05
-4.98432e-19
4.125e-05
3.73296e-19
4.125e-05
-2.50145e-19
4.125e-05
2.15644e-19
4.125e-05
-2.27628e-19
4.125e-05
4.73397e-20
4.125e-05
-6.05003e-21
4.125e-05
6.34925e-20
4.125e-05
-2.98848e-21
4.125e-05
-1.16407e-19
4.125e-05
9.22602e-20
4.125e-05
-1.19557e-19
4.125e-05
2.81829e-22
4.125e-05
-9.90681e-22
4.125e-05
-7.09673e-18
-5.10787e-18
4.375e-05
3.13566e-18
4.375e-05
-3.92201e-19
4.375e-05
-7.28232e-19
4.375e-05
3.45654e-19
4.375e-05
-3.58156e-19
4.375e-05
2.91097e-19
4.375e-05
-1.85226e-19
4.375e-05
1.44678e-19
4.375e-05
-1.62768e-19
4.375e-05
5.6988e-20
4.375e-05
-7.36909e-21
4.375e-05
3.01762e-20
4.375e-05
5.443e-21
4.375e-05
-6.77941e-20
4.375e-05
7.07147e-20
4.375e-05
-1.04536e-19
4.375e-05
5.07715e-20
4.375e-05
-6.31974e-20
4.375e-05
-3.04479e-18
-1.46639e-18
4.625e-05
1.76226e-18
4.625e-05
1.808e-19
4.625e-05
-2.81676e-19
4.625e-05
1.63921e-19
4.625e-05
-1.56052e-19
4.625e-05
1.44145e-19
4.625e-05
-9.94001e-20
4.625e-05
6.71736e-20
4.625e-05
-7.08744e-20
4.625e-05
3.11893e-20
4.625e-05
-4.01099e-21
4.625e-05
1.20777e-20
4.625e-05
2.83488e-21
4.625e-05
-2.24519e-20
4.625e-05
2.90774e-20
4.625e-05
-4.38856e-20
4.625e-05
3.89189e-20
4.625e-05
-5.07327e-20
4.625e-05
-7.0941e-19
4.00205e-20
4.875e-05
4.875e-05
4.875e-05
4.875e-05
4.875e-05
4.875e-05
4.875e-05
4.875e-05
4.875e-05
4.875e-05
4.875e-05
4.875e-05
4.875e-05
4.875e-05
4.875e-05
4.875e-05
4.875e-05
4.875e-05
4.875e-05
)
;

boundaryField
{
    top
    {
        type            calculated;
        value           uniform 0;
    }
    bottom
    {
        type            calculated;
        value           uniform 0;
    }
    inlet
    {
        type            calculated;
        value           nonuniform List<scalar> 
20
(
-1.25e-06
-3.75e-06
-6.25e-06
-8.75e-06
-1.125e-05
-1.375e-05
-1.625e-05
-1.875e-05
-2.125e-05
-2.375e-05
-2.625e-05
-2.875e-05
-3.125e-05
-3.375e-05
-3.625e-05
-3.875e-05
-4.125e-05
-4.375e-05
-4.625e-05
-4.875e-05
)
;
    }
    outlet
    {
        type            calculated;
        value           nonuniform List<scalar> 
20
(
1.25e-06
3.75e-06
6.25e-06
8.75e-06
1.125e-05
1.375e-05
1.625e-05
1.875e-05
2.125e-05
2.375e-05
2.625e-05
2.875e-05
3.125e-05
3.375e-05
3.625e-05
3.875e-05
4.125e-05
4.375e-05
4.625e-05
4.875e-05
)
;
    }
    frontAndBack
    {
        type            empty;
        value           nonuniform 0();
    }
}


// ************************************************************************* //
