/*--------------------------------*- C++ -*----------------------------------*\
| =========                 |                                                 |
| \\      /  F ield         | OpenFOAM: The Open Source CFD Toolbox           |
|  \\    /   O peration     | Version:  4.1                                   |
|   \\  /    A nd           | Web:      www.OpenFOAM.org                      |
|    \\/     M anipulation  |                                                 |
\*---------------------------------------------------------------------------*/
FoamFile
{
    version     2.0;
    format      ascii;
    class       volVectorField;
    location    "4.3";
    object      U;
}
// * * * * * * * * * * * * * * * * * * * * * * * * * * * * * * * * * * * * * //

dimensions      [0 1 -1 0 0 0 0];

internalField   nonuniform List<vector> 
400
(
(0.025 -1.97077e-15 0)
(0.025 -1.22862e-15 0)
(0.025 4.33033e-17 0)
(0.025 -1.0599e-16 0)
(0.025 7.5567e-17 0)
(0.025 -6.54951e-17 0)
(0.025 5.34867e-17 0)
(0.025 -3.91155e-17 0)
(0.025 2.79858e-17 0)
(0.025 -2.17942e-17 0)
(0.025 1.53664e-17 0)
(0.025 -2.28377e-18 0)
(0.025 -3.74465e-18 0)
(0.025 6.18944e-18 0)
(0.025 -1.93458e-17 0)
(0.025 2.35823e-17 0)
(0.025 -3.84891e-17 0)
(0.025 4.9608e-17 0)
(0.025 -6.92406e-16 0)
(0.025 -1.13044e-15 0)
(0.075 -8.29088e-15 0)
(0.075 -6.11828e-15 0)
(0.075 -2.61509e-17 0)
(0.075 -3.5599e-16 0)
(0.075 2.30948e-16 0)
(0.075 -2.08786e-16 0)
(0.075 1.69111e-16 0)
(0.075 -1.1919e-16 0)
(0.075 8.19388e-17 0)
(0.075 -6.85114e-17 0)
(0.075 5.37995e-17 0)
(0.075 -2.74546e-18 0)
(0.075 -1.50379e-17 0)
(0.075 1.41917e-17 0)
(0.075 -6.62855e-17 0)
(0.075 7.48021e-17 0)
(0.075 -1.38686e-16 0)
(0.075 1.98324e-16 0)
(0.075 -3.73475e-15 0)
(0.075 -5.16448e-15 0)
(0.125 -1.83884e-14 0)
(0.125 -1.52702e-14 0)
(0.125 -4.74291e-16 0)
(0.125 -6.44112e-16 0)
(0.125 3.55406e-16 0)
(0.125 -3.45452e-16 0)
(0.125 2.79247e-16 0)
(0.125 -1.86869e-16 0)
(0.125 1.20601e-16 0)
(0.125 -1.12987e-16 0)
(0.125 9.94641e-17 0)
(0.125 7.54418e-18 0)
(0.125 -2.94345e-17 0)
(0.125 8.47996e-18 0)
(0.125 -1.19475e-16 0)
(0.125 1.2143e-16 0)
(0.125 -2.75796e-16 0)
(0.125 3.8464e-16 0)
(0.125 -9.79778e-15 0)
(0.125 -1.22183e-14 0)
(0.175 -2.97615e-14 0)
(0.175 -2.65031e-14 0)
(0.175 -1.21988e-15 0)
(0.175 -8.91109e-16 0)
(0.175 4.10587e-16 0)
(0.175 -4.4132e-16 0)
(0.175 3.54988e-16 0)
(0.175 -2.19412e-16 0)
(0.175 1.27877e-16 0)
(0.175 -1.43058e-16 0)
(0.175 1.41553e-16 0)
(0.175 2.66957e-17 0)
(0.175 -4.27782e-17 0)
(0.175 -1.17959e-17 0)
(0.175 -1.65257e-16 0)
(0.175 1.52464e-16 0)
(0.175 -4.18312e-16 0)
(0.175 5.92218e-16 0)
(0.175 -1.76959e-14 0)
(0.175 -2.08581e-14 0)
(0.225 -4.05829e-14 0)
(0.225 -3.7878e-14 0)
(0.225 -2.14695e-15 0)
(0.225 -1.08129e-15 0)
(0.225 4.01611e-16 0)
(0.225 -4.93774e-16 0)
(0.225 3.9906e-16 0)
(0.225 -2.20354e-16 0)
(0.225 1.0793e-16 0)
(0.225 -1.61684e-16 0)
(0.225 1.77226e-16 0)
(0.225 5.36643e-17 0)
(0.225 -5.30351e-17 0)
(0.225 -4.36772e-17 0)
(0.225 -2.00821e-16 0)
(0.225 1.67928e-16 0)
(0.225 -5.54032e-16 0)
(0.225 7.89527e-16 0)
(0.225 -2.62366e-14 0)
(0.225 -2.98557e-14 0)
(0.275 -4.9572e-14 0)
(0.275 -4.78987e-14 0)
(0.275 -3.11841e-15 0)
(0.275 -1.20702e-15 0)
(0.275 3.4408e-16 0)
(0.275 -5.08693e-16 0)
(0.275 4.1399e-16 0)
(0.275 -1.92705e-16 0)
(0.275 6.64409e-17 0)
(0.275 -1.72994e-16 0)
(0.275 2.04594e-16 0)
(0.275 8.2926e-17 0)
(0.275 -5.54904e-17 0)
(0.275 -7.9826e-17 0)
(0.275 -2.30024e-16 0)
(0.275 1.69452e-16 0)
(0.275 -6.68902e-16 0)
(0.275 9.68204e-16 0)
(0.275 -3.441e-14 0)
(0.275 -3.82308e-14 0)
(0.325 -5.58534e-14 0)
(0.325 -5.5512e-14 0)
(0.325 -4.01976e-15 0)
(0.325 -1.2613e-15 0)
(0.325 2.51885e-16 0)
(0.325 -4.87046e-16 0)
(0.325 4.00465e-16 0)
(0.325 -1.43609e-16 0)
(0.325 9.04789e-18 0)
(0.325 -1.75133e-16 0)
(0.325 2.23592e-16 0)
(0.325 1.11488e-16 0)
(0.325 -5.08795e-17 0)
(0.325 -1.18216e-16 0)
(0.325 -2.50885e-16 0)
(0.325 1.60071e-16 0)
(0.325 -7.54101e-16 0)
(0.325 1.11492e-15 0)
(0.325 -4.14011e-14 0)
(0.325 -4.51813e-14 0)
(0.375 -5.88708e-14 0)
(0.375 -6.0005e-14 0)
(0.375 -4.75459e-15 0)
(0.375 -1.24274e-15 0)
(0.375 1.33347e-16 0)
(0.375 -4.28613e-16 0)
(0.375 3.63131e-16 0)
(0.375 -8.4087e-17 0)
(0.375 -6.03154e-17 0)
(0.375 -1.63917e-16 0)
(0.375 2.37667e-16 0)
(0.375 1.31953e-16 0)
(0.375 -4.38401e-17 0)
(0.375 -1.507e-16 0)
(0.375 -2.59465e-16 0)
(0.375 1.38382e-16 0)
(0.375 -8.03086e-16 0)
(0.375 1.21952e-15 0)
(0.375 -4.65585e-14 0)
(0.375 -5.00729e-14 0)
(0.425 -5.84339e-14 0)
(0.425 -6.10483e-14 0)
(0.425 -5.24742e-15 0)
(0.425 -1.15225e-15 0)
(0.425 -2.54248e-18 0)
(0.425 -3.45723e-16 0)
(0.425 3.06664e-16 0)
(0.425 -1.88149e-17 0)
(0.425 -1.37947e-16 0)
(0.425 -1.41464e-16 0)
(0.425 2.51471e-16 0)
(0.425 1.38969e-16 0)
(0.425 -3.47935e-17 0)
(0.425 -1.70531e-16 0)
(0.425 -2.57043e-16 0)
(0.425 1.02619e-16 0)
(0.425 -8.12615e-16 0)
(0.425 1.27307e-15 0)
(0.425 -4.94407e-14 0)
(0.425 -5.24911e-14 0)
(0.475 -5.47098e-14 0)
(0.475 -5.86888e-14 0)
(0.475 -5.44596e-15 0)
(0.475 -9.98321e-16 0)
(0.475 -1.45575e-16 0)
(0.475 -2.38935e-16 0)
(0.475 2.31439e-16 0)
(0.475 4.63182e-17 0)
(0.475 -2.10525e-16 0)
(0.475 -1.17294e-16 0)
(0.475 2.54088e-16 0)
(0.475 1.41004e-16 0)
(0.475 -2.45357e-17 0)
(0.475 -1.85459e-16 0)
(0.475 -2.46482e-16 0)
(0.475 6.1906e-17 0)
(0.475 -7.84621e-16 0)
(0.475 1.26468e-15 0)
(0.475 -4.98427e-14 0)
(0.475 -5.22591e-14 0)
(0.525 -4.81777e-14 0)
(0.525 -5.33123e-14 0)
(0.525 -5.35009e-15 0)
(0.525 -7.87845e-16 0)
(0.525 -2.82455e-16 0)
(0.525 -1.14373e-16 0)
(0.525 1.44394e-16 0)
(0.525 1.09111e-16 0)
(0.525 -2.72034e-16 0)
(0.525 -9.26015e-17 0)
(0.525 2.39166e-16 0)
(0.525 1.3487e-16 0)
(0.525 -1.09982e-17 0)
(0.525 -1.99099e-16 0)
(0.525 -2.17197e-16 0)
(0.525 2.2271e-17 0)
(0.525 -7.24328e-16 0)
(0.525 1.19336e-15 0)
(0.525 -4.77992e-14 0)
(0.525 -4.94564e-14 0)
(0.575 -3.95769e-14 0)
(0.575 -4.5599e-14 0)
(0.575 -4.98977e-15 0)
(0.575 -5.39941e-16 0)
(0.575 -4.09534e-16 0)
(0.575 1.33331e-17 0)
(0.575 6.1347e-17 0)
(0.575 1.64012e-16 0)
(0.575 -3.23581e-16 0)
(0.575 -6.43463e-17 0)
(0.575 2.15226e-16 0)
(0.575 1.24955e-16 0)
(0.575 -4.84556e-18 0)
(0.575 -2.0775e-16 0)
(0.575 -1.70481e-16 0)
(0.575 -1.96602e-17 0)
(0.575 -6.30485e-16 0)
(0.575 1.05836e-15 0)
(0.575 -4.35769e-14 0)
(0.575 -4.43947e-14 0)
(0.625 -2.98356e-14 0)
(0.625 -3.64345e-14 0)
(0.625 -4.41696e-15 0)
(0.625 -2.77127e-16 0)
(0.625 -5.18943e-16 0)
(0.625 1.41248e-16 0)
(0.625 -2.43046e-17 0)
(0.625 2.15372e-16 0)
(0.625 -3.57633e-16 0)
(0.625 -4.73384e-17 0)
(0.625 1.85573e-16 0)
(0.625 1.19641e-16 0)
(0.625 -7.4346e-18 0)
(0.625 -2.09928e-16 0)
(0.625 -1.1411e-16 0)
(0.625 -6.27292e-17 0)
(0.625 -5.06581e-16 0)
(0.625 8.75773e-16 0)
(0.625 -3.76429e-14 0)
(0.625 -3.76029e-14 0)
(0.675 -1.99545e-14 0)
(0.675 -2.68096e-14 0)
(0.675 -3.71039e-15 0)
(0.675 -2.57552e-17 0)
(0.675 -5.90349e-16 0)
(0.675 2.54587e-16 0)
(0.675 -1.07013e-16 0)
(0.675 2.58196e-16 0)
(0.675 -3.70807e-16 0)
(0.675 -3.18544e-17 0)
(0.675 1.45731e-16 0)
(0.675 1.13834e-16 0)
(0.675 -7.28062e-18 0)
(0.675 -2.09577e-16 0)
(0.675 -5.42967e-17 0)
(0.675 -9.60389e-17 0)
(0.675 -3.72881e-16 0)
(0.675 6.62052e-16 0)
(0.675 -3.05871e-14 0)
(0.675 -2.9749e-14 0)
(0.725 -1.0945e-14 0)
(0.725 -1.77275e-14 0)
(0.725 -2.94306e-15 0)
(0.725 1.89941e-16 0)
(0.725 -6.19833e-16 0)
(0.725 3.34924e-16 0)
(0.725 -1.76568e-16 0)
(0.725 2.83029e-16 0)
(0.725 -3.58357e-16 0)
(0.725 -1.06224e-17 0)
(0.725 9.42712e-17 0)
(0.725 1.03361e-16 0)
(0.725 1.2459e-18 0)
(0.725 -2.01347e-16 0)
(0.725 -1.1699e-18 0)
(0.725 -1.12143e-16 0)
(0.725 -2.39019e-16 0)
(0.725 4.32451e-16 0)
(0.725 -2.31026e-14 0)
(0.725 -2.15973e-14 0)
(0.775 -3.68847e-15 0)
(0.775 -1.00545e-14 0)
(0.775 -2.19668e-15 0)
(0.775 3.53507e-16 0)
(0.775 -6.10598e-16 0)
(0.775 3.82475e-16 0)
(0.775 -2.29796e-16 0)
(0.775 2.81511e-16 0)
(0.775 -3.20207e-16 0)
(0.775 1.2424e-17 0)
(0.775 4.86099e-17 0)
(0.775 8.67635e-17 0)
(0.775 3.9145e-18 0)
(0.775 -1.73986e-16 0)
(0.775 4.65707e-17 0)
(0.775 -1.20891e-16 0)
(0.775 -1.17359e-16 0)
(0.775 2.18645e-16 0)
(0.775 -1.58832e-14 0)
(0.775 -1.39306e-14 0)
(0.825 1.13414e-15 0)
(0.825 -4.43342e-15 0)
(0.825 -1.52392e-15 0)
(0.825 4.31429e-16 0)
(0.825 -5.53243e-16 0)
(0.825 3.93415e-16 0)
(0.825 -2.5577e-16 0)
(0.825 2.46074e-16 0)
(0.825 -2.63836e-16 0)
(0.825 4.00583e-17 0)
(0.825 1.01026e-17 0)
(0.825 7.03471e-17 0)
(0.825 -1.22098e-18 0)
(0.825 -1.37366e-16 0)
(0.825 8.35602e-17 0)
(0.825 -1.24034e-16 0)
(0.825 -2.68863e-17 0)
(0.825 5.01762e-17 0)
(0.825 -9.56656e-15 0)
(0.825 -7.47084e-15 0)
(0.875 3.22796e-15 0)
(0.875 -1.08068e-15 0)
(0.875 -9.51002e-16 0)
(0.875 4.00041e-16 0)
(0.875 -4.3588e-16 0)
(0.875 3.42573e-16 0)
(0.875 -2.27162e-16 0)
(0.875 1.8375e-16 0)
(0.875 -1.95406e-16 0)
(0.875 5.65476e-17 0)
(0.875 -1.03554e-17 0)
(0.875 4.58507e-17 0)
(0.875 1.90247e-18 0)
(0.875 -9.14464e-17 0)
(0.875 8.63186e-17 0)
(0.875 -1.15739e-16 0)
(0.875 3.44646e-17 0)
(0.875 -5.04524e-17 0)
(0.875 -4.65818e-15 0)
(0.875 -2.80101e-15 0)
(0.925 2.79476e-15 0)
(0.925 2.13405e-16 0)
(0.925 -4.74442e-16 0)
(0.925 2.67502e-16 0)
(0.925 -2.60474e-16 0)
(0.925 2.26194e-16 0)
(0.925 -1.49186e-16 0)
(0.925 1.07424e-16 0)
(0.925 -1.18236e-16 0)
(0.925 4.78146e-17 0)
(0.925 -7.66797e-18 0)
(0.925 2.0736e-17 0)
(0.925 3.413e-18 0)
(0.925 -4.32936e-17 0)
(0.925 5.31403e-17 0)
(0.925 -7.66229e-17 0)
(0.925 5.47516e-17 0)
(0.925 -6.95617e-17 0)
(0.925 -1.50735e-15 0)
(0.925 -2.97085e-16 0)
(0.975 1.0427e-15 0)
(0.975 2.32577e-16 0)
(0.975 -1.31089e-16 0)
(0.975 8.80919e-17 0)
(0.975 -8.02919e-17 0)
(0.975 7.48881e-17 0)
(0.975 -5.20001e-17 0)
(0.975 3.3762e-17 0)
(0.975 -3.55944e-17 0)
(0.975 1.83795e-17 0)
(0.975 -3.54877e-18 0)
(0.975 5.74867e-18 0)
(0.975 1.39856e-18 0)
(0.975 -1.06346e-17 0)
(0.975 1.63404e-17 0)
(0.975 -2.42918e-17 0)
(0.975 2.18601e-17 0)
(0.975 -3.3408e-17 0)
(0.975 -1.97191e-16 0)
(0.975 2.03688e-16 0)
)
;

boundaryField
{
    top
    {
        type            fixedValue;
        value           uniform (1 0 0);
    }
    bottom
    {
        type            fixedValue;
        value           uniform (0 0 0);
    }
    inlet
    {
        type            zeroGradient;
    }
    outlet
    {
        type            zeroGradient;
    }
    frontAndBack
    {
        type            empty;
    }
}


// ************************************************************************* //
