/*--------------------------------*- C++ -*----------------------------------*\
| =========                 |                                                 |
| \\      /  F ield         | OpenFOAM: The Open Source CFD Toolbox           |
|  \\    /   O peration     | Version:  4.1                                   |
|   \\  /    A nd           | Web:      www.OpenFOAM.org                      |
|    \\/     M anipulation  |                                                 |
\*---------------------------------------------------------------------------*/
FoamFile
{
    version     2.0;
    format      ascii;
    class       surfaceScalarField;
    location    "0.5";
    object      phi;
}
// * * * * * * * * * * * * * * * * * * * * * * * * * * * * * * * * * * * * * //

dimensions      [0 3 -1 0 0 0 0];

internalField   nonuniform List<scalar> 
760
(
-1.91541e-05
3.73163e-11
-1.91541e-05
-3.55991e-12
-1.91541e-05
3.94941e-11
-1.91541e-05
-2.17463e-11
-1.91541e-05
2.68175e-11
-1.91541e-05
-2.23819e-11
-1.91541e-05
2.05748e-11
-1.91541e-05
-1.68739e-11
-1.91541e-05
1.30635e-11
-1.91541e-05
-8.20671e-12
-1.91541e-05
3.5603e-12
-1.91541e-05
2.34873e-12
-1.91541e-05
-7.70623e-12
-1.91541e-05
1.29561e-11
-1.91541e-05
-1.95616e-11
-1.91541e-05
2.34615e-11
-1.91541e-05
-2.96723e-11
-1.91541e-05
3.05823e-11
-1.91541e-05
-4.45332e-11
5.44513e-11
-5.11297e-05
1.09165e-10
-5.11297e-05
2.23721e-11
-5.11298e-05
1.00625e-10
-5.11298e-05
-4.63028e-11
-5.11298e-05
5.7943e-11
-5.11298e-05
-5.28125e-11
-5.11298e-05
4.23473e-11
-5.11298e-05
-4.02331e-11
-5.11298e-05
2.58195e-11
-5.11298e-05
-2.00124e-11
-5.11298e-05
5.06312e-12
-5.11298e-05
4.59677e-12
-5.11298e-05
-1.96164e-11
-5.11298e-05
2.88392e-11
-5.11298e-05
-4.52594e-11
-5.11298e-05
5.20403e-11
-5.11298e-05
-6.5454e-11
-5.11298e-05
5.97466e-11
-5.11297e-05
-9.02915e-11
1.29133e-10
-7.67732e-05
2.03133e-10
-7.67733e-05
9.10695e-11
-7.67734e-05
1.6302e-10
-7.67734e-05
-5.53903e-11
-7.67734e-05
7.97312e-11
-7.67734e-05
-7.31666e-11
-7.67734e-05
5.46744e-11
-7.67734e-05
-5.60965e-11
-7.67734e-05
3.14609e-11
-7.67734e-05
-2.73728e-11
-7.67734e-05
3.23132e-12
-7.67734e-05
7.701e-12
-7.67734e-05
-3.03353e-11
-7.67734e-05
4.12189e-11
-7.67734e-05
-6.47923e-11
-7.67734e-05
7.21994e-11
-7.67734e-05
-8.89013e-11
-7.67734e-05
6.92162e-11
-7.67734e-05
-1.03436e-10
1.95439e-10
-9.60852e-05
3.17015e-10
-9.60853e-05
1.97347e-10
-9.60854e-05
2.22127e-10
-9.60854e-05
-4.96776e-11
-9.60854e-05
9.24943e-11
-9.60854e-05
-8.24506e-11
-9.60854e-05
5.82134e-11
-9.60854e-05
-6.35879e-11
-9.60854e-05
3.04434e-11
-9.60854e-05
-2.96547e-11
-9.60854e-05
-1.60917e-12
-9.60854e-05
1.19487e-11
-9.60854e-05
-3.95961e-11
-9.60854e-05
5.02711e-11
-9.60854e-05
-7.80099e-11
-9.60854e-05
8.4438e-11
-9.60854e-05
-1.00506e-10
-9.60854e-05
6.30241e-11
-9.60854e-05
-8.11236e-11
2.54177e-10
-0.000109066
4.45434e-10
-0.000109066
3.32689e-10
-0.000109066
2.73806e-10
-0.000109066
-3.16802e-11
-0.000109066
9.64351e-11
-0.000109066
-8.15306e-11
-0.000109066
5.37195e-11
-0.000109066
-6.33179e-11
-0.000109066
2.34588e-11
-0.000109066
-2.73606e-11
-0.000109066
-9.00753e-12
-0.000109066
1.69058e-11
-0.000109066
-4.71741e-11
-0.000109066
5.5948e-11
-0.000109066
-8.5008e-11
-0.000109066
8.93441e-11
-0.000109066
-1.01177e-10
-0.000109066
4.48475e-11
-0.000109066
-2.42911e-11
3.05873e-10
-0.000115716
5.79945e-10
-0.000115716
4.8594e-10
-0.000115716
3.14698e-10
-0.000115716
-4.4998e-12
-0.000115716
9.1942e-11
-0.000115716
-7.19289e-11
-0.000115716
4.21684e-11
-0.000115716
-5.63724e-11
-0.000115716
1.14756e-11
-0.000115716
-2.12868e-11
-0.000115716
-1.83129e-11
-0.000115716
2.20226e-11
-0.000115716
-5.28328e-11
-0.000115716
5.81667e-11
-0.000115716
-8.61201e-11
-0.000115716
8.74584e-11
-0.000115716
-9.22136e-11
-0.000115716
1.7819e-11
-0.000115716
6.19691e-11
3.49973e-10
-0.000116036
7.10026e-10
-0.000116036
6.44332e-10
-0.000116036
3.42536e-10
-0.000116036
2.86787e-11
-0.000116036
7.98825e-11
-0.000116036
-5.54026e-11
-0.000116036
2.49055e-11
-0.000116036
-4.40392e-11
-0.000116036
-4.2146e-12
-0.000116036
-1.23345e-11
-0.000116036
-2.86521e-11
-0.000116036
2.67718e-11
-0.000116036
-5.62997e-11
-0.000116036
5.69267e-11
-0.000116036
-8.18199e-11
-0.000116036
7.9432e-11
-0.000116036
-7.51531e-11
-0.000116036
-1.53203e-11
-0.000116036
1.69346e-10
3.8516e-10
-0.000110025
8.23919e-10
-0.000110025
7.94038e-10
-0.000110025
3.56021e-10
-0.000110025
6.46638e-11
-0.000110025
6.15517e-11
-0.000110025
-3.38751e-11
-0.000110025
3.56831e-12
-0.000110025
-2.77813e-11
-0.000110025
-2.21269e-11
-0.000110025
-1.5241e-12
-0.000110025
-3.9064e-11
-0.000110025
3.06428e-11
-0.000110025
-5.73506e-11
-0.000110025
5.23478e-11
-0.000110025
-7.273e-11
-0.000110025
6.6086e-11
-0.000110025
-5.17505e-11
-0.000110025
-5.20677e-11
-0.000110025
2.86932e-10
4.09224e-10
-9.76845e-05
9.09969e-10
-9.76847e-05
9.21207e-10
-9.76846e-05
3.54646e-10
-9.76847e-05
1.00317e-10
-9.76847e-05
3.85697e-11
-9.76847e-05
-9.37132e-12
-9.76847e-05
-2.00108e-11
-9.76847e-05
-9.17718e-12
-9.76847e-05
-4.06934e-11
-9.76847e-05
1.00513e-11
-9.76847e-05
-4.86008e-11
-9.76847e-05
3.31794e-11
-9.76847e-05
-5.58681e-11
-9.76847e-05
4.47091e-11
-9.76847e-05
-5.96363e-11
-9.76847e-05
4.8439e-11
-9.76847e-05
-2.39762e-11
-9.76847e-05
-9.00044e-11
-9.76848e-05
4.02517e-10
4.19551e-10
-7.90143e-05
9.57937e-10
-7.90144e-05
1.01301e-09
-7.90144e-05
3.38544e-10
-7.90144e-05
1.32648e-10
-7.90144e-05
1.27862e-11
-7.90144e-05
1.6063e-11
-7.90144e-05
-4.38899e-11
-7.90144e-05
1.0164e-11
-7.90144e-05
-5.83513e-11
-7.90144e-05
2.12981e-11
-7.90144e-05
-5.64064e-11
-7.90144e-05
3.40331e-11
-7.90144e-05
-5.18793e-11
-7.90144e-05
3.44894e-11
-7.90144e-05
-4.34909e-11
-7.90144e-05
2.77252e-11
-7.90144e-05
6.01112e-12
-7.90144e-05
-1.26637e-10
-7.90145e-05
5.03819e-10
4.13516e-10
-5.40144e-05
9.6045e-10
-5.40144e-05
1.05894e-09
-5.40144e-05
3.08456e-10
-5.40144e-05
1.5894e-10
-5.40144e-05
-1.38153e-11
-5.40144e-05
4.04288e-11
-5.40144e-05
-6.61237e-11
-5.40144e-05
2.86761e-11
-5.40144e-05
-7.36286e-11
-5.40144e-05
3.12052e-11
-5.40144e-05
-6.17803e-11
-5.40144e-05
3.30122e-11
-5.40144e-05
-4.55925e-11
-5.40144e-05
2.23767e-11
-5.40144e-05
-2.54179e-11
-5.40144e-05
5.39238e-12
-5.40144e-05
3.59198e-11
-5.40144e-05
-1.5931e-10
-5.40144e-05
5.79919e-10
3.89189e-10
-2.26847e-05
9.14206e-10
-2.26847e-05
1.05208e-09
-2.26847e-05
2.6582e-10
-2.26847e-05
1.76907e-10
-2.26847e-05
-3.92012e-11
-2.26847e-05
6.18418e-11
-2.26847e-05
-8.48712e-11
-2.26847e-05
4.49055e-11
-2.26847e-05
-8.52231e-11
-2.26847e-05
3.89217e-11
-2.26847e-05
-6.42243e-11
-2.26847e-05
3.01207e-11
-2.26847e-05
-3.74184e-11
-2.26847e-05
9.25734e-12
-2.26847e-05
-6.70891e-12
-2.26847e-05
-1.69213e-11
-2.26847e-05
6.34056e-11
-2.26847e-05
-1.85241e-10
-2.26847e-05
6.2246e-10
3.45999e-10
1.49747e-05
8.21005e-10
1.49747e-05
9.90385e-10
1.49748e-05
2.12994e-10
1.49748e-05
1.84865e-10
1.49748e-05
-6.13493e-11
1.49748e-05
7.86035e-11
1.49748e-05
-9.84961e-11
1.49748e-05
5.75719e-11
1.49748e-05
-9.20738e-11
1.49748e-05
4.38218e-11
1.49748e-05
-6.34693e-11
1.49748e-05
2.55823e-11
1.49748e-05
-2.79692e-11
1.49748e-05
-3.81348e-12
1.49748e-05
1.11963e-11
1.49748e-05
-3.74368e-11
1.49748e-05
8.61699e-11
1.49748e-05
-2.0172e-10
1.49748e-05
6.26677e-10
2.85477e-10
5.8964e-05
6.88115e-10
5.89641e-05
8.77438e-10
5.89642e-05
1.53575e-10
5.89642e-05
1.81901e-10
5.89642e-05
-7.82937e-11
5.89642e-05
8.92725e-11
5.89642e-05
-1.0565e-10
5.89642e-05
6.562e-11
5.89642e-05
-9.34191e-11
5.89642e-05
4.5545e-11
5.89642e-05
-5.9481e-11
5.89642e-05
1.98471e-11
5.89642e-05
-1.80301e-11
5.89642e-05
-1.56533e-11
5.89642e-05
2.67496e-11
5.89642e-05
-5.43055e-11
5.89642e-05
1.02074e-10
5.89642e-05
-2.06456e-10
5.89643e-05
5.91858e-10
2.11728e-10
0.000109284
5.28454e-10
0.000109284
7.2313e-10
0.000109284
9.26185e-11
0.000109284
1.67988e-10
0.000109284
-8.81644e-11
0.000109284
9.27266e-11
0.000109284
-1.05329e-10
0.000109284
6.82577e-11
0.000109284
-8.88402e-11
0.000109284
4.39978e-11
0.000109284
-5.24562e-11
0.000109284
1.35717e-11
0.000109284
-8.50684e-12
0.000109284
-2.49931e-11
0.000109284
3.83608e-11
0.000109284
-6.56949e-11
0.000109284
1.09264e-10
0.000109284
-1.97956e-10
0.000109284
5.21562e-10
1.31835e-10
0.000165934
3.59372e-10
0.000165934
5.42913e-10
0.000165934
3.67958e-11
0.000165934
1.44026e-10
0.000165934
-8.92129e-11
0.000165934
8.82349e-11
0.000165934
-9.68852e-11
0.000165934
6.50012e-11
0.000165934
-7.82696e-11
0.000165934
3.93389e-11
0.000165934
-4.28023e-11
0.000165934
7.57928e-12
0.000165934
-3.56781e-13
0.000165934
-3.05189e-11
0.000165934
4.44981e-11
0.000165934
-6.98586e-11
0.000165934
1.06295e-10
0.000165934
-1.75891e-10
0.000165934
4.22902e-10
5.54773e-11
0.000228914
2.02205e-10
0.000228915
3.57428e-10
0.000228915
-5.99756e-12
0.000228915
1.11775e-10
0.000228915
-7.98233e-11
0.000228915
7.5511e-11
0.000228915
-7.99752e-11
0.000228915
5.56952e-11
0.000228915
-6.19508e-11
0.000228915
3.19191e-11
0.000228915
-3.11133e-11
0.000228915
2.77403e-12
0.000228915
5.46807e-12
0.000228915
-3.09147e-11
0.000228915
4.38045e-11
0.000228915
-6.51617e-11
0.000228915
9.22737e-11
0.000228915
-1.41052e-10
0.000228915
3.06352e-10
-5.2052e-12
0.000298226
7.85051e-11
0.000298227
1.88698e-10
0.000298227
-2.7487e-11
0.000298227
7.33126e-11
0.000298227
-5.89132e-11
0.000298227
5.44237e-11
0.000298227
-5.48759e-11
0.000298227
4.02454e-11
0.000298227
-4.06928e-11
0.000298227
2.20217e-11
0.000298227
-1.83921e-11
0.000298227
-1.28132e-13
0.000298227
7.84245e-12
0.000298227
-2.50839e-11
0.000298227
3.507e-11
0.000298227
-5.01695e-11
0.000298227
6.68686e-11
0.000298227
-9.51891e-11
0.000298227
1.83769e-10
-3.76785e-11
0.00037387
1.06405e-11
0.00037387
5.97356e-11
0.00037387
-2.01655e-11
0.00037387
3.12046e-11
0.00037387
-2.52938e-11
0.00037387
2.54609e-11
0.00037387
-2.1896e-11
0.00037387
1.8826e-11
0.00037387
-1.54729e-11
0.00037387
9.9257e-12
0.00037387
-5.76225e-12
0.00037387
-5.77078e-13
0.00037387
5.68022e-12
0.00037387
-1.2102e-11
0.00037387
1.74268e-11
0.00037387
-2.34729e-11
0.00037387
3.03467e-11
0.00037387
-3.97279e-11
0.00037387
6.91592e-11
-2.90663e-11
0.000455846
0.000455846
0.000455846
0.000455846
0.000455846
0.000455846
0.000455846
0.000455846
0.000455846
0.000455846
0.000455846
0.000455846
0.000455846
0.000455846
0.000455846
0.000455846
0.000455846
0.000455846
0.000455846
)
;

boundaryField
{
    top
    {
        type            calculated;
        value           uniform 0;
    }
    bottom
    {
        type            calculated;
        value           uniform 0;
    }
    inlet
    {
        type            calculated;
        value           nonuniform List<scalar> 
20
(
1.9154e-05
5.11296e-05
7.67732e-05
9.60851e-05
0.000109066
0.000115716
0.000116035
0.000110025
9.76844e-05
7.90142e-05
5.40144e-05
2.26848e-05
-1.49746e-05
-5.89639e-05
-0.000109283
-0.000165933
-0.000228914
-0.000298226
-0.00037387
-0.000455846
)
;
    }
    outlet
    {
        type            calculated;
        value           nonuniform List<scalar> 
20
(
-1.91541e-05
-5.11298e-05
-7.67734e-05
-9.60855e-05
-0.000109066
-0.000115716
-0.000116036
-0.000110025
-9.76848e-05
-7.90145e-05
-5.40144e-05
-2.26847e-05
1.49749e-05
5.89643e-05
0.000109284
0.000165934
0.000228915
0.000298227
0.00037387
0.000455846
)
;
    }
    frontAndBack
    {
        type            empty;
        value           nonuniform 0();
    }
}


// ************************************************************************* //
