/*--------------------------------*- C++ -*----------------------------------*\
| =========                 |                                                 |
| \\      /  F ield         | OpenFOAM: The Open Source CFD Toolbox           |
|  \\    /   O peration     | Version:  4.1                                   |
|   \\  /    A nd           | Web:      www.OpenFOAM.org                      |
|    \\/     M anipulation  |                                                 |
\*---------------------------------------------------------------------------*/
FoamFile
{
    version     2.0;
    format      ascii;
    class       volVectorField;
    location    "0.5";
    object      U;
}
// * * * * * * * * * * * * * * * * * * * * * * * * * * * * * * * * * * * * * //

dimensions      [0 1 -1 0 0 0 0];

internalField   nonuniform List<vector> 
400
(
(-0.383081 1.59274e-08 0)
(-0.383081 -7.04146e-09 0)
(-0.383082 1.819e-08 0)
(-0.383081 -1.40033e-08 0)
(-0.383082 1.28742e-08 0)
(-0.383081 -1.37648e-08 0)
(-0.383082 1.00578e-08 0)
(-0.383081 -1.04802e-08 0)
(-0.383083 6.42921e-09 0)
(-0.383081 -5.61451e-09 0)
(-0.383083 1.54335e-09 0)
(-0.383081 1.88966e-10 0)
(-0.383083 -4.37138e-09 0)
(-0.383081 6.08869e-09 0)
(-0.383083 -1.06242e-08 0)
(-0.383081 1.18888e-08 0)
(-0.383083 -1.60491e-08 0)
(-0.383081 1.65386e-08 0)
(-0.383082 -2.46916e-08 0)
(-0.383082 2.69418e-08 0)
(-1.02259 6.72159e-08 0)
(-1.02259 2.00022e-09 0)
(-1.0226 6.85573e-08 0)
(-1.02259 -3.45998e-08 0)
(-1.0226 4.37127e-08 0)
(-1.02259 -3.70869e-08 0)
(-1.0226 3.30011e-08 0)
(-1.02259 -2.80808e-08 0)
(-1.0226 2.06948e-08 0)
(-1.02259 -1.37466e-08 0)
(-1.0226 5.21644e-09 0)
(-1.02259 3.79579e-09 0)
(-1.0226 -1.30804e-08 0)
(-1.02259 2.13308e-08 0)
(-1.0226 -3.22693e-08 0)
(-1.02259 3.84288e-08 0)
(-1.0226 -4.81864e-08 0)
(-1.02259 4.76066e-08 0)
(-1.0226 -7.15066e-08 0)
(-1.0226 9.08446e-08 0)
(-1.53546 1.49645e-07 0)
(-1.53547 4.6119e-08 0)
(-1.53547 1.3029e-07 0)
(-1.53547 -5.54057e-08 0)
(-1.53547 6.93658e-08 0)
(-1.53547 -6.6455e-08 0)
(-1.53547 4.93398e-08 0)
(-1.53546 -5.08721e-08 0)
(-1.53547 2.9366e-08 0)
(-1.53546 -2.55896e-08 0)
(-1.53547 4.35815e-09 0)
(-1.53546 5.11301e-09 0)
(-1.53547 -2.55245e-08 0)
(-1.53546 3.49827e-08 0)
(-1.53547 -5.64329e-08 0)
(-1.53546 6.30857e-08 0)
(-1.53547 -7.96277e-08 0)
(-1.53547 6.76125e-08 0)
(-1.53547 -1.04074e-07 0)
(-1.53547 1.62522e-07 0)
(-1.9217 2.55854e-07 0)
(-1.9217 1.36108e-07 0)
(-1.92171 1.94288e-07 0)
(-1.92171 -5.55338e-08 0)
(-1.92171 8.88882e-08 0)
(-1.9217 -8.00172e-08 0)
(-1.92171 5.90618e-08 0)
(-1.9217 -6.14845e-08 0)
(-1.92171 3.29458e-08 0)
(-1.9217 -2.94306e-08 0)
(-1.92171 1.84076e-09 0)
(-1.9217 9.83214e-09 0)
(-1.92171 -3.51006e-08 0)
(-1.9217 4.67748e-08 0)
(-1.92171 -7.2802e-08 0)
(-1.9217 8.03604e-08 0)
(-1.92171 -9.74736e-08 0)
(-1.9217 6.96905e-08 0)
(-1.92171 -1.00872e-07 0)
(-1.92171 2.26991e-07 0)
(-2.18132 3.78905e-07 0)
(-2.18132 2.59287e-07 0)
(-2.18132 2.50606e-07 0)
(-2.18132 -4.33447e-08 0)
(-2.18133 9.70069e-08 0)
(-2.18132 -8.43035e-08 0)
(-2.18133 5.82053e-08 0)
(-2.18132 -6.52047e-08 0)
(-2.18133 2.86002e-08 0)
(-2.18132 -2.94803e-08 0)
(-2.18133 -4.56319e-09 0)
(-2.18132 1.44231e-08 0)
(-2.18133 -4.37499e-08 0)
(-2.18132 5.41092e-08 0)
(-2.18133 -8.30389e-08 0)
(-2.18132 8.88371e-08 0)
(-2.18133 -1.03531e-07 0)
(-2.18132 5.67189e-08 0)
(-2.18133 -6.07618e-08 0)
(-2.18132 2.82469e-07 0)
(-2.31432 5.12634e-07 0)
(-2.31432 4.06561e-07 0)
(-2.31433 2.97381e-07 0)
(-2.31432 -1.99131e-08 0)
(-2.31433 9.64414e-08 0)
(-2.31432 -7.85548e-08 0)
(-2.31433 4.97929e-08 0)
(-2.31432 -6.12368e-08 0)
(-2.31433 1.87625e-08 0)
(-2.31432 -2.50522e-08 0)
(-2.31433 -1.31396e-08 0)
(-2.31431 1.95893e-08 0)
(-2.31433 -5.04231e-08 0)
(-2.31431 5.80229e-08 0)
(-2.31433 -8.69354e-08 0)
(-2.31432 9.01202e-08 0)
(-2.31433 -9.8944e-08 0)
(-2.31432 3.32977e-08 0)
(-2.31433 1.26214e-08 0)
(-2.31433 3.30385e-07 0)
(-2.32071 6.47648e-07 0)
(-2.32071 5.65572e-07 0)
(-2.32072 3.32035e-07 0)
(-2.32071 1.10629e-08 0)
(-2.32072 8.78537e-08 0)
(-2.32071 -6.49886e-08 0)
(-2.32072 3.4992e-08 0)
(-2.32071 -5.12125e-08 0)
(-2.32072 4.56221e-09 0)
(-2.32071 -1.72785e-08 0)
(-2.32073 -2.31974e-08 0)
(-2.3207 2.46615e-08 0)
(-2.32073 -5.50418e-08 0)
(-2.32071 5.84945e-08 0)
(-2.32073 -8.51816e-08 0)
(-2.32071 8.4969e-08 0)
(-2.32072 -8.55014e-08 0)
(-2.32071 2.60158e-09 0)
(-2.32072 1.11896e-07 0)
(-2.32072 3.70288e-07 0)
(-2.2005 7.72526e-07 0)
(-2.2005 7.22921e-07 0)
(-2.20051 3.52792e-07 0)
(-2.2005 4.64103e-08 0)
(-2.20051 7.22579e-08 0)
(-2.2005 -4.54671e-08 0)
(-2.20051 1.52359e-08 0)
(-2.20049 -3.65291e-08 0)
(-2.20051 -1.26388e-08 0)
(-2.20049 -7.12489e-09 0)
(-2.20052 -3.3828e-08 0)
(-2.20049 2.90996e-08 0)
(-2.20052 -5.73552e-08 0)
(-2.20049 5.55404e-08 0)
(-2.20051 -7.83155e-08 0)
(-2.20049 7.40598e-08 0)
(-2.20051 -6.48176e-08 0)
(-2.2005 -3.28765e-08 0)
(-2.20051 2.27258e-07 0)
(-2.20051 4.00348e-07 0)
(-1.95369 8.75211e-07 0)
(-1.95369 8.64565e-07 0)
(-1.9537 3.58811e-07 0)
(-1.95369 8.29959e-08 0)
(-1.9537 5.11506e-08 0)
(-1.95369 -2.19342e-08 0)
(-1.9537 -7.70518e-09 0)
(-1.95368 -1.86899e-08 0)
(-1.9537 -3.1277e-08 0)
(-1.95368 4.35762e-09 0)
(-1.95371 -4.404e-08 0)
(-1.95368 3.24172e-08 0)
(-1.95371 -5.7158e-08 0)
(-1.95368 4.93462e-08 0)
(-1.9537 -6.70094e-08 0)
(-1.95368 5.8291e-08 0)
(-1.9537 -3.87193e-08 0)
(-1.95369 -7.07624e-08 0)
(-1.9537 3.4688e-07 0)
(-1.95369 4.18017e-07 0)
(-1.58029 9.44398e-07 0)
(-1.58029 9.76889e-07 0)
(-1.58029 3.4993e-07 0)
(-1.58028 1.17719e-07 0)
(-1.58029 2.62737e-08 0)
(-1.58028 3.55205e-09 0)
(-1.5803 -3.19357e-08 0)
(-1.58028 6.91425e-10 0)
(-1.5803 -4.9783e-08 0)
(-1.58028 1.60473e-08 0)
(-1.5803 -5.29181e-08 0)
(-1.58027 3.41905e-08 0)
(-1.5803 -5.43996e-08 0)
(-1.58028 4.02753e-08 0)
(-1.5803 -5.21312e-08 0)
(-1.58028 3.87769e-08 0)
(-1.5803 -9.27817e-09 0)
(-1.58028 -1.08658e-07 0)
(-1.58029 4.58187e-07 0)
(-1.58029 4.20561e-07 0)
(-1.08029 9.70948e-07 0)
(-1.08029 1.04792e-06 0)
(-1.08029 3.26592e-07 0)
(-1.08028 1.4769e-07 0)
(-1.08029 -4.30449e-10 0)
(-1.08028 2.8949e-08 0)
(-1.0803 -5.54849e-08 0)
(-1.08028 2.00057e-08 0)
(-1.0803 -6.66178e-08 0)
(-1.08028 2.68677e-08 0)
(-1.0803 -5.96697e-08 0)
(-1.08027 3.41362e-08 0)
(-1.0803 -4.919e-08 0)
(-1.08028 2.89107e-08 0)
(-1.0803 -3.47195e-08 0)
(-1.08028 1.68617e-08 0)
(-1.0803 2.1262e-08 0)
(-1.08028 -1.44008e-07 0)
(-1.08029 5.49241e-07 0)
(-1.08029 4.05562e-07 0)
(-0.453696 9.49239e-07 0)
(-0.453693 1.06864e-06 0)
(-0.453698 2.89853e-07 0)
(-0.453689 1.70362e-07 0)
(-0.4537 -2.69332e-08 0)
(-0.453686 5.22951e-08 0)
(-0.453703 -7.64325e-08 0)
(-0.453683 3.77224e-08 0)
(-0.453705 -8.03688e-08 0)
(-0.453682 3.5867e-08 0)
(-0.453706 -6.36855e-08 0)
(-0.453681 3.21506e-08 0)
(-0.453706 -4.18348e-08 0)
(-0.453682 1.60446e-08 0)
(-0.453704 -1.59857e-08 0)
(-0.453684 -5.90249e-09 0)
(-0.453702 5.05611e-08 0)
(-0.453687 -1.74069e-07 0)
(-0.453698 6.10119e-07 0)
(-0.453692 3.71618e-07 0)
(0.299491 8.78348e-07 0)
(0.299497 1.0343e-06 0)
(0.299492 2.41536e-07 0)
(0.299501 1.83703e-07 0)
(0.29949 -5.11915e-08 0)
(0.299504 7.17784e-08 0)
(0.299487 -9.30105e-08 0)
(0.299506 5.24575e-08 0)
(0.299485 -8.98351e-08 0)
(0.299507 4.22918e-08 0)
(0.299484 -6.45761e-08 0)
(0.299508 2.8343e-08 0)
(0.299485 -3.28482e-08 0)
(0.299507 2.65859e-09 0)
(0.299486 2.6971e-09 0)
(0.299505 -2.779e-08 0)
(0.299489 7.62697e-08 0)
(0.299502 -1.96019e-07 0)
(0.299492 6.34079e-07 0)
(0.299498 3.19074e-07 0)
(1.17928 7.62749e-07 0)
(1.17928 9.45489e-07 0)
(1.17928 1.84541e-07 0)
(1.17929 1.86393e-07 0)
(1.17928 -7.11953e-08 0)
(1.17929 8.58306e-08 0)
(1.17928 -1.037e-07 0)
(1.17929 6.30478e-08 0)
(1.17927 -9.4088e-08 0)
(1.17929 4.56545e-08 0)
(1.17927 -6.21851e-08 0)
(1.17929 2.30596e-08 0)
(1.17927 -2.29353e-08 0)
(1.17929 -1.01126e-08 0)
(1.17928 1.98295e-08 0)
(1.17929 -4.69643e-08 0)
(1.17928 9.61473e-08 0)
(1.17929 -2.07253e-07 0)
(1.17928 6.18324e-07 0)
(1.17929 2.50638e-07 0)
(2.18567 6.12637e-07 0)
(2.18568 8.08953e-07 0)
(2.18567 1.23058e-07 0)
(2.18568 1.77924e-07 0)
(2.18567 -8.50786e-08 0)
(2.18568 9.31373e-08 0)
(2.18567 -1.07362e-07 0)
(2.18568 6.85456e-08 0)
(2.18567 -9.25616e-08 0)
(2.18568 4.57137e-08 0)
(2.18567 -5.66151e-08 0)
(2.18568 1.6837e-08 0)
(2.18567 -1.29629e-08 0)
(2.18568 -2.10653e-08 0)
(2.18567 3.38313e-08 0)
(2.18568 -6.15974e-08 0)
(2.18567 1.08188e-07 0)
(2.18568 -2.05803e-07 0)
(2.18567 5.64418e-07 0)
(2.18568 1.71872e-07 0)
(3.31867 4.43235e-07 0)
(3.31868 6.37432e-07 0)
(3.31867 6.29198e-08 0)
(3.31868 1.58805e-07 0)
(3.31867 -9.10169e-08 0)
(3.31868 9.28456e-08 0)
(3.31867 -1.0316e-07 0)
(3.31868 6.83789e-08 0)
(3.31867 -8.49966e-08 0)
(3.31868 4.25647e-08 0)
(3.31867 -4.81494e-08 0)
(3.31868 1.04622e-08 0)
(3.31867 -3.84372e-09 0)
(3.31868 -2.88898e-08 0)
(3.31867 4.31587e-08 0)
(3.31868 -6.99062e-08 0)
(3.31867 1.10756e-07 0)
(3.31868 -1.90729e-07 0)
(3.31867 4.77839e-07 0)
(3.31868 9.11296e-08 0)
(4.57828 2.74508e-07 0)
(4.57829 4.49103e-07 0)
(4.57829 1.19232e-08 0)
(4.5783 1.30383e-07 0)
(4.57829 -8.66825e-08 0)
(4.5783 8.44785e-08 0)
(4.57829 -9.00107e-08 0)
(4.5783 6.22623e-08 0)
(4.57829 -7.10221e-08 0)
(4.5783 3.65417e-08 0)
(4.57829 -3.69679e-08 0)
(4.5783 4.96115e-09 0)
(4.57829 3.6191e-09 0)
(4.5783 -3.20383e-08 0)
(4.57829 4.63032e-08 0)
(4.5783 -6.98961e-08 0)
(4.57829 1.02409e-07 0)
(4.57829 -1.61784e-07 0)
(4.57829 3.67109e-07 0)
(4.5783 1.99089e-08 0)
(5.96452 1.28562e-07 0)
(5.96453 2.64212e-07 0)
(5.96453 -2.29258e-08 0)
(5.96453 9.19362e-08 0)
(5.96453 -7.28003e-08 0)
(5.96454 6.51974e-08 0)
(5.96453 -6.99444e-08 0)
(5.96454 4.80304e-08 0)
(5.96453 -5.29519e-08 0)
(5.96454 2.65467e-08 0)
(5.96453 -2.55086e-08 0)
(5.96454 2.0547e-10 0)
(5.96453 6.81594e-09 0)
(5.96454 -2.98005e-08 0)
(5.96453 4.05642e-08 0)
(5.96453 -6.00738e-08 0)
(5.96453 8.1341e-08 0)
(5.96453 -1.19997e-07 0)
(5.96453 2.42843e-07 0)
(5.96454 -2.82903e-08 0)
(7.4774 3.31709e-08 0)
(7.4774 1.13878e-07 0)
(7.4774 -2.78813e-08 0)
(7.47741 5.2456e-08 0)
(7.4774 -4.17882e-08 0)
(7.47741 4.13337e-08 0)
(7.4774 -3.73122e-08 0)
(7.47741 3.05349e-08 0)
(7.4774 -2.6841e-08 0)
(7.47741 1.63791e-08 0)
(7.4774 -1.07217e-08 0)
(7.47741 -5.02608e-10 0)
(7.4774 8.22483e-09 0)
(7.47741 -1.91576e-08 0)
(7.4774 2.77165e-08 0)
(7.47741 -3.77635e-08 0)
(7.4774 4.95719e-08 0)
(7.47741 -6.68758e-08 0)
(7.4774 1.21927e-07 0)
(7.47741 -3.95433e-08 0)
(9.11692 -3.39035e-10 0)
(9.11692 2.43969e-08 0)
(9.11692 -1.37459e-08 0)
(9.11692 1.43403e-08 0)
(9.11692 -1.50219e-08 0)
(9.11692 1.20066e-08 0)
(9.11692 -1.29235e-08 0)
(9.11692 8.83302e-09 0)
(9.11692 -9.2027e-09 0)
(9.11692 4.41468e-09 0)
(9.11692 -3.8792e-09 0)
(9.11692 -9.94016e-10 0)
(9.11692 2.27976e-09 0)
(9.11692 -6.94492e-09 0)
(9.11692 8.6618e-09 0)
(9.11692 -1.28034e-08 0)
(9.11692 1.54292e-08 0)
(9.11692 -2.0306e-08 0)
(9.11692 3.29964e-08 0)
(9.11692 -1.78872e-08 0)
)
;

boundaryField
{
    top
    {
        type            fixedValue;
        value           uniform (10 0 0);
    }
    bottom
    {
        type            fixedValue;
        value           uniform (0 0 0);
    }
    inlet
    {
        type            zeroGradient;
    }
    outlet
    {
        type            zeroGradient;
    }
    frontAndBack
    {
        type            empty;
    }
}


// ************************************************************************* //
