/*--------------------------------*- C++ -*----------------------------------*\
| =========                 |                                                 |
| \\      /  F ield         | OpenFOAM: The Open Source CFD Toolbox           |
|  \\    /   O peration     | Version:  4.1                                   |
|   \\  /    A nd           | Web:      www.OpenFOAM.org                      |
|    \\/     M anipulation  |                                                 |
\*---------------------------------------------------------------------------*/
FoamFile
{
    version     2.0;
    format      ascii;
    class       volScalarField;
    location    "2.9";
    object      p;
}
// * * * * * * * * * * * * * * * * * * * * * * * * * * * * * * * * * * * * * //

dimensions      [0 2 -2 0 0 0 0];

internalField   nonuniform List<scalar> 
400
(
4.10112e-10
4.57839e-10
3.90611e-10
4.17843e-10
3.68345e-10
3.82655e-10
3.45221e-10
3.49201e-10
3.20832e-10
3.16791e-10
2.95625e-10
2.85005e-10
2.6999e-10
2.53517e-10
2.44219e-10
2.22032e-10
2.18677e-10
1.90824e-10
1.95295e-10
1.84108e-10
4.08629e-10
4.56318e-10
3.90497e-10
4.17813e-10
3.68347e-10
3.8265e-10
3.45225e-10
3.49199e-10
3.20834e-10
3.1679e-10
2.95626e-10
2.85005e-10
2.6999e-10
2.53518e-10
2.44217e-10
2.22033e-10
2.1866e-10
1.90835e-10
1.94281e-10
1.83035e-10
4.07786e-10
4.55235e-10
3.90357e-10
4.1781e-10
3.68329e-10
3.82662e-10
3.45214e-10
3.49207e-10
3.20828e-10
3.16794e-10
2.95623e-10
2.85006e-10
2.6999e-10
2.53517e-10
2.4422e-10
2.22027e-10
2.18653e-10
1.90824e-10
1.9348e-10
1.82295e-10
4.07521e-10
4.54728e-10
3.90224e-10
4.17814e-10
3.68308e-10
3.82676e-10
3.45203e-10
3.49216e-10
3.20821e-10
3.16799e-10
2.9562e-10
2.85007e-10
2.6999e-10
2.53515e-10
2.44223e-10
2.22021e-10
2.1865e-10
1.90797e-10
1.93021e-10
1.81917e-10
4.07604e-10
4.54624e-10
3.90099e-10
4.17817e-10
3.68291e-10
3.82688e-10
3.45193e-10
3.49223e-10
3.20816e-10
3.16803e-10
2.95617e-10
2.85008e-10
2.6999e-10
2.53513e-10
2.44226e-10
2.22017e-10
2.18649e-10
1.90761e-10
1.92829e-10
1.81786e-10
4.07917e-10
4.54787e-10
3.89974e-10
4.17818e-10
3.68278e-10
3.82696e-10
3.45186e-10
3.49229e-10
3.20811e-10
3.16806e-10
2.95616e-10
2.85009e-10
2.69991e-10
2.53512e-10
2.44229e-10
2.22013e-10
2.18648e-10
1.90721e-10
1.92849e-10
1.81848e-10
4.0839e-10
4.55138e-10
3.89847e-10
4.17817e-10
3.68266e-10
3.82703e-10
3.4518e-10
3.49233e-10
3.20808e-10
3.16808e-10
2.95614e-10
2.8501e-10
2.69991e-10
2.53511e-10
2.4423e-10
2.2201e-10
2.18649e-10
1.90681e-10
1.93048e-10
1.82069e-10
4.08947e-10
4.55594e-10
3.89716e-10
4.17814e-10
3.68257e-10
3.82709e-10
3.45176e-10
3.49237e-10
3.20805e-10
3.1681e-10
2.95613e-10
2.8501e-10
2.69991e-10
2.5351e-10
2.44232e-10
2.22008e-10
2.1865e-10
1.90642e-10
1.93382e-10
1.82406e-10
4.09511e-10
4.56074e-10
3.89581e-10
4.17809e-10
3.6825e-10
3.82712e-10
3.45173e-10
3.49239e-10
3.20804e-10
3.16811e-10
2.95612e-10
2.8501e-10
2.69991e-10
2.5351e-10
2.44233e-10
2.22007e-10
2.18651e-10
1.90609e-10
1.93801e-10
1.82807e-10
4.10007e-10
4.56503e-10
3.89442e-10
4.17799e-10
3.68245e-10
3.82713e-10
3.45171e-10
3.4924e-10
3.20803e-10
3.16812e-10
2.95612e-10
2.8501e-10
2.69991e-10
2.53509e-10
2.44234e-10
2.22006e-10
2.18652e-10
1.90583e-10
1.94249e-10
1.83217e-10
4.10376e-10
4.56817e-10
3.89302e-10
4.17785e-10
3.68242e-10
3.82713e-10
3.45172e-10
3.4924e-10
3.20803e-10
3.16811e-10
2.95612e-10
2.8501e-10
2.69991e-10
2.53509e-10
2.44234e-10
2.22007e-10
2.18651e-10
1.90566e-10
1.94672e-10
1.83584e-10
4.1057e-10
4.56968e-10
3.89163e-10
4.17767e-10
3.68241e-10
3.8271e-10
3.45173e-10
3.49239e-10
3.20804e-10
3.1681e-10
2.95612e-10
2.8501e-10
2.69991e-10
2.5351e-10
2.44234e-10
2.22008e-10
2.18649e-10
1.90558e-10
1.9502e-10
1.8386e-10
4.10559e-10
4.56928e-10
3.89028e-10
4.17745e-10
3.68243e-10
3.82706e-10
3.45177e-10
3.49236e-10
3.20806e-10
3.16809e-10
2.95613e-10
2.85009e-10
2.69991e-10
2.5351e-10
2.44234e-10
2.2201e-10
2.18645e-10
1.90558e-10
1.95252e-10
1.84008e-10
4.10334e-10
4.56691e-10
3.88902e-10
4.17718e-10
3.68246e-10
3.82699e-10
3.45181e-10
3.49232e-10
3.20809e-10
3.16807e-10
2.95615e-10
2.85009e-10
2.69991e-10
2.53511e-10
2.44233e-10
2.22013e-10
2.18638e-10
1.90566e-10
1.95337e-10
1.84e-10
4.09908e-10
4.56271e-10
3.88788e-10
4.17687e-10
3.68252e-10
3.82691e-10
3.45187e-10
3.49228e-10
3.20813e-10
3.16804e-10
2.95616e-10
2.85008e-10
2.69991e-10
2.53512e-10
2.44231e-10
2.22016e-10
2.18629e-10
1.9058e-10
1.95258e-10
1.83822e-10
4.0932e-10
4.55713e-10
3.8869e-10
4.17654e-10
3.6826e-10
3.82681e-10
3.45195e-10
3.49222e-10
3.20817e-10
3.16801e-10
2.95618e-10
2.85007e-10
2.69991e-10
2.53513e-10
2.44229e-10
2.22019e-10
2.18618e-10
1.90599e-10
1.95021e-10
1.83481e-10
4.0862e-10
4.5508e-10
3.88613e-10
4.17617e-10
3.68271e-10
3.82669e-10
3.45204e-10
3.49214e-10
3.20823e-10
3.16797e-10
2.95621e-10
2.85006e-10
2.69991e-10
2.53515e-10
2.44226e-10
2.22023e-10
2.18604e-10
1.90619e-10
1.94643e-10
1.82993e-10
4.07911e-10
4.54487e-10
3.88558e-10
4.17578e-10
3.68286e-10
3.82653e-10
3.45216e-10
3.49205e-10
3.2083e-10
3.16792e-10
2.95624e-10
2.85004e-10
2.6999e-10
2.53517e-10
2.44223e-10
2.22028e-10
2.18587e-10
1.90639e-10
1.9417e-10
1.82399e-10
4.07364e-10
4.54046e-10
3.88519e-10
4.17542e-10
3.68299e-10
3.8264e-10
3.45226e-10
3.49197e-10
3.20836e-10
3.16788e-10
2.95627e-10
2.85003e-10
2.6999e-10
2.53518e-10
2.44219e-10
2.22031e-10
2.18569e-10
1.90657e-10
1.93633e-10
1.81759e-10
4.07264e-10
4.53852e-10
3.88467e-10
4.17535e-10
3.68291e-10
3.82644e-10
3.45222e-10
3.492e-10
3.20833e-10
3.16789e-10
2.95626e-10
2.85003e-10
2.6999e-10
2.53517e-10
2.4422e-10
2.22028e-10
2.1856e-10
1.90664e-10
1.93129e-10
1.81265e-10
)
;

boundaryField
{
    top
    {
        type            zeroGradient;
    }
    bottom
    {
        type            zeroGradient;
    }
    inlet
    {
        type            fixedValue;
        value           uniform 0;
    }
    outlet
    {
        type            fixedValue;
        value           uniform 0;
    }
    frontAndBack
    {
        type            empty;
    }
}


// ************************************************************************* //
