/*--------------------------------*- C++ -*----------------------------------*\
| =========                 |                                                 |
| \\      /  F ield         | OpenFOAM: The Open Source CFD Toolbox           |
|  \\    /   O peration     | Version:  4.1                                   |
|   \\  /    A nd           | Web:      www.OpenFOAM.org                      |
|    \\/     M anipulation  |                                                 |
\*---------------------------------------------------------------------------*/
FoamFile
{
    version     2.0;
    format      ascii;
    class       surfaceScalarField;
    location    "2.9";
    object      phi;
}
// * * * * * * * * * * * * * * * * * * * * * * * * * * * * * * * * * * * * * //

dimensions      [0 3 -1 0 0 0 0];

internalField   nonuniform List<scalar> 
760
(
1.25e-06
-6.37406e-16
1.25e-06
-4.37927e-16
1.25e-06
5.50389e-18
1.25e-06
-3.10359e-17
1.25e-06
2.06877e-17
1.25e-06
-1.74965e-17
1.25e-06
1.38361e-17
1.25e-06
-1.08209e-17
1.25e-06
8.11603e-18
1.25e-06
-5.7009e-18
1.25e-06
3.4908e-18
1.25e-06
-1.40863e-18
1.25e-06
-5.62185e-19
1.25e-06
2.47388e-18
1.25e-06
-4.4794e-18
1.25e-06
6.11046e-18
1.25e-06
-1.16057e-17
1.25e-06
1.63481e-17
1.25e-06
-2.62394e-16
-3.86654e-16
3.75e-06
-1.92661e-15
3.75e-06
-1.53229e-15
3.75e-06
-3.16858e-17
3.75e-06
-7.55152e-17
3.75e-06
4.33685e-17
3.75e-06
-3.79203e-17
3.75e-06
2.97131e-17
3.75e-06
-2.32637e-17
3.75e-06
1.7416e-17
3.75e-06
-1.22158e-17
3.75e-06
7.45293e-18
3.75e-06
-2.9388e-18
3.75e-06
-1.31716e-18
3.75e-06
5.42366e-18
3.75e-06
-9.88513e-18
3.75e-06
1.2808e-17
3.75e-06
-3.04759e-17
3.75e-06
4.31228e-17
3.75e-06
-9.66361e-16
-1.24851e-15
6.25e-06
-3.48563e-15
6.25e-06
-3.02111e-15
6.25e-06
-1.17845e-16
6.25e-06
-1.15834e-16
6.25e-06
5.58106e-17
6.25e-06
-5.10044e-17
6.25e-06
3.94936e-17
6.25e-06
-3.09675e-17
6.25e-06
2.31277e-17
6.25e-06
-1.6195e-17
6.25e-06
9.83554e-18
6.25e-06
-3.76368e-18
6.25e-06
-1.93117e-18
6.25e-06
7.38937e-18
6.25e-06
-1.35856e-17
6.25e-06
1.6508e-17
6.25e-06
-5.0248e-17
6.25e-06
7.22962e-17
6.25e-06
-1.98453e-15
-2.38717e-15
8.75e-06
-5.07924e-15
8.75e-06
-4.64744e-15
8.75e-06
-2.36725e-16
8.75e-06
-1.50294e-16
8.75e-06
5.92897e-17
8.75e-06
-5.74334e-17
8.75e-06
4.38049e-17
8.75e-06
-3.44156e-17
8.75e-06
2.56265e-17
8.75e-06
-1.79167e-17
8.75e-06
1.08247e-17
8.75e-06
-3.98671e-18
8.75e-06
-2.37748e-18
8.75e-06
8.42915e-18
8.75e-06
-1.56749e-17
8.75e-06
1.75696e-17
8.75e-06
-6.95946e-17
8.75e-06
1.01882e-16
8.75e-06
-3.1667e-15
-3.65275e-15
1.125e-05
-6.50473e-15
1.125e-05
-6.185e-15
1.125e-05
-3.70909e-16
1.125e-05
-1.77081e-16
1.125e-05
5.52087e-17
1.125e-05
-5.79585e-17
1.125e-05
4.33446e-17
1.125e-05
-3.41402e-17
1.125e-05
2.53279e-17
1.125e-05
-1.76783e-17
1.125e-05
1.06124e-17
1.125e-05
-3.71729e-18
1.125e-05
-2.63808e-18
1.125e-05
8.61927e-18
1.125e-05
-1.6271e-17
1.125e-05
1.6388e-17
1.125e-05
-8.71067e-17
1.125e-05
1.29977e-16
1.125e-05
-4.36861e-15
-4.90183e-15
1.375e-05
-7.60672e-15
1.375e-05
-7.45427e-15
1.375e-05
-5.03282e-16
1.375e-05
-1.94579e-16
1.375e-05
4.5067e-17
1.375e-05
-5.34042e-17
1.375e-05
3.88574e-17
1.375e-05
-3.0723e-17
1.375e-05
2.26691e-17
1.375e-05
-1.57951e-17
1.375e-05
9.40352e-18
1.375e-05
-3.05748e-18
1.375e-05
-2.7041e-18
1.375e-05
8.05941e-18
1.375e-05
-1.55361e-17
1.375e-05
1.33751e-17
1.375e-05
-1.01444e-16
1.375e-05
1.54599e-16
1.375e-05
-5.45996e-15
-6.00541e-15
1.625e-05
-8.27799e-15
1.625e-05
-8.32458e-15
1.625e-05
-6.18526e-16
1.625e-05
-2.01589e-16
1.625e-05
3.04122e-17
1.625e-05
-4.46662e-17
1.625e-05
3.1137e-17
1.625e-05
-2.47734e-17
1.625e-05
1.81226e-17
1.625e-05
-1.25946e-17
1.625e-05
7.40187e-18
1.625e-05
-2.11474e-18
1.625e-05
-2.58284e-18
1.625e-05
6.86398e-18
1.625e-05
-1.3651e-17
1.625e-05
8.96517e-18
1.625e-05
-1.11468e-16
1.625e-05
1.73716e-16
1.625e-05
-6.33334e-15
-6.85799e-15
1.875e-05
-8.46505e-15
1.875e-05
-8.72102e-15
1.875e-05
-7.04388e-16
1.875e-05
-1.97569e-16
1.875e-05
1.27812e-17
1.875e-05
-3.26896e-17
1.875e-05
2.10092e-17
1.875e-05
-1.69323e-17
1.875e-05
1.21722e-17
1.875e-05
-8.42404e-18
1.875e-05
4.83825e-18
1.875e-05
-9.8883e-19
1.875e-05
-2.29119e-18
1.875e-05
5.16595e-18
1.875e-05
-1.08337e-17
1.875e-05
3.58234e-18
1.875e-05
-1.16348e-16
1.875e-05
1.85434e-16
1.875e-05
-6.91008e-15
-7.3836e-15
2.125e-05
-8.16564e-15
2.125e-05
-8.62302e-15
2.125e-05
-7.52794e-16
2.125e-05
-1.82733e-16
2.125e-05
-6.33731e-18
2.125e-05
-1.84787e-17
2.125e-05
9.3299e-18
2.125e-05
-7.85459e-18
2.125e-05
5.30905e-18
2.125e-05
-3.62289e-18
2.125e-05
1.91223e-18
2.125e-05
2.29979e-19
2.125e-05
-1.85893e-18
2.125e-05
3.11703e-18
2.125e-05
-7.32013e-18
2.125e-05
-2.33298e-18
2.125e-05
-1.15651e-16
2.125e-05
1.88225e-16
2.125e-05
-7.14433e-15
-7.54013e-15
2.375e-05
-7.42616e-15
2.375e-05
-8.06237e-15
2.375e-05
-7.6035e-16
2.375e-05
-1.5817e-16
2.375e-05
-2.55256e-17
2.375e-05
-3.04812e-18
2.375e-05
-3.07067e-18
2.375e-05
1.80171e-18
2.375e-05
-1.95271e-18
2.375e-05
1.44007e-18
2.375e-05
-1.1708e-18
2.375e-05
1.4665e-18
2.375e-05
-1.32121e-18
2.375e-05
8.50966e-19
2.375e-05
-3.36766e-18
2.375e-05
-8.34132e-18
2.375e-05
-1.0938e-16
2.375e-05
1.81251e-16
2.375e-05
-7.02449e-15
-7.32105e-15
2.625e-05
-6.33444e-15
2.625e-05
-7.11627e-15
2.625e-05
-7.28494e-16
2.625e-05
-1.2582e-16
2.625e-05
-4.34699e-17
2.625e-05
1.25269e-17
2.625e-05
-1.53262e-17
2.625e-05
1.13687e-17
2.625e-05
-9.13055e-18
2.625e-05
6.44174e-18
2.625e-05
-4.20142e-18
2.625e-05
2.6372e-18
2.625e-05
-7.24806e-19
2.625e-05
-1.45858e-18
2.625e-05
7.39243e-19
2.625e-05
-1.40276e-17
2.625e-05
-9.80119e-17
2.625e-05
1.64639e-16
2.625e-05
-6.57236e-15
-6.75478e-15
2.875e-05
-5.01014e-15
2.875e-05
-5.89741e-15
2.875e-05
-6.62984e-16
2.875e-05
-8.84168e-17
2.875e-05
-5.89842e-17
2.875e-05
2.7167e-17
2.875e-05
-2.6588e-17
2.875e-05
2.02019e-17
2.875e-05
-1.5739e-17
2.875e-05
1.10373e-17
2.875e-05
-6.96912e-18
2.875e-05
3.66969e-18
2.875e-05
-1.19749e-19
2.875e-05
-3.64742e-18
2.875e-05
4.69574e-18
2.875e-05
-1.89834e-17
2.875e-05
-8.24844e-17
2.875e-05
1.39628e-16
2.875e-05
-5.83957e-15
-5.90113e-15
3.125e-05
-3.59339e-15
3.125e-05
-4.54195e-15
3.125e-05
-5.72842e-16
3.125e-05
-4.92819e-17
3.125e-05
-7.09991e-17
3.125e-05
3.97837e-17
3.125e-05
-3.60558e-17
3.125e-05
2.76628e-17
3.125e-05
-2.12712e-17
3.125e-05
1.48704e-17
3.125e-05
-9.28175e-18
3.125e-05
4.50618e-18
3.125e-05
4.42581e-19
3.125e-05
-5.54853e-18
3.125e-05
8.22216e-18
3.125e-05
-2.28267e-17
3.125e-05
-6.41361e-17
3.125e-05
1.08594e-16
3.125e-05
-4.90237e-15
-4.84602e-15
3.375e-05
-2.22924e-15
3.375e-05
-3.1928e-15
3.375e-05
-4.69008e-16
3.375e-05
-1.21019e-17
3.375e-05
-7.85816e-17
3.375e-05
4.93642e-17
3.375e-05
-4.29404e-17
3.375e-05
3.31194e-17
3.375e-05
-2.52887e-17
3.375e-05
1.76529e-17
3.375e-05
-1.09448e-17
3.375e-05
5.04379e-18
3.375e-05
9.23427e-19
3.375e-05
-6.99555e-18
3.375e-05
1.10089e-17
3.375e-05
-2.52183e-17
3.375e-05
-4.46044e-17
3.375e-05
7.48557e-17
3.375e-05
-3.85319e-15
-3.69261e-15
3.625e-05
-1.05531e-15
3.625e-05
-1.98583e-15
3.625e-05
-3.62419e-16
3.625e-05
1.93315e-17
3.625e-05
-8.0852e-17
3.625e-05
5.48412e-17
3.625e-05
-4.64914e-17
3.625e-05
3.59844e-17
3.625e-05
-2.73557e-17
3.625e-05
1.90903e-17
3.625e-05
-1.17933e-17
3.625e-05
5.25909e-18
3.625e-05
1.26254e-18
3.625e-05
-7.82206e-18
3.625e-05
1.27699e-17
3.625e-05
-2.58563e-17
3.625e-05
-2.57597e-17
3.625e-05
4.23433e-17
3.625e-05
-2.79302e-15
-2.55317e-15
3.875e-05
-1.80024e-16
3.875e-05
-1.02691e-15
3.875e-05
-2.62456e-16
3.875e-05
4.14347e-17
3.875e-05
-7.70403e-17
3.875e-05
5.52614e-17
3.875e-05
-4.60089e-17
3.875e-05
3.56891e-17
3.875e-05
-2.70455e-17
3.875e-05
1.89018e-17
3.875e-05
-1.16393e-17
3.875e-05
5.06766e-18
3.875e-05
1.41183e-18
3.875e-05
-7.89723e-18
3.875e-05
1.32122e-17
3.875e-05
-2.44614e-17
3.875e-05
-9.56438e-18
3.875e-05
1.50852e-17
3.875e-05
-1.81794e-15
-1.53482e-15
4.125e-05
3.24143e-16
4.125e-05
-3.83503e-16
4.125e-05
-1.74957e-16
4.125e-05
5.10249e-17
4.125e-05
-6.64158e-17
4.125e-05
4.97044e-17
4.125e-05
-4.08216e-17
4.125e-05
3.17189e-17
4.125e-05
-2.39953e-17
4.125e-05
1.67951e-17
4.125e-05
-1.03251e-17
4.125e-05
4.42858e-18
4.125e-05
1.34348e-18
4.125e-05
-7.09194e-18
4.125e-05
1.20962e-17
4.125e-05
-2.08722e-17
4.125e-05
2.14394e-18
4.125e-05
-3.55942e-18
4.125e-05
-1.01314e-15
-7.32662e-16
4.375e-05
4.51555e-16
4.375e-05
-5.3339e-17
4.375e-05
-1.01561e-16
4.375e-05
4.56687e-17
4.375e-05
-4.82863e-17
4.375e-05
3.73154e-17
4.375e-05
-3.03211e-17
4.375e-05
2.35976e-17
4.375e-05
-1.78362e-17
4.375e-05
1.24953e-17
4.375e-05
-7.66785e-18
4.375e-05
3.24953e-18
4.375e-05
1.03872e-18
4.375e-05
-5.28194e-18
4.375e-05
9.17792e-18
4.375e-05
-1.49619e-17
4.375e-05
7.67045e-18
4.375e-05
-1.13268e-17
4.375e-05
-4.32502e-16
-2.08541e-16
4.625e-05
2.53639e-16
4.625e-05
2.65527e-17
4.625e-05
-3.89234e-17
4.625e-05
2.35532e-17
4.625e-05
-2.1915e-17
4.625e-05
1.73486e-17
4.625e-05
-1.40013e-17
4.625e-05
1.09072e-17
4.625e-05
-8.22172e-18
4.625e-05
5.76732e-18
4.625e-05
-3.54423e-18
4.625e-05
1.49218e-18
4.625e-05
4.87544e-19
4.625e-05
-2.44621e-18
4.625e-05
4.29161e-18
4.625e-05
-6.67036e-18
4.625e-05
5.60242e-18
4.625e-05
-7.87942e-18
4.625e-05
-1.01246e-16
7.08104e-18
4.875e-05
4.875e-05
4.875e-05
4.875e-05
4.875e-05
4.875e-05
4.875e-05
4.875e-05
4.875e-05
4.875e-05
4.875e-05
4.875e-05
4.875e-05
4.875e-05
4.875e-05
4.875e-05
4.875e-05
4.875e-05
4.875e-05
)
;

boundaryField
{
    top
    {
        type            calculated;
        value           uniform 0;
    }
    bottom
    {
        type            calculated;
        value           uniform 0;
    }
    inlet
    {
        type            calculated;
        value           nonuniform List<scalar> 
20
(
-1.25e-06
-3.75e-06
-6.25e-06
-8.75e-06
-1.125e-05
-1.375e-05
-1.625e-05
-1.875e-05
-2.125e-05
-2.375e-05
-2.625e-05
-2.875e-05
-3.125e-05
-3.375e-05
-3.625e-05
-3.875e-05
-4.125e-05
-4.375e-05
-4.625e-05
-4.875e-05
)
;
    }
    outlet
    {
        type            calculated;
        value           nonuniform List<scalar> 
20
(
1.25e-06
3.75e-06
6.25e-06
8.75e-06
1.125e-05
1.375e-05
1.625e-05
1.875e-05
2.125e-05
2.375e-05
2.625e-05
2.875e-05
3.125e-05
3.375e-05
3.625e-05
3.875e-05
4.125e-05
4.375e-05
4.625e-05
4.875e-05
)
;
    }
    frontAndBack
    {
        type            empty;
        value           nonuniform 0();
    }
}


// ************************************************************************* //
