/*--------------------------------*- C++ -*----------------------------------*\
| =========                 |                                                 |
| \\      /  F ield         | OpenFOAM: The Open Source CFD Toolbox           |
|  \\    /   O peration     | Version:  4.1                                   |
|   \\  /    A nd           | Web:      www.OpenFOAM.org                      |
|    \\/     M anipulation  |                                                 |
\*---------------------------------------------------------------------------*/
FoamFile
{
    version     2.0;
    format      ascii;
    class       volVectorField;
    location    "2.9";
    object      U;
}
// * * * * * * * * * * * * * * * * * * * * * * * * * * * * * * * * * * * * * //

dimensions      [0 1 -1 0 0 0 0];

internalField   nonuniform List<vector> 
400
(
(0.025 -2.834e-13 0)
(0.025 -1.76493e-13 0)
(0.025 6.54479e-15 0)
(0.025 -1.55018e-14 0)
(0.025 1.08946e-14 0)
(0.025 -9.11779e-15 0)
(0.025 7.23364e-15 0)
(0.025 -5.65499e-15 0)
(0.025 4.24457e-15 0)
(0.025 -2.98317e-15 0)
(0.025 1.82929e-15 0)
(0.025 -7.44835e-16 0)
(0.025 -2.83595e-16 0)
(0.025 1.28279e-15 0)
(0.025 -2.31774e-15 0)
(0.025 3.21049e-15 0)
(0.025 -5.61484e-15 0)
(0.025 7.24516e-15 0)
(0.025 -9.94972e-14 0)
(0.025 -1.62288e-13 0)
(0.075 -1.19442e-12 0)
(0.075 -8.81193e-13 0)
(0.075 -2.25993e-15 0)
(0.075 -5.2477e-14 0)
(0.075 3.31483e-14 0)
(0.075 -2.83588e-14 0)
(0.075 2.2352e-14 0)
(0.075 -1.74879e-14 0)
(0.075 1.3107e-14 0)
(0.075 -9.20108e-15 0)
(0.075 5.62617e-15 0)
(0.075 -2.25008e-15 0)
(0.075 -9.40866e-16 0)
(0.075 4.02967e-15 0)
(0.075 -7.3133e-15 0)
(0.075 9.78729e-15 0)
(0.075 -2.02332e-14 0)
(0.075 2.91004e-14 0)
(0.075 -5.37556e-13 0)
(0.075 -7.42596e-13 0)
(0.125 -2.65109e-12 0)
(0.125 -2.20073e-12 0)
(0.125 -6.52241e-14 0)
(0.125 -9.59792e-14 0)
(0.125 5.12471e-14 0)
(0.125 -4.5602e-14 0)
(0.125 3.55632e-14 0)
(0.125 -2.78604e-14 0)
(0.125 2.08371e-14 0)
(0.125 -1.46044e-14 0)
(0.125 8.89319e-15 0)
(0.125 -3.46469e-15 0)
(0.125 -1.64345e-15 0)
(0.125 6.55873e-15 0)
(0.125 -1.19954e-14 0)
(0.125 1.51384e-14 0)
(0.125 -3.99962e-14 0)
(0.125 5.64575e-14 0)
(0.125 -1.41122e-12 0)
(0.125 -1.75816e-12 0)
(0.175 -4.29133e-12 0)
(0.175 -3.81962e-12 0)
(0.175 -1.70592e-13 0)
(0.175 -1.34661e-13 0)
(0.175 5.9647e-14 0)
(0.175 -5.57972e-14 0)
(0.175 4.29396e-14 0)
(0.175 -3.36962e-14 0)
(0.175 2.51344e-14 0)
(0.175 -1.75876e-14 0)
(0.175 1.0658e-14 0)
(0.175 -4.01439e-15 0)
(0.175 -2.1975e-15 0)
(0.175 8.13105e-15 0)
(0.175 -1.50181e-14 0)
(0.175 1.76555e-14 0)
(0.175 -6.01544e-14 0)
(0.175 8.70103e-14 0)
(0.175 -2.54847e-12 0)
(0.175 -3.00174e-12 0)
(0.225 -5.85219e-12 0)
(0.225 -5.45849e-12 0)
(0.225 -3.01918e-13 0)
(0.225 -1.6589e-13 0)
(0.225 5.90406e-14 0)
(0.225 -5.91372e-14 0)
(0.225 4.47307e-14 0)
(0.225 -3.51796e-14 0)
(0.225 2.61544e-14 0)
(0.225 -1.82712e-14 0)
(0.225 1.10075e-14 0)
(0.225 -3.96822e-15 0)
(0.225 -2.55695e-15 0)
(0.225 8.7337e-15 0)
(0.225 -1.63429e-14 0)
(0.225 1.75109e-14 0)
(0.225 -7.90059e-14 0)
(0.225 1.16336e-13 0)
(0.225 -3.77817e-12 0)
(0.225 -4.29696e-12 0)
(0.275 -7.14875e-12 0)
(0.275 -6.90147e-12 0)
(0.275 -4.39511e-13 0)
(0.275 -1.88308e-13 0)
(0.275 5.14768e-14 0)
(0.275 -5.68508e-14 0)
(0.275 4.20179e-14 0)
(0.275 -3.31486e-14 0)
(0.275 2.45349e-14 0)
(0.275 -1.71102e-14 0)
(0.275 1.02331e-14 0)
(0.275 -3.4723e-15 0)
(0.275 -2.71889e-15 0)
(0.275 8.51426e-15 0)
(0.275 -1.62173e-14 0)
(0.275 1.52881e-14 0)
(0.275 -9.5212e-14 0)
(0.275 1.43196e-13 0)
(0.275 -4.9547e-12 0)
(0.275 -5.50252e-12 0)
(0.325 -8.05501e-12 0)
(0.325 -7.99677e-12 0)
(0.325 -5.66907e-13 0)
(0.325 -2.00761e-13 0)
(0.325 3.86709e-14 0)
(0.325 -4.99578e-14 0)
(0.325 3.56982e-14 0)
(0.325 -2.82981e-14 0)
(0.325 2.08056e-14 0)
(0.325 -1.44791e-14 0)
(0.325 8.57159e-15 0)
(0.325 -2.64435e-15 0)
(0.325 -2.68823e-15 0)
(0.325 7.60336e-15 0)
(0.325 -1.48532e-14 0)
(0.325 1.14636e-14 0)
(0.325 -1.07626e-13 0)
(0.325 1.65581e-13 0)
(0.325 -5.95991e-12 0)
(0.325 -6.50284e-12 0)
(0.375 -8.49119e-12 0)
(0.375 -8.64219e-12 0)
(0.375 -6.70106e-13 0)
(0.375 -2.02311e-13 0)
(0.375 2.21494e-14 0)
(0.375 -3.93602e-14 0)
(0.375 2.65672e-14 0)
(0.375 -2.12424e-14 0)
(0.375 1.54349e-14 0)
(0.375 -1.07077e-14 0)
(0.375 6.2363e-15 0)
(0.375 -1.58639e-15 0)
(0.375 -2.47672e-15 0)
(0.375 6.12321e-15 0)
(0.375 -1.24458e-14 0)
(0.375 6.45995e-15 0)
(0.375 -1.15236e-13 0)
(0.375 1.81489e-13 0)
(0.375 -6.70032e-12 0)
(0.375 -7.2066e-12 0)
(0.425 -8.42976e-12 0)
(0.425 -8.79035e-12 0)
(0.425 -7.38764e-13 0)
(0.425 -1.92735e-13 0)
(0.425 3.41084e-15 0)
(0.425 -2.6015e-14 0)
(0.425 1.54528e-14 0)
(0.425 -1.26198e-14 0)
(0.425 8.90495e-15 0)
(0.425 -6.13559e-15 0)
(0.425 3.43893e-15 0)
(0.425 -3.92729e-16 0)
(0.425 -2.10595e-15 0)
(0.425 4.2128e-15 0)
(0.425 -9.21867e-15 0)
(0.425 7.04447e-16 0)
(0.425 -1.17383e-13 0)
(0.425 1.89109e-13 0)
(0.425 -7.11295e-12 0)
(0.425 -7.55381e-12 0)
(0.475 -7.89382e-12 0)
(0.475 -8.44777e-12 0)
(0.475 -7.67043e-13 0)
(0.475 -1.72667e-13 0)
(0.475 -1.60853e-14 0)
(0.475 -1.09324e-14 0)
(0.475 3.19938e-15 0)
(0.475 -3.08762e-15 0)
(0.475 1.71803e-15 0)
(0.475 -1.11688e-15 0)
(0.475 3.8238e-16 0)
(0.475 8.55047e-16 0)
(0.475 -1.61079e-15 0)
(0.475 2.0161e-15 0)
(0.475 -5.41741e-15 0)
(0.475 -5.36318e-15 0)
(0.475 -1.13841e-13 0)
(0.475 1.87176e-13 0)
(0.475 -7.16891e-12 0)
(0.475 -7.51989e-12 0)
(0.525 -6.9526e-12 0)
(0.525 -7.67105e-12 0)
(0.525 -7.54002e-13 0)
(0.525 -1.43635e-13 0)
(0.525 -3.4966e-14 0)
(0.525 4.83727e-15 0)
(0.525 -9.3394e-15 0)
(0.525 6.68807e-15 0)
(0.525 -5.62606e-15 0)
(0.525 4.00218e-15 0)
(0.525 -2.72619e-15 0)
(0.525 2.07745e-15 0)
(0.525 -1.0323e-15 0)
(0.525 -3.12901e-16 0)
(0.525 -1.31522e-15 0)
(0.525 -1.13133e-14 0)
(0.525 -1.04849e-13 0)
(0.525 1.75275e-13 0)
(0.525 -6.87385e-12 0)
(0.525 -7.11633e-12 0)
(0.575 -5.71247e-12 0)
(0.575 -6.55785e-12 0)
(0.575 -7.03425e-13 0)
(0.575 -1.08009e-13 0)
(0.575 -5.19771e-14 0)
(0.575 2.02134e-14 0)
(0.575 -2.13058e-14 0)
(0.575 1.60503e-14 0)
(0.575 -1.26397e-14 0)
(0.575 8.88232e-15 0)
(0.575 -5.67489e-15 0)
(0.575 3.19746e-15 0)
(0.575 -4.18104e-16 0)
(0.575 -2.60377e-15 0)
(0.575 2.78998e-15 0)
(0.575 -1.67314e-14 0)
(0.575 -9.11216e-14 0)
(0.575 1.54056e-13 0)
(0.575 -6.26559e-12 0)
(0.575 -6.38834e-12 0)
(0.625 -4.30677e-12 0)
(0.625 -5.23624e-12 0)
(0.625 -6.23011e-13 0)
(0.625 -6.88653e-14 0)
(0.625 -6.59909e-14 0)
(0.625 3.4106e-14 0)
(0.625 -3.1868e-14 0)
(0.625 2.43524e-14 0)
(0.625 -1.88259e-14 0)
(0.625 1.31774e-14 0)
(0.625 -8.26265e-15 0)
(0.625 4.14807e-15 0)
(0.625 1.77189e-16 0)
(0.625 -4.69137e-15 0)
(0.625 6.60694e-15 0)
(0.625 -2.12208e-14 0)
(0.625 -7.38146e-14 0)
(0.625 1.25343e-13 0)
(0.625 -5.40981e-12 0)
(0.625 -5.4106e-12 0)
(0.675 -2.88146e-12 0)
(0.675 -3.84948e-12 0)
(0.675 -5.23162e-13 0)
(0.675 -2.97739e-14 0)
(0.675 -7.60103e-14 0)
(0.675 4.54616e-14 0)
(0.675 -4.02337e-14 0)
(0.675 3.09622e-14 0)
(0.675 -2.37122e-14 0)
(0.675 1.65603e-14 0)
(0.675 -1.02959e-14 0)
(0.675 4.85105e-15 0)
(0.675 7.12385e-16 0)
(0.675 -6.40567e-15 0)
(0.675 9.83726e-15 0)
(0.675 -2.44196e-14 0)
(0.675 -5.44414e-14 0)
(0.675 9.20493e-14 0)
(0.675 -4.39283e-12 0)
(0.675 -4.27974e-12 0)
(0.725 -1.58201e-12 0)
(0.725 -2.5417e-12 0)
(0.725 -4.15306e-13 0)
(0.725 5.48642e-15 0)
(0.725 -8.11598e-14 0)
(0.725 5.3257e-14 0)
(0.725 -4.5647e-14 0)
(0.725 3.52775e-14 0)
(0.725 -2.68679e-14 0)
(0.725 1.87487e-14 0)
(0.725 -1.1598e-14 0)
(0.725 5.24376e-15 0)
(0.725 1.13401e-15 0)
(0.725 -7.58257e-15 0)
(0.725 1.21865e-14 0)
(0.725 -2.6011e-14 0)
(0.725 -3.47747e-14 0)
(0.725 5.78994e-14 0)
(0.725 -3.31411e-12 0)
(0.725 -3.10627e-12 0)
(0.775 -5.34882e-13 0)
(0.775 -1.43785e-12 0)
(0.775 -3.1011e-13 0)
(0.775 3.31918e-14 0)
(0.775 -8.06445e-14 0)
(0.775 5.64983e-14 0)
(0.775 -4.73964e-14 0)
(0.775 3.67319e-14 0)
(0.775 -2.78714e-14 0)
(0.775 1.94632e-14 0)
(0.775 -1.20002e-14 0)
(0.775 5.27493e-15 0)
(0.775 1.38983e-15 0)
(0.775 -8.07514e-15 0)
(0.775 1.33702e-14 0)
(0.775 -2.57101e-14 0)
(0.775 -1.67509e-14 0)
(0.775 2.70148e-14 0)
(0.775 -2.27438e-12 0)
(0.775 -2.00218e-12 0)
(0.825 1.61873e-13 0)
(0.825 -6.30356e-13 0)
(0.825 -2.15151e-13 0)
(0.825 4.97101e-14 0)
(0.825 -7.35196e-14 0)
(0.825 5.4091e-14 0)
(0.825 -4.46691e-14 0)
(0.825 3.4686e-14 0)
(0.825 -2.62561e-14 0)
(0.825 1.83621e-14 0)
(0.825 -1.12933e-14 0)
(0.825 4.86906e-15 0)
(0.825 1.4367e-15 0)
(0.825 -7.72944e-15 0)
(0.825 1.30784e-14 0)
(0.825 -2.32293e-14 0)
(0.825 -2.33925e-15 0)
(0.825 3.37592e-15 0)
(0.825 -1.36691e-12 0)
(0.825 -1.07242e-12 0)
(0.875 4.64846e-13 0)
(0.875 -1.50783e-13 0)
(0.875 -1.33773e-13 0)
(0.875 5.13945e-14 0)
(0.875 -5.8564e-14 0)
(0.875 4.46964e-14 0)
(0.875 -3.6472e-14 0)
(0.875 2.8366e-14 0)
(0.875 -2.14423e-14 0)
(0.875 1.50157e-14 0)
(0.875 -9.22149e-15 0)
(0.875 3.92421e-15 0)
(0.875 1.23631e-15 0)
(0.875 -6.3565e-15 0)
(0.875 1.09561e-14 0)
(0.875 -1.82816e-14 0)
(0.875 6.35571e-15 0)
(0.875 -1.01344e-14 0)
(0.875 -6.63384e-13 0)
(0.875 -4.0041e-13 0)
(0.925 4.02493e-13 0)
(0.925 3.24694e-14 0)
(0.925 -6.57858e-14 0)
(0.925 3.70054e-14 0)
(0.925 -3.56912e-14 0)
(0.925 2.80454e-14 0)
(0.925 -2.26801e-14 0)
(0.925 1.76624e-14 0)
(0.925 -1.33331e-14 0)
(0.925 9.3475e-15 0)
(0.925 -5.73675e-15 0)
(0.925 2.41897e-15 0)
(0.925 7.89939e-16 0)
(0.925 -3.96227e-15 0)
(0.925 6.92832e-15 0)
(0.925 -1.09705e-14 0)
(0.925 7.96593e-15 0)
(0.925 -1.13937e-14 0)
(0.925 -2.13853e-13 0)
(0.925 -4.06915e-14 0)
(0.975 1.50253e-13 0)
(0.975 3.35334e-14 0)
(0.975 -1.81401e-14 0)
(0.975 1.27805e-14 0)
(0.975 -1.135e-14 0)
(0.975 9.06349e-15 0)
(0.975 -7.29016e-15 0)
(0.975 5.68357e-15 0)
(0.975 -4.28207e-15 0)
(0.975 3.00526e-15 0)
(0.975 -1.84695e-15 0)
(0.975 7.75166e-16 0)
(0.975 2.56897e-16 0)
(0.975 -1.27362e-15 0)
(0.975 2.24664e-15 0)
(0.975 -3.44646e-15 0)
(0.975 3.31514e-15 0)
(0.975 -5.16991e-15 0)
(0.975 -2.7941e-14 0)
(0.975 3.00888e-14 0)
)
;

boundaryField
{
    top
    {
        type            fixedValue;
        value           uniform (1 0 0);
    }
    bottom
    {
        type            fixedValue;
        value           uniform (0 0 0);
    }
    inlet
    {
        type            zeroGradient;
    }
    outlet
    {
        type            zeroGradient;
    }
    frontAndBack
    {
        type            empty;
    }
}


// ************************************************************************* //
