/*--------------------------------*- C++ -*----------------------------------*\
| =========                 |                                                 |
| \\      /  F ield         | OpenFOAM: The Open Source CFD Toolbox           |
|  \\    /   O peration     | Version:  4.1                                   |
|   \\  /    A nd           | Web:      www.OpenFOAM.org                      |
|    \\/     M anipulation  |                                                 |
\*---------------------------------------------------------------------------*/
FoamFile
{
    version     2.0;
    format      ascii;
    class       surfaceScalarField;
    location    "2";
    object      phi;
}
// * * * * * * * * * * * * * * * * * * * * * * * * * * * * * * * * * * * * * //

dimensions      [0 3 -1 0 0 0 0];

internalField   nonuniform List<scalar> 
760
(
-1.9164e-05
2.13828e-12
-1.9164e-05
8.61757e-13
-1.9164e-05
1.88399e-12
-1.9164e-05
2.58046e-12
-1.9164e-05
2.24714e-12
-1.9164e-05
2.62961e-12
-1.9164e-05
2.79892e-12
-1.9164e-05
2.72492e-12
-1.9164e-05
2.88704e-12
-1.9164e-05
2.62787e-12
-1.9164e-05
2.73374e-12
-1.9164e-05
2.17238e-12
-1.9164e-05
2.48703e-12
-1.9164e-05
1.59024e-12
-1.9164e-05
1.9944e-12
-1.9164e-05
8.30118e-13
-1.9164e-05
1.3474e-12
-1.9164e-05
2.38424e-13
-1.9164e-05
1.05494e-12
-1.07725e-12
-5.11592e-05
2.49099e-12
-5.11592e-05
6.78773e-13
-5.11592e-05
-1.11134e-12
-5.11592e-05
2.27069e-12
-5.11592e-05
-2.32413e-12
-5.11592e-05
1.21463e-12
-5.11592e-05
-2.36227e-12
-5.11592e-05
8.02589e-13
-5.11592e-05
-2.4505e-12
-5.11592e-05
3.96827e-13
-5.11592e-05
-2.1659e-12
-5.11592e-05
-3.51257e-13
-5.11592e-05
-1.41007e-12
-5.11592e-05
-9.94287e-13
-5.11592e-05
-6.37195e-13
-5.11592e-05
-1.71135e-12
-5.11592e-05
1.7393e-13
-5.11592e-05
-2.10129e-12
-5.11592e-05
1.52558e-12
-2.30954e-12
-7.68216e-05
2.26507e-12
-7.68216e-05
9.59128e-13
-7.68216e-05
-5.47089e-12
-7.68216e-05
1.99762e-12
-7.68216e-05
-8.58661e-12
-7.68216e-05
-1.75764e-13
-7.68216e-05
-9.41096e-12
-7.68216e-05
-1.08166e-12
-7.68216e-05
-9.61715e-12
-7.68216e-05
-1.83693e-12
-7.68216e-05
-8.62651e-12
-7.68216e-05
-2.93868e-12
-7.68216e-05
-6.48463e-12
-7.68216e-05
-3.71158e-12
-7.68216e-05
-3.96026e-12
-7.68216e-05
-4.45414e-12
-7.68216e-05
-1.11964e-12
-7.68216e-05
-4.86129e-12
-7.68216e-05
2.33314e-12
-3.17545e-12
-9.61512e-05
2.21922e-12
-9.61512e-05
1.984e-12
-9.61512e-05
-9.35285e-12
-9.61512e-05
2.16028e-12
-9.61512e-05
-1.41485e-11
-9.61512e-05
-1.02002e-12
-9.61512e-05
-1.56512e-11
-9.61512e-05
-2.39598e-12
-9.61512e-05
-1.58986e-11
-9.61512e-05
-3.54752e-12
-9.61512e-05
-1.42077e-11
-9.61512e-05
-5.058e-12
-9.61512e-05
-1.08033e-11
-9.61512e-05
-6.04879e-12
-9.61512e-05
-6.70142e-12
-9.61512e-05
-6.90321e-12
-9.61512e-05
-2.01648e-12
-9.61512e-05
-7.57194e-12
-9.61512e-05
3.39117e-12
-3.68247e-12
-0.000109148
2.39516e-12
-0.000109148
3.67429e-12
-0.000109148
-1.25104e-11
-0.000109148
2.83738e-12
-0.000109148
-1.85529e-11
-0.000109148
-1.17611e-12
-0.000109148
-2.05073e-11
-0.000109148
-2.96445e-12
-0.000109148
-2.06722e-11
-0.000109148
-4.53926e-12
-0.000109148
-1.83097e-11
-0.000109148
-6.50526e-12
-0.000109148
-1.38445e-11
-0.000109148
-7.80934e-12
-0.000109148
-8.46213e-12
-0.000109148
-8.87567e-12
-0.000109148
-2.28004e-12
-0.000109148
-1.00486e-11
-0.000109148
4.78939e-12
-3.8136e-12
-0.000115812
2.64516e-12
-0.000115812
5.709e-12
-0.000115812
-1.501e-11
-0.000115812
3.58911e-12
-0.000115812
-2.18773e-11
-0.000115812
-1.16957e-12
-0.000115812
-2.40842e-11
-0.000115812
-3.36942e-12
-0.000115812
-2.40633e-11
-0.000115812
-5.38878e-12
-0.000115812
-2.10797e-11
-0.000115812
-7.78526e-12
-0.000115812
-1.57706e-11
-0.000115812
-9.38742e-12
-0.000115812
-9.40967e-12
-0.000115812
-1.06167e-11
-0.000115812
-2.07595e-12
-0.000115812
-1.2355e-11
-0.000115812
6.33488e-12
-3.58645e-12
-0.000116143
2.84078e-12
-0.000116143
7.8054e-12
-0.000116143
-1.68804e-11
-0.000116143
4.13654e-12
-0.000116143
-2.41631e-11
-0.000116143
-1.31212e-12
-0.000116143
-2.64412e-11
-0.000116143
-3.94189e-12
-0.000116143
-2.61511e-11
-0.000116143
-6.40809e-12
-0.000116143
-2.2619e-11
-0.000116143
-9.15719e-12
-0.000116143
-1.66949e-11
-0.000116143
-1.09728e-11
-0.000116143
-9.663e-12
-0.000116143
-1.22319e-11
-0.000116143
-1.52062e-12
-0.000116143
-1.44725e-11
-0.000116143
7.85289e-12
-3.03658e-12
-0.000110142
2.87917e-12
-0.000110142
9.72218e-12
-0.000110142
-1.81292e-11
-0.000110142
4.32063e-12
-0.000110142
-2.5452e-11
-0.000110142
-1.75894e-12
-0.000110142
-2.76464e-11
-0.000110142
-4.83154e-12
-0.000110142
-2.70318e-11
-0.000110142
-7.72059e-12
-0.000110142
-2.30514e-11
-0.000110142
-1.07078e-11
-0.000110142
-1.67477e-11
-0.000110142
-1.26147e-11
-0.000110142
-9.35177e-12
-0.000110142
-1.37349e-11
-0.000110142
-7.30139e-13
-0.000110142
-1.63345e-11
-0.000110142
9.16433e-12
-2.22284e-12
-9.78072e-05
2.69084e-12
-9.78072e-05
1.12628e-11
-9.78072e-05
-1.87542e-11
-9.78072e-05
4.09375e-12
-9.78072e-05
-2.57954e-11
-9.78072e-05
-2.52266e-12
-9.78072e-05
-2.77846e-11
-9.78072e-05
-6.02348e-12
-9.78072e-05
-2.68257e-11
-9.78072e-05
-9.27949e-12
-9.78072e-05
-2.2525e-11
-9.78072e-05
-1.23701e-11
-9.78072e-05
-1.60773e-11
-9.78072e-05
-1.42375e-11
-9.78072e-05
-8.61434e-12
-9.78072e-05
-1.50596e-11
-9.78072e-05
1.80973e-13
-9.78072e-05
-1.78353e-11
-9.78072e-05
1.01058e-11
-1.22782e-12
-7.914e-05
2.24409e-12
-7.914e-05
1.22711e-11
-7.914e-05
-1.87638e-11
-7.914e-05
3.4883e-12
-7.914e-05
-2.52718e-11
-7.914e-05
-3.51846e-12
-7.914e-05
-2.69741e-11
-7.914e-05
-7.39101e-12
-7.914e-05
-2.56903e-11
-7.914e-05
-1.09235e-11
-7.914e-05
-2.12222e-11
-7.914e-05
-1.39765e-11
-7.914e-05
-1.48559e-11
-7.914e-05
-1.56864e-11
-7.914e-05
-7.60011e-12
-7.914e-05
-1.60918e-11
-7.914e-05
1.09683e-12
-7.914e-05
-1.88503e-11
-7.914e-05
1.05478e-11
-1.55749e-13
-5.414e-05
1.54796e-12
-5.414e-05
1.26334e-11
-5.414e-05
-1.81938e-11
-5.414e-05
2.58584e-12
-5.414e-05
-2.39962e-11
-5.414e-05
-4.60973e-12
-5.414e-05
-2.5373e-11
-5.414e-05
-8.7502e-12
-5.414e-05
-2.38237e-11
-5.414e-05
-1.24358e-11
-5.414e-05
-1.93574e-11
-5.414e-05
-1.53157e-11
-5.414e-05
-1.32768e-11
-5.414e-05
-1.67748e-11
-5.414e-05
-6.4646e-12
-5.414e-05
-1.67037e-11
-5.414e-05
1.9028e-12
-5.414e-05
-1.92615e-11
-5.414e-05
1.04127e-11
8.76924e-13
-2.28072e-05
6.53347e-13
-2.28072e-05
1.22901e-11
-2.28072e-05
-1.71113e-11
-2.28072e-05
1.49737e-12
-2.28072e-05
-2.2113e-11
-2.28072e-05
-5.63927e-12
-2.28072e-05
-2.31683e-11
-2.28072e-05
-9.899e-12
-2.28072e-05
-2.14469e-11
-2.28072e-05
-1.35879e-11
-2.28072e-05
-1.7156e-11
-2.28072e-05
-1.61751e-11
-2.28072e-05
-1.15344e-11
-2.28072e-05
-1.73217e-11
-2.28072e-05
-5.35219e-12
-2.28072e-05
-1.67791e-11
-2.28072e-05
2.49715e-12
-2.28072e-05
-1.89785e-11
-2.28072e-05
9.69032e-12
1.75616e-12
1.48584e-05
-3.50035e-13
1.48584e-05
1.12517e-11
1.48584e-05
-1.56058e-11
1.48584e-05
3.53083e-13
1.48584e-05
-1.97767e-11
1.48584e-05
-6.44683e-12
1.48584e-05
-2.05487e-11
1.48584e-05
-1.06411e-11
1.48584e-05
-1.87721e-11
1.48584e-05
-1.41679e-11
1.48584e-05
-1.48198e-11
1.48584e-05
-1.63684e-11
1.48584e-05
-9.79315e-12
1.48584e-05
-1.71761e-11
1.48584e-05
-4.37117e-12
1.48584e-05
-1.62293e-11
1.48584e-05
2.80922e-12
1.48584e-05
-1.7955e-11
1.48584e-05
8.44653e-12
2.38943e-12
5.88568e-05
-1.34325e-12
5.88568e-05
9.61447e-12
5.88568e-05
-1.37688e-11
5.88568e-05
-6.98128e-13
5.88568e-05
-1.71193e-11
5.88568e-05
-6.87128e-12
5.88568e-05
-1.76639e-11
5.88568e-05
-1.07913e-11
5.88568e-05
-1.59544e-11
5.88568e-05
-1.3989e-11
5.88568e-05
-1.24796e-11
5.88568e-05
-1.57427e-11
5.88568e-05
-8.14567e-12
5.88568e-05
-1.62233e-11
5.88568e-05
-3.56131e-12
5.88568e-05
-1.49961e-11
5.88568e-05
2.82373e-12
5.88568e-05
-1.61942e-11
5.88568e-05
6.82384e-12
2.72587e-12
0.000109188
-2.19073e-12
0.000109188
7.5682e-12
0.000109188
-1.16676e-11
0.000109188
-1.48726e-12
0.000109188
-1.42162e-11
0.000109188
-6.74701e-12
0.000109188
-1.45819e-11
0.000109188
-1.01733e-11
0.000109188
-1.30459e-11
0.000109188
-1.28875e-11
0.000109188
-1.01499e-11
0.000109188
-1.4175e-11
0.000109188
-6.57418e-12
0.000109188
-1.43811e-11
0.000109188
-2.86632e-12
0.000109188
-1.30453e-11
0.000109188
2.60202e-12
0.000109188
-1.37453e-11
0.000109188
5.0325e-12
2.77333e-12
0.000165852
-2.75866e-12
0.000165852
5.38254e-12
0.000165852
-9.32517e-12
0.000165852
-1.83196e-12
0.000165852
-1.10654e-11
0.000165852
-5.90876e-12
0.000165852
-1.12658e-11
0.000165852
-8.62418e-12
0.000165852
-9.97104e-12
0.000165852
-1.07266e-11
0.000165852
-7.71067e-12
0.000165852
-1.15722e-11
0.000165852
-4.93589e-12
0.000165852
-1.15981e-11
0.000165852
-2.12671e-12
0.000165852
-1.03637e-11
0.000165852
2.28773e-12
0.000165852
-1.06957e-11
0.000165852
3.32704e-12
2.60463e-12
0.000228849
-2.92342e-12
0.000228849
3.43615e-12
0.000228849
-6.63641e-12
0.000228849
-1.4614e-12
0.000228849
-7.47229e-12
0.000228849
-4.08503e-12
0.000228849
-7.43702e-12
0.000228849
-5.87424e-12
0.000228849
-6.38396e-12
0.000228849
-7.27232e-12
0.000228849
-4.77374e-12
0.000228849
-7.75253e-12
0.000228849
-2.84932e-12
0.000228849
-7.75345e-12
0.000228849
-9.96798e-13
0.000228849
-6.88455e-12
0.000228849
2.16837e-12
0.000228849
-7.11804e-12
0.000228849
1.9927e-12
2.37363e-12
0.000298178
-2.62545e-12
0.000298178
1.78303e-12
0.000298178
-3.80821e-12
0.000298178
-6.51091e-13
0.000298178
-3.78425e-12
0.000298178
-1.71905e-12
0.000298178
-3.49981e-12
0.000298178
-2.4609e-12
0.000298178
-2.69447e-12
0.000298178
-3.10364e-12
0.000298178
-1.70988e-12
0.000298178
-3.28131e-12
0.000298178
-6.26443e-13
0.000298178
-3.34203e-12
0.000298178
2.93951e-13
0.000298178
-2.99101e-12
0.000298178
2.1068e-12
0.000298178
-3.31593e-12
0.000298178
1.10564e-12
2.11681e-12
0.000373841
-1.7075e-12
0.000373841
8.97117e-13
0.000373841
-5.65743e-13
0.000373841
9.01594e-13
0.000373841
3.88561e-13
0.000373841
1.46885e-12
0.000373841
1.02289e-12
0.000373841
1.85455e-12
0.000373841
1.62965e-12
0.000373841
1.95258e-12
0.000373841
2.01196e-12
0.000373841
1.95644e-12
0.000373841
2.20887e-12
0.000373841
1.67887e-12
0.000373841
2.11984e-12
0.000373841
1.31557e-12
0.000373841
2.4059e-12
0.000373841
5.59981e-13
0.000373841
8.22559e-13
2.02686e-12
0.000455836
0.000455836
0.000455836
0.000455836
0.000455836
0.000455836
0.000455836
0.000455836
0.000455836
0.000455836
0.000455836
0.000455836
0.000455836
0.000455836
0.000455836
0.000455836
0.000455836
0.000455836
0.000455836
)
;

boundaryField
{
    top
    {
        type            calculated;
        value           uniform 0;
    }
    bottom
    {
        type            calculated;
        value           uniform 0;
    }
    inlet
    {
        type            calculated;
        value           nonuniform List<scalar> 
20
(
1.9164e-05
5.11592e-05
7.68216e-05
9.61512e-05
0.000109148
0.000115812
0.000116143
0.000110142
9.78072e-05
7.914e-05
5.414e-05
2.28072e-05
-1.48584e-05
-5.88568e-05
-0.000109188
-0.000165852
-0.000228849
-0.000298178
-0.000373841
-0.000455836
)
;
    }
    outlet
    {
        type            calculated;
        value           nonuniform List<scalar> 
20
(
-1.9164e-05
-5.11592e-05
-7.68216e-05
-9.61512e-05
-0.000109148
-0.000115812
-0.000116143
-0.000110142
-9.78072e-05
-7.914e-05
-5.414e-05
-2.28072e-05
1.48584e-05
5.88568e-05
0.000109188
0.000165852
0.000228849
0.000298178
0.000373841
0.000455836
)
;
    }
    frontAndBack
    {
        type            empty;
        value           nonuniform 0();
    }
}


// ************************************************************************* //
