/*--------------------------------*- C++ -*----------------------------------*\
| =========                 |                                                 |
| \\      /  F ield         | OpenFOAM: The Open Source CFD Toolbox           |
|  \\    /   O peration     | Version:  4.1                                   |
|   \\  /    A nd           | Web:      www.OpenFOAM.org                      |
|    \\/     M anipulation  |                                                 |
\*---------------------------------------------------------------------------*/
FoamFile
{
    version     2.0;
    format      ascii;
    class       volVectorField;
    location    "2";
    object      U;
}
// * * * * * * * * * * * * * * * * * * * * * * * * * * * * * * * * * * * * * //

dimensions      [0 1 -1 0 0 0 0];

internalField   nonuniform List<vector> 
400
(
(-0.38328 2.67009e-10 0)
(-0.38328 -2.49063e-10 0)
(-0.38328 -3.76092e-10 0)
(-0.38328 -5.68418e-10 0)
(-0.38328 -8.36452e-10 0)
(-0.38328 -1.02359e-09 0)
(-0.38328 -1.03849e-09 0)
(-0.38328 -1.29882e-09 0)
(-0.38328 -1.16315e-09 0)
(-0.38328 -1.42336e-09 0)
(-0.38328 -1.16499e-09 0)
(-0.38328 -1.42968e-09 0)
(-0.38328 -1.04606e-09 0)
(-0.38328 -1.30822e-09 0)
(-0.38328 -8.51458e-10 0)
(-0.38328 -1.08603e-09 0)
(-0.38328 -6.02071e-10 0)
(-0.38328 -8.00144e-10 0)
(-0.38328 -2.74664e-10 0)
(-0.38328 -4.1624e-10 0)
(-1.02318 2.84329e-09 0)
(-1.02318 1.24224e-09 0)
(-1.02318 1.23182e-09 0)
(-1.02318 4.10889e-09 0)
(-1.02318 1.37358e-09 0)
(-1.02318 4.05867e-09 0)
(-1.02318 2.04951e-09 0)
(-1.02318 4.20507e-09 0)
(-1.02318 2.21671e-09 0)
(-1.02318 4.02493e-09 0)
(-1.02318 2.27007e-09 0)
(-1.02318 3.20873e-09 0)
(-1.02318 2.38966e-09 0)
(-1.02318 2.20359e-09 0)
(-1.02318 2.23606e-09 0)
(-1.02318 8.97926e-10 0)
(-1.02318 1.89413e-09 0)
(-1.02318 -1.24794e-10 0)
(-1.02318 2.07047e-09 0)
(-1.02318 -1.86295e-09 0)
(-1.53643 1.83725e-09 0)
(-1.53643 2.17906e-10 0)
(-1.53643 -4.23668e-09 0)
(-1.53643 7.00904e-10 0)
(-1.53643 -6.91869e-09 0)
(-1.53643 -1.33559e-09 0)
(-1.53643 -7.72459e-09 0)
(-1.53643 -2.27479e-09 0)
(-1.53643 -8.02742e-09 0)
(-1.53643 -2.92924e-09 0)
(-1.53643 -7.35763e-09 0)
(-1.53643 -3.69442e-09 0)
(-1.53643 -5.73899e-09 0)
(-1.53643 -4.08174e-09 0)
(-1.53643 -3.76601e-09 0)
(-1.53643 -4.33878e-09 0)
(-1.53643 -1.52247e-09 0)
(-1.53643 -4.24821e-09 0)
(-1.53643 1.26671e-09 0)
(-1.53643 -2.81297e-09 0)
(-1.92302 2.31227e-09 0)
(-1.92302 1.64523e-09 0)
(-1.92302 -7.2171e-09 0)
(-1.92302 2.54022e-09 0)
(-1.92302 -1.09853e-08 0)
(-1.92302 2.45555e-12 0)
(-1.92302 -1.20262e-08 0)
(-1.92302 -1.05746e-09 0)
(-1.92302 -1.219e-08 0)
(-1.92302 -2.00066e-09 0)
(-1.92302 -1.08363e-08 0)
(-1.92302 -3.36695e-09 0)
(-1.92302 -8.09867e-09 0)
(-1.92302 -4.35957e-09 0)
(-1.92302 -4.86199e-09 0)
(-1.92302 -5.30954e-09 0)
(-1.92302 -1.21969e-09 0)
(-1.92302 -6.00867e-09 0)
(-1.92302 3.06584e-09 0)
(-1.92302 -3.41608e-09 0)
(-2.18296 2.30666e-09 0)
(-2.18296 2.89339e-09 0)
(-2.18296 -1.08653e-08 0)
(-2.18296 2.56392e-09 0)
(-2.18296 -1.62264e-08 0)
(-2.18296 -1.0169e-09 0)
(-2.18296 -1.79257e-08 0)
(-2.18296 -2.59797e-09 0)
(-2.18296 -1.81135e-08 0)
(-2.18296 -3.97064e-09 0)
(-2.18296 -1.60843e-08 0)
(-2.18296 -5.71869e-09 0)
(-2.18296 -1.217e-08 0)
(-2.18296 -6.88059e-09 0)
(-2.18296 -7.45665e-09 0)
(-2.18296 -7.85282e-09 0)
(-2.18296 -2.06593e-09 0)
(-2.18296 -8.80269e-09 0)
(-2.18296 4.09955e-09 0)
(-2.18296 -3.72269e-09 0)
(-2.31624 2.53353e-09 0)
(-2.31624 4.76179e-09 0)
(-2.31624 -1.36848e-08 0)
(-2.31624 3.26601e-09 0)
(-2.31624 -2.00806e-08 0)
(-2.31624 -1.104e-09 0)
(-2.31624 -2.2125e-08 0)
(-2.31624 -3.09176e-09 0)
(-2.31624 -2.21726e-08 0)
(-2.31624 -4.89249e-09 0)
(-2.31624 -1.94943e-08 0)
(-2.31624 -7.07829e-09 0)
(-2.31624 -1.46264e-08 0)
(-2.31624 -8.54128e-09 0)
(-2.31624 -8.78666e-09 0)
(-2.31624 -9.69776e-09 0)
(-2.31624 -2.07125e-09 0)
(-2.31624 -1.11851e-08 0)
(-2.31624 5.59121e-09 0)
(-2.31624 -3.64928e-09 0)
(-2.32286 2.76663e-09 0)
(-2.32286 6.82715e-09 0)
(-2.32286 -1.58701e-08 0)
(-2.32286 3.88588e-09 0)
(-2.32286 -2.28957e-08 0)
(-2.32286 -1.20719e-09 0)
(-2.32286 -2.51039e-08 0)
(-2.32286 -3.61518e-09 0)
(-2.32286 -2.49238e-08 0)
(-2.32286 -5.85747e-09 0)
(-2.32286 -2.16608e-08 0)
(-2.32286 -8.42764e-09 0)
(-2.32286 -1.60613e-08 0)
(-2.32286 -1.01383e-08 0)
(-2.32286 -9.39625e-09 0)
(-2.32286 -1.13822e-08 0)
(-2.32286 -1.69315e-09 0)
(-2.32286 -1.33975e-08 0)
(-2.32286 7.12617e-09 0)
(-2.32286 -3.23921e-09 0)
(-2.20283 2.89516e-09 0)
(-2.20283 8.83455e-09 0)
(-2.20283 -1.74282e-08 0)
(-2.20283 4.23272e-09 0)
(-2.20283 -2.46964e-08 0)
(-2.20283 -1.52286e-09 0)
(-2.20283 -2.69029e-08 0)
(-2.20283 -4.36511e-09 0)
(-2.20283 -2.64281e-08 0)
(-2.20283 -7.03771e-09 0)
(-2.20283 -2.26682e-08 0)
(-2.20283 -9.89773e-09 0)
(-2.20283 -1.65687e-08 0)
(-2.20283 -1.17557e-08 0)
(-2.20283 -9.38456e-09 0)
(-2.20283 -1.2941e-08 0)
(-2.20283 -1.02772e-09 0)
(-2.20283 -1.53822e-08 0)
(-2.20283 8.54206e-09 0)
(-2.20283 -2.54e-09 0)
(-1.95614 2.83391e-09 0)
(-1.95614 1.05665e-08 0)
(-1.95614 -1.83618e-08 0)
(-1.95614 4.20716e-09 0)
(-1.95614 -2.55258e-08 0)
(-1.95614 -2.13135e-09 0)
(-1.95614 -2.7594e-08 0)
(-1.95614 -5.40595e-09 0)
(-1.95614 -2.67891e-08 0)
(-1.95614 -8.46932e-09 0)
(-1.95614 -2.2648e-08 0)
(-1.95614 -1.14974e-08 0)
(-1.95614 -1.62842e-08 0)
(-1.95614 -1.338e-08 0)
(-1.95614 -8.88244e-09 0)
(-1.95614 -1.43484e-08 0)
(-1.95614 -1.89153e-10 0)
(-1.95614 -1.70544e-08 0)
(-1.95614 9.66816e-09 0)
(-1.95614 -1.62543e-09 0)
(-1.5828 2.53152e-09 0)
(-1.5828 1.18452e-08 0)
(-1.5828 -1.86747e-08 0)
(-1.5828 3.79945e-09 0)
(-1.5828 -2.54497e-08 0)
(-1.5828 -3.0004e-09 0)
(-1.5828 -2.72795e-08 0)
(-1.5828 -6.67188e-09 0)
(-1.5828 -2.61463e-08 0)
(-1.5828 -1.0054e-08 0)
(-1.5828 -2.17653e-08 0)
(-1.5828 -1.31154e-08 0)
(-1.5828 -1.53678e-08 0)
(-1.5828 -1.49014e-08 0)
(-1.5828 -8.03312e-09 0)
(-1.5828 -1.55185e-08 0)
(-1.5828 7.07025e-10 0)
(-1.5828 -1.83025e-08 0)
(-1.5828 1.03583e-08 0)
(-1.5828 -5.91358e-10 0)
(-1.0828 1.97568e-09 0)
(-1.0828 1.25348e-08 0)
(-1.0828 -1.83904e-08 0)
(-1.0828 3.06462e-09 0)
(-1.0828 -2.45623e-08 0)
(-1.0828 -4.02204e-09 0)
(-1.0828 -2.60939e-08 0)
(-1.0828 -8.01082e-09 0)
(-1.0828 -2.46725e-08 0)
(-1.0828 -1.16062e-08 0)
(-1.0828 -2.02126e-08 0)
(-1.0828 -1.45657e-08 0)
(-1.0828 -1.3997e-08 0)
(-1.0828 -1.61519e-08 0)
(-1.0828 -6.98418e-09 0)
(-1.0828 -1.6332e-08 0)
(-1.0828 1.54833e-09 0)
(-1.0828 -1.9007e-08 0)
(-1.0828 1.05109e-08 0)
(-1.0828 4.52212e-10 0)
(-0.456144 1.19501e-09 0)
(-0.456144 1.25473e-08 0)
(-0.456144 -1.75623e-08 0)
(-0.456144 2.09532e-09 0)
(-0.456144 -2.29926e-08 0)
(-0.456144 -5.05364e-09 0)
(-0.456144 -2.42076e-08 0)
(-0.456144 -9.23449e-09 0)
(-0.456144 -2.25742e-08 0)
(-0.456144 -1.29083e-08 0)
(-0.456144 -1.82061e-08 0)
(-0.456144 -1.56408e-08 0)
(-0.456144 -1.23618e-08 0)
(-0.456144 -1.69514e-08 0)
(-0.456144 -5.88193e-09 0)
(-0.456144 -1.66685e-08 0)
(-0.456144 2.22906e-09 0)
(-0.456144 -1.9066e-08 0)
(-0.456144 1.00837e-08 0)
(-0.456144 1.39129e-09 0)
(0.297167 2.57398e-10 0)
(0.297167 1.18567e-08 0)
(0.297167 -1.62714e-08 0)
(0.297167 1.00644e-09 0)
(0.297167 -2.08906e-08 0)
(0.297167 -5.94295e-09 0)
(0.297167 -2.18082e-08 0)
(0.297167 -1.01506e-08 0)
(0.297167 -2.00666e-08 0)
(0.297167 -1.37471e-08 0)
(0.297167 -1.59571e-08 0)
(0.297167 -1.6147e-08 0)
(0.297167 -1.06393e-08 0)
(0.297167 -1.71386e-08 0)
(0.297167 -4.85032e-09 0)
(0.297167 -1.64277e-08 0)
(0.297167 2.6653e-09 0)
(0.297168 -1.84133e-08 0)
(0.297168 9.10517e-09 0)
(0.297168 2.12498e-09 0)
(1.17714 -7.33503e-10 0)
(1.17714 1.05153e-08 0)
(1.17714 -1.46073e-08 0)
(1.17714 -6.45886e-11 0)
(1.17714 -1.8396e-08 0)
(1.17714 -6.53019e-09 0)
(1.17714 -1.90594e-08 0)
(1.17714 -1.05686e-08 0)
(1.17714 -1.73266e-08 0)
(1.17714 -1.39229e-08 0)
(1.17714 -1.36249e-08 0)
(1.17714 -1.59135e-08 0)
(1.17714 -8.95163e-09 0)
(1.17714 -1.65791e-08 0)
(1.17714 -3.95821e-09 0)
(1.17714 -1.55337e-08 0)
(1.17714 2.81883e-09 0)
(1.17714 -1.7026e-08 0)
(1.17714 7.67993e-09 0)
(1.17714 2.58494e-09 0)
(2.18376 -1.65188e-09 0)
(2.18376 8.66578e-09 0)
(2.18376 -1.26488e-08 0)
(2.18376 -9.63962e-10 0)
(2.18376 -1.56127e-08 0)
(2.18376 -6.65707e-09 0)
(2.18376 -1.60707e-08 0)
(2.18376 -1.03126e-08 0)
(2.18376 -1.44583e-08 0)
(2.18376 -1.32648e-08 0)
(2.18376 -1.12832e-08 0)
(2.18376 -1.48052e-08 0)
(2.18376 -7.33689e-09 0)
(2.18376 -1.51761e-08 0)
(2.18376 -3.19881e-09 0)
(2.18376 -1.39402e-08 0)
(2.18376 2.71285e-09 0)
(2.18376 -1.49289e-08 0)
(2.18376 5.98167e-09 0)
(2.18376 2.75215e-09 0)
(3.31704 -2.3747e-09 0)
(3.31704 6.50812e-09 0)
(3.31704 -1.0469e-08 0)
(3.31704 -1.55489e-09 0)
(3.31704 -1.26192e-08 0)
(3.31704 -6.20566e-09 0)
(3.31704 -1.29061e-08 0)
(3.31704 -9.26376e-09 0)
(3.31704 -1.15011e-08 0)
(3.31704 -1.16711e-08 0)
(3.31704 -8.92778e-09 0)
(3.31704 -1.27567e-08 0)
(3.31704 -5.75661e-09 0)
(3.31704 -1.28959e-08 0)
(3.31704 -2.49667e-09 0)
(3.31704 -1.16465e-08 0)
(3.31704 2.42864e-09 0)
(3.31704 -1.21981e-08 0)
(3.31704 4.23569e-09 0)
(3.31704 2.66176e-09 0)
(4.57697 -2.74575e-09 0)
(4.57698 4.68174e-09 0)
(4.57698 -7.66559e-09 0)
(4.57698 -1.11709e-09 0)
(4.57698 -8.73915e-09 0)
(4.57698 -4.31674e-09 0)
(4.57698 -8.6915e-09 0)
(4.57698 -6.4958e-09 0)
(4.57698 -7.45811e-09 0)
(4.57698 -8.25014e-09 0)
(4.57698 -5.53013e-09 0)
(4.57698 -8.98223e-09 0)
(4.57698 -3.25143e-09 0)
(4.57698 -9.12288e-09 0)
(4.57698 -1.03909e-09 0)
(4.57698 -8.22964e-09 0)
(4.57698 2.59961e-09 0)
(4.57698 -8.71543e-09 0)
(4.57698 2.84206e-09 0)
(4.57698 2.55012e-09 0)
(5.96357 -2.81854e-09 0)
(5.96357 1.73414e-09 0)
(5.96357 -6.25927e-09 0)
(5.96357 -2.39382e-09 0)
(5.96357 -7.28964e-09 0)
(5.96357 -4.68292e-09 0)
(5.96357 -7.54433e-09 0)
(5.96357 -6.17785e-09 0)
(5.96357 -6.83506e-09 0)
(5.96357 -7.21941e-09 0)
(5.96357 -5.51693e-09 0)
(5.96357 -7.41386e-09 0)
(5.96357 -3.79825e-09 0)
(5.96357 -7.13139e-09 0)
(5.96357 -2.01523e-09 0)
(5.96357 -6.11537e-09 0)
(5.96357 8.75407e-10 0)
(5.96357 -5.86934e-09 0)
(5.96357 1.11069e-09 0)
(5.96357 1.77787e-09 0)
(7.47682 -2.37063e-09 0)
(7.47682 2.30857e-09 0)
(7.47682 -1.20142e-09 0)
(7.47682 1.66026e-09 0)
(7.47682 9.87966e-11 0)
(7.47682 1.87667e-09 0)
(7.47682 1.05276e-09 0)
(7.47682 1.90818e-09 0)
(7.47682 2.0362e-09 0)
(7.47682 1.60384e-09 0)
(7.47682 2.72854e-09 0)
(7.47682 1.33604e-09 0)
(7.47682 3.14539e-09 0)
(7.47682 7.84553e-10 0)
(7.47682 3.13305e-09 0)
(7.47682 3.3688e-10 0)
(7.47682 3.7548e-09 0)
(7.47682 -8.30443e-10 0)
(7.47682 1.39399e-09 0)
(7.47682 2.51058e-09 0)
(9.11672 -6.38892e-10 0)
(9.11672 -5.77275e-10 0)
(9.11672 -1.37328e-09 0)
(9.11672 -1.09564e-09 0)
(9.11672 -1.70831e-09 0)
(9.11672 -1.36285e-09 0)
(9.11672 -1.90266e-09 0)
(9.11672 -1.45755e-09 0)
(9.11672 -1.89366e-09 0)
(9.11672 -1.4359e-09 0)
(9.11672 -1.70925e-09 0)
(9.11672 -1.29061e-09 0)
(9.11672 -1.37804e-09 0)
(9.11672 -1.0571e-09 0)
(9.11672 -9.67453e-10 0)
(9.11672 -7.71601e-10 0)
(9.11672 -3.97898e-10 0)
(9.11672 -4.72633e-10 0)
(9.11672 -9.33394e-11 0)
(9.11672 3.35445e-10 0)
)
;

boundaryField
{
    top
    {
        type            fixedValue;
        value           uniform (10 0 0);
    }
    bottom
    {
        type            fixedValue;
        value           uniform (0 0 0);
    }
    inlet
    {
        type            zeroGradient;
    }
    outlet
    {
        type            zeroGradient;
    }
    frontAndBack
    {
        type            empty;
    }
}


// ************************************************************************* //
