/*--------------------------------*- C++ -*----------------------------------*\
| =========                 |                                                 |
| \\      /  F ield         | OpenFOAM: The Open Source CFD Toolbox           |
|  \\    /   O peration     | Version:  4.1                                   |
|   \\  /    A nd           | Web:      www.OpenFOAM.org                      |
|    \\/     M anipulation  |                                                 |
\*---------------------------------------------------------------------------*/
FoamFile
{
    version     2.0;
    format      ascii;
    class       volScalarField;
    location    "1.5";
    object      p;
}
// * * * * * * * * * * * * * * * * * * * * * * * * * * * * * * * * * * * * * //

dimensions      [0 2 -2 0 0 0 0];

internalField   nonuniform List<scalar> 
400
(
5.93116e-08
6.57629e-08
5.64708e-08
6.00393e-08
5.32165e-08
5.50232e-08
4.98272e-08
5.02641e-08
4.62512e-08
4.56551e-08
4.25605e-08
4.11299e-08
3.88138e-08
3.66356e-08
3.50594e-08
3.21291e-08
3.13542e-08
2.76483e-08
2.79749e-08
2.66817e-08
5.90967e-08
6.55425e-08
5.64542e-08
6.0035e-08
5.32167e-08
5.50225e-08
4.98277e-08
5.02637e-08
4.62515e-08
4.56549e-08
4.25606e-08
4.11298e-08
3.88138e-08
3.66356e-08
3.50593e-08
3.21291e-08
3.13519e-08
2.76498e-08
2.78279e-08
2.65262e-08
5.89757e-08
6.53867e-08
5.64342e-08
6.00345e-08
5.32142e-08
5.50242e-08
4.98262e-08
5.02648e-08
4.62506e-08
4.56556e-08
4.25602e-08
4.11301e-08
3.88138e-08
3.66355e-08
3.50595e-08
3.21285e-08
3.13507e-08
2.76484e-08
2.77127e-08
2.64199e-08
5.89379e-08
6.53137e-08
5.64153e-08
6.00349e-08
5.32114e-08
5.50261e-08
4.98246e-08
5.02661e-08
4.62497e-08
4.56563e-08
4.25597e-08
4.11303e-08
3.88137e-08
3.66353e-08
3.50599e-08
3.21277e-08
3.13501e-08
2.76445e-08
2.76466e-08
2.63657e-08
5.895e-08
6.52984e-08
5.63974e-08
6.00352e-08
5.32091e-08
5.50276e-08
4.98234e-08
5.02671e-08
4.62489e-08
4.56568e-08
4.25594e-08
4.11305e-08
3.88137e-08
3.66352e-08
3.50602e-08
3.21271e-08
3.13498e-08
2.76395e-08
2.76187e-08
2.63469e-08
5.89951e-08
6.53218e-08
5.63796e-08
6.00352e-08
5.32072e-08
5.50288e-08
4.98224e-08
5.02679e-08
4.62483e-08
4.56573e-08
4.25591e-08
4.11307e-08
3.88137e-08
3.66351e-08
3.50604e-08
3.21267e-08
3.13496e-08
2.76339e-08
2.76215e-08
2.63559e-08
5.90634e-08
6.53722e-08
5.63614e-08
6.0035e-08
5.32056e-08
5.50298e-08
4.98216e-08
5.02685e-08
4.62478e-08
4.56576e-08
4.25588e-08
4.11308e-08
3.88137e-08
3.6635e-08
3.50607e-08
3.21263e-08
3.13496e-08
2.76281e-08
2.765e-08
2.63878e-08
5.91438e-08
6.54379e-08
5.63426e-08
6.00346e-08
5.32044e-08
5.50305e-08
4.9821e-08
5.0269e-08
4.62474e-08
4.56579e-08
4.25587e-08
4.11309e-08
3.88137e-08
3.66349e-08
3.50608e-08
3.21261e-08
3.13497e-08
2.76226e-08
2.76981e-08
2.64364e-08
5.9225e-08
6.55071e-08
5.63232e-08
6.00337e-08
5.32034e-08
5.5031e-08
4.98206e-08
5.02693e-08
4.62472e-08
4.5658e-08
4.25586e-08
4.11309e-08
3.88137e-08
3.66349e-08
3.5061e-08
3.2126e-08
3.13498e-08
2.76179e-08
2.77584e-08
2.64942e-08
5.92966e-08
6.55688e-08
5.63032e-08
6.00323e-08
5.32027e-08
5.50312e-08
4.98204e-08
5.02694e-08
4.62471e-08
4.56581e-08
4.25585e-08
4.11309e-08
3.88137e-08
3.66348e-08
3.5061e-08
3.21259e-08
3.13499e-08
2.76142e-08
2.78229e-08
2.65532e-08
5.93498e-08
6.56141e-08
5.6283e-08
6.00304e-08
5.32023e-08
5.50311e-08
4.98204e-08
5.02694e-08
4.62471e-08
4.56581e-08
4.25585e-08
4.11309e-08
3.88137e-08
3.66348e-08
3.50611e-08
3.2126e-08
3.13498e-08
2.76118e-08
2.78839e-08
2.66061e-08
5.93777e-08
6.56359e-08
5.6263e-08
6.00278e-08
5.32021e-08
5.50308e-08
4.98206e-08
5.02692e-08
4.62473e-08
4.5658e-08
4.25586e-08
4.11309e-08
3.88137e-08
3.66348e-08
3.50611e-08
3.21261e-08
3.13495e-08
2.76106e-08
2.79341e-08
2.66459e-08
5.9376e-08
6.56302e-08
5.62435e-08
6.00246e-08
5.32023e-08
5.50302e-08
4.98211e-08
5.02688e-08
4.62475e-08
4.56578e-08
4.25587e-08
4.11308e-08
3.88137e-08
3.66349e-08
3.5061e-08
3.21264e-08
3.1349e-08
2.76106e-08
2.79674e-08
2.66671e-08
5.93436e-08
6.55961e-08
5.62253e-08
6.00208e-08
5.32028e-08
5.50293e-08
4.98217e-08
5.02683e-08
4.62479e-08
4.56575e-08
4.25589e-08
4.11307e-08
3.88138e-08
3.66349e-08
3.50609e-08
3.21267e-08
3.13481e-08
2.76118e-08
2.79797e-08
2.66658e-08
5.92821e-08
6.55357e-08
5.62088e-08
6.00165e-08
5.32035e-08
5.50282e-08
4.98225e-08
5.02677e-08
4.62485e-08
4.56571e-08
4.25592e-08
4.11305e-08
3.88138e-08
3.6635e-08
3.50607e-08
3.2127e-08
3.13468e-08
2.76137e-08
2.79685e-08
2.664e-08
5.91973e-08
6.54555e-08
5.61946e-08
6.00117e-08
5.32046e-08
5.50269e-08
4.98236e-08
5.02668e-08
4.62491e-08
4.56566e-08
4.25595e-08
4.11304e-08
3.88138e-08
3.66351e-08
3.50605e-08
3.21274e-08
3.13452e-08
2.76162e-08
2.79343e-08
2.65907e-08
5.90963e-08
6.53645e-08
5.61833e-08
6.00066e-08
5.32061e-08
5.50252e-08
4.98248e-08
5.02658e-08
4.62499e-08
4.56561e-08
4.25599e-08
4.11301e-08
3.88139e-08
3.66352e-08
3.50602e-08
3.21279e-08
3.13433e-08
2.7619e-08
2.78801e-08
2.65204e-08
5.89939e-08
6.52792e-08
5.61753e-08
6.00011e-08
5.32081e-08
5.50231e-08
4.98264e-08
5.02645e-08
4.62508e-08
4.56554e-08
4.25604e-08
4.11299e-08
3.88139e-08
3.66354e-08
3.50599e-08
3.21284e-08
3.13411e-08
2.76219e-08
2.78121e-08
2.64348e-08
5.89148e-08
6.52159e-08
5.61695e-08
5.99961e-08
5.32098e-08
5.50213e-08
4.98278e-08
5.02635e-08
4.62517e-08
4.56547e-08
4.25608e-08
4.11297e-08
3.8814e-08
3.66355e-08
3.50595e-08
3.21288e-08
3.13387e-08
2.76244e-08
2.77349e-08
2.63426e-08
5.89007e-08
6.51879e-08
5.61621e-08
5.99949e-08
5.32087e-08
5.50218e-08
4.98273e-08
5.02638e-08
4.62514e-08
4.5655e-08
4.25606e-08
4.11298e-08
3.8814e-08
3.66355e-08
3.50596e-08
3.21284e-08
3.13372e-08
2.76255e-08
2.76618e-08
2.62706e-08
)
;

boundaryField
{
    top
    {
        type            zeroGradient;
    }
    bottom
    {
        type            zeroGradient;
    }
    inlet
    {
        type            fixedValue;
        value           uniform 0;
    }
    outlet
    {
        type            fixedValue;
        value           uniform 0;
    }
    frontAndBack
    {
        type            empty;
    }
}


// ************************************************************************* //
