/*--------------------------------*- C++ -*----------------------------------*\
| =========                 |                                                 |
| \\      /  F ield         | OpenFOAM: The Open Source CFD Toolbox           |
|  \\    /   O peration     | Version:  4.1                                   |
|   \\  /    A nd           | Web:      www.OpenFOAM.org                      |
|    \\/     M anipulation  |                                                 |
\*---------------------------------------------------------------------------*/
FoamFile
{
    version     2.0;
    format      ascii;
    class       surfaceScalarField;
    location    "1.5";
    object      phi;
}
// * * * * * * * * * * * * * * * * * * * * * * * * * * * * * * * * * * * * * //

dimensions      [0 3 -1 0 0 0 0];

internalField   nonuniform List<scalar> 
760
(
1.24989e-06
-9.21524e-14
1.24989e-06
-6.28094e-14
1.24989e-06
5.3604e-16
1.24989e-06
-4.24046e-15
1.24989e-06
2.7867e-15
1.24989e-06
-2.36429e-15
1.24989e-06
1.87884e-15
1.24989e-06
-1.48768e-15
1.24989e-06
1.14122e-15
1.24989e-06
-8.33848e-16
1.24989e-06
5.54181e-16
1.24989e-06
-2.92975e-16
1.24989e-06
4.17423e-17
1.24989e-06
2.05993e-16
1.24989e-06
-4.68956e-16
1.24989e-06
6.8557e-16
1.24989e-06
-1.46517e-15
1.24989e-06
2.13974e-15
1.24989e-06
-3.7587e-14
-5.59257e-14
3.74968e-06
-2.78294e-13
3.74968e-06
-2.20138e-13
3.74968e-06
-5.12465e-15
3.74968e-06
-1.03715e-14
3.74968e-06
5.82527e-15
3.74968e-06
-5.12013e-15
3.74968e-06
4.0313e-15
3.74968e-06
-3.19772e-15
3.74968e-06
2.45103e-15
3.74968e-06
-1.78965e-15
3.74968e-06
1.18742e-15
3.74968e-06
-6.245e-16
3.74968e-06
8.24921e-17
3.74968e-06
4.50346e-16
3.74968e-06
-1.03412e-15
3.74968e-06
1.41608e-15
3.74968e-06
-3.93808e-15
3.74968e-06
5.74123e-15
3.74968e-06
-1.38757e-13
-1.80359e-13
6.24947e-06
-5.03202e-13
6.24947e-06
-4.3441e-13
6.24947e-06
-1.77306e-14
6.24947e-06
-1.5995e-14
6.24947e-06
7.47017e-15
6.24947e-06
-6.8818e-15
6.24947e-06
5.35354e-15
6.24947e-06
-4.25639e-15
6.24947e-06
3.25879e-15
6.24947e-06
-2.37706e-15
6.24947e-06
1.57336e-15
6.24947e-06
-8.21429e-16
6.24947e-06
9.64869e-17
6.24947e-06
6.13345e-16
6.24947e-06
-1.42192e-15
6.24947e-06
1.79138e-15
6.24947e-06
-6.62619e-15
6.24947e-06
9.77829e-15
6.24947e-06
-2.85292e-13
-3.4459e-13
8.74928e-06
-7.32981e-13
8.74928e-06
-6.68605e-13
8.74928e-06
-3.49459e-14
8.74928e-06
-2.08633e-14
8.74928e-06
7.90117e-15
8.74928e-06
-7.74495e-15
8.74928e-06
5.93354e-15
8.74928e-06
-4.73151e-15
8.74928e-06
3.61708e-15
8.74928e-06
-2.63479e-15
8.74928e-06
1.73833e-15
8.74928e-06
-8.98723e-16
8.74928e-06
8.80459e-17
8.74928e-06
7.0157e-16
8.74928e-06
-1.64441e-15
8.74928e-06
1.86145e-15
8.74928e-06
-9.33508e-15
8.74928e-06
1.39611e-14
8.74928e-06
-4.55545e-13
-5.27027e-13
1.12491e-05
-9.38424e-13
1.12491e-05
-8.90114e-13
1.12491e-05
-5.42697e-14
1.12491e-05
-2.4709e-14
1.12491e-05
7.31432e-15
1.12491e-05
-7.81348e-15
1.12491e-05
5.86675e-15
1.12491e-05
-4.69671e-15
1.12491e-05
3.58303e-15
1.12491e-05
-2.60501e-15
1.12491e-05
1.71105e-15
1.12491e-05
-8.7273e-16
1.12491e-05
6.18647e-17
1.12491e-05
7.22315e-16
1.12491e-05
-1.71534e-15
1.12491e-05
1.6782e-15
1.12491e-05
-1.18553e-14
1.12491e-05
1.80087e-14
1.12491e-05
-6.28727e-13
-7.07016e-13
1.3749e-05
-1.09715e-12
1.3749e-05
-1.07306e-12
1.3749e-05
-7.32487e-14
1.3749e-05
-2.72901e-14
1.3749e-05
5.91639e-15
1.3749e-05
-7.20011e-15
1.3749e-05
5.25559e-15
1.3749e-05
-4.23117e-15
1.3749e-05
3.21809e-15
1.3749e-05
-2.33309e-15
1.3749e-05
1.52241e-15
1.3749e-05
-7.60977e-16
1.3749e-05
2.27974e-17
1.3749e-05
6.83743e-16
1.3749e-05
-1.65071e-15
1.3749e-05
1.29421e-15
1.3749e-05
-1.39858e-14
1.3749e-05
2.1626e-14
1.3749e-05
-7.86052e-13
-8.65979e-13
1.62488e-05
-1.19373e-12
1.62488e-05
-1.1986e-12
1.62488e-05
-8.96896e-14
1.62488e-05
-2.84237e-14
1.62488e-05
3.91907e-15
1.62488e-05
-6.02563e-15
1.62488e-05
4.20811e-15
1.62488e-05
-3.41867e-15
1.62488e-05
2.58725e-15
1.62488e-05
-1.86698e-15
1.62488e-05
1.20506e-15
1.62488e-05
-5.81874e-16
1.62488e-05
-2.4285e-17
1.62488e-05
5.94867e-16
1.62488e-05
-1.46893e-15
1.62488e-05
7.61966e-16
1.62488e-05
-1.55515e-14
1.62488e-05
2.45088e-14
1.62488e-05
-9.1203e-13
-9.88723e-13
1.87487e-05
-1.22046e-12
1.87487e-05
-1.25593e-12
1.87487e-05
-1.01848e-13
1.87487e-05
-2.80161e-14
1.87487e-05
1.53199e-15
1.87487e-05
-4.41766e-15
1.87487e-05
2.83624e-15
1.87487e-05
-2.34626e-15
1.87487e-05
1.758e-15
1.87487e-05
-1.25648e-15
1.87487e-05
7.92771e-16
1.87487e-05
-3.54316e-16
1.87487e-05
-7.47387e-17
1.87487e-05
4.65556e-16
1.87487e-05
-1.19085e-15
1.87487e-05
1.32925e-16
1.87487e-05
-1.64198e-14
1.87487e-05
2.63687e-14
1.87487e-05
-9.95313e-13
-1.06432e-12
2.12487e-05
-1.17705e-12
2.12487e-05
-1.24207e-12
2.12487e-05
-1.08575e-13
2.12487e-05
-2.60847e-14
2.12487e-05
-1.04283e-15
2.12487e-05
-2.50959e-15
2.12487e-05
1.25423e-15
2.12487e-05
-1.10321e-15
2.12487e-05
7.99414e-16
2.12487e-05
-5.525e-16
2.12487e-05
3.19977e-16
2.12487e-05
-9.7356e-17
2.12487e-05
-1.24261e-16
2.12487e-05
3.06481e-16
2.12487e-05
-8.39727e-16
2.12487e-05
-5.42962e-16
2.12487e-05
-1.65126e-14
2.12487e-05
2.6971e-14
2.12487e-05
-1.02928e-12
-1.0867e-12
2.37486e-05
-1.07019e-12
2.37486e-05
-1.16157e-12
2.37486e-05
-1.09407e-13
2.37486e-05
-2.27697e-14
2.37486e-05
-3.61572e-15
2.37486e-05
-4.39476e-16
2.37486e-05
-4.22762e-16
2.37486e-05
2.20076e-16
2.37486e-05
-2.18674e-16
2.37486e-05
1.93612e-16
2.37486e-05
-1.78758e-16
2.37486e-05
1.70111e-16
2.37486e-05
-1.69056e-16
2.37486e-05
1.29078e-16
2.37486e-05
-4.41092e-16
2.37486e-05
-1.21761e-15
2.37486e-05
-1.58156e-14
2.37486e-05
2.61798e-14
2.37486e-05
-1.01223e-12
-1.05494e-12
2.62486e-05
-9.12568e-13
2.62486e-05
-1.02554e-12
2.62486e-05
-1.04567e-13
2.62486e-05
-1.83347e-14
2.62486e-05
-6.01252e-15
2.62486e-05
1.65127e-15
2.62486e-05
-2.08003e-15
2.62486e-05
1.53312e-15
2.62486e-05
-1.22657e-15
2.62486e-05
9.30702e-16
2.62486e-05
-6.69152e-16
2.62486e-05
4.29637e-16
2.62486e-05
-2.05975e-16
2.62486e-05
-5.45328e-17
2.62486e-05
-2.24831e-17
2.62486e-05
-1.84507e-15
2.62486e-05
-1.43816e-14
2.62486e-05
2.39958e-14
2.62486e-05
-9.47309e-13
-9.73161e-13
2.87487e-05
-7.21451e-13
2.87487e-05
-8.50186e-13
2.87487e-05
-9.49043e-14
2.87487e-05
-1.31547e-14
2.87487e-05
-8.07628e-15
2.87487e-05
3.61932e-15
2.87487e-05
-3.60462e-15
2.87487e-05
2.74633e-15
2.87487e-05
-2.15546e-15
2.87487e-05
1.60839e-15
2.87487e-05
-1.11766e-15
2.87487e-05
6.63483e-16
2.87487e-05
-2.32523e-16
2.87487e-05
-2.31649e-16
2.87487e-05
3.86874e-16
2.87487e-05
-2.38182e-15
2.87487e-05
-1.23293e-14
2.87487e-05
2.05824e-14
2.87487e-05
-8.41921e-13
-8.49979e-13
3.12487e-05
-5.17058e-13
3.12487e-05
-6.55114e-13
3.12487e-05
-8.1737e-14
3.12487e-05
-7.69227e-15
3.12487e-05
-9.66705e-15
3.12487e-05
5.32112e-15
3.12487e-05
-4.88644e-15
3.12487e-05
3.77191e-15
3.12487e-05
-2.93811e-15
3.12487e-05
2.17761e-15
3.12487e-05
-1.49183e-15
3.12487e-05
8.54774e-16
3.12487e-05
-2.4694e-16
3.12487e-05
-3.89146e-16
3.12487e-05
7.56552e-16
3.12487e-05
-2.78718e-15
3.12487e-05
-9.83663e-15
3.12487e-05
1.62656e-14
3.12487e-05
-7.07044e-13
-6.97792e-13
3.37488e-05
-3.20309e-13
3.37488e-05
-4.60892e-13
3.37488e-05
-6.66547e-14
3.37488e-05
-2.46403e-15
3.37488e-05
-1.06603e-14
3.37488e-05
6.61464e-15
3.37488e-05
-5.81927e-15
3.37488e-05
4.52472e-15
3.37488e-05
-3.50959e-15
3.37488e-05
2.59117e-15
3.37488e-05
-1.76066e-15
3.37488e-05
9.87692e-16
3.37488e-05
-2.48146e-16
3.37488e-05
-5.13742e-16
3.37488e-05
1.05553e-15
3.37488e-05
-3.02408e-15
3.37488e-05
-7.12857e-15
3.37488e-05
1.15137e-14
3.37488e-05
-5.55978e-13
-5.31478e-13
3.6249e-05
-1.51051e-13
3.6249e-05
-2.87078e-13
3.6249e-05
-5.12497e-14
3.6249e-05
1.998e-15
3.6249e-05
-1.09437e-14
3.6249e-05
7.36133e-15
3.6249e-05
-6.30162e-15
3.6249e-05
4.92314e-15
3.6249e-05
-3.80784e-15
3.6249e-05
2.80404e-15
3.6249e-05
-1.89476e-15
3.6249e-05
1.04755e-15
3.6249e-05
-2.35623e-16
3.6249e-05
-5.92164e-16
3.6249e-05
1.25279e-15
3.6249e-05
-3.05993e-15
3.6249e-05
-4.46203e-15
3.6249e-05
6.87855e-15
3.6249e-05
-4.03266e-13
-3.67225e-13
3.87491e-05
-2.49294e-14
3.87491e-05
-1.48911e-13
3.87491e-05
-3.688e-14
3.87491e-05
5.18865e-15
3.87491e-05
-1.04138e-14
3.87491e-05
7.42811e-15
3.87491e-05
-6.23746e-15
3.87491e-05
4.88964e-15
3.87491e-05
-3.77407e-15
3.87491e-05
2.77379e-15
3.87491e-05
-1.86661e-15
3.87491e-05
1.02078e-15
3.87491e-05
-2.09378e-16
3.87491e-05
-6.11514e-16
3.87491e-05
1.318e-15
3.87491e-05
-2.86776e-15
3.87491e-05
-2.10655e-15
3.87491e-05
2.92959e-15
3.87491e-05
-2.6274e-13
-2.20484e-13
4.12493e-05
4.76032e-14
4.12493e-05
-5.60991e-14
4.12493e-05
-2.43988e-14
4.12493e-05
6.66482e-15
4.12493e-05
-8.9721e-15
4.12493e-05
6.68956e-15
4.12493e-05
-5.53708e-15
4.12493e-05
4.35175e-15
4.12493e-05
-3.35347e-15
4.12493e-05
2.46089e-15
4.12493e-05
-1.65071e-15
4.12493e-05
8.95034e-16
4.12493e-05
-1.6966e-16
4.12493e-05
-5.5965e-16
4.12493e-05
1.22233e-15
4.12493e-05
-2.42774e-15
4.12493e-05
-3.25547e-16
4.12493e-05
1.46416e-16
4.12493e-05
-1.46671e-13
-1.04966e-13
4.37495e-05
6.57269e-14
4.37495e-05
-8.30818e-15
4.37495e-05
-1.40471e-14
4.37495e-05
6.07469e-15
4.37495e-05
-6.52126e-15
4.37495e-05
5.02951e-15
4.37495e-05
-4.11733e-15
4.37495e-05
3.24232e-15
4.37495e-05
-2.49533e-15
4.37495e-05
1.82888e-15
4.37495e-05
-1.2236e-15
4.37495e-05
6.5893e-16
4.37495e-05
-1.16735e-16
4.37495e-05
-4.25557e-16
4.37495e-05
9.39068e-16
4.37495e-05
-1.72852e-15
4.37495e-05
6.42733e-16
4.37495e-05
-1.1518e-15
4.37495e-05
-6.28173e-14
-2.95962e-14
4.62497e-05
3.68483e-14
4.62497e-05
3.54125e-15
4.62497e-05
-5.34454e-15
4.62497e-05
3.16413e-15
4.62497e-05
-2.96091e-15
4.62497e-05
2.34135e-15
4.62497e-05
-1.90099e-15
4.62497e-05
1.4992e-15
4.62497e-05
-1.15263e-15
4.62497e-05
8.43961e-16
4.62497e-05
-5.63511e-16
4.62497e-05
3.01855e-16
4.62497e-05
-5.0578e-17
4.62497e-05
-1.99679e-16
4.62497e-05
4.44139e-16
4.62497e-05
-7.68064e-16
4.62497e-05
5.98476e-16
4.62497e-05
-9.19108e-16
4.62497e-05
-1.48128e-14
1.23057e-15
4.87499e-05
4.87499e-05
4.87499e-05
4.87499e-05
4.87499e-05
4.87499e-05
4.87499e-05
4.87499e-05
4.87499e-05
4.87499e-05
4.87499e-05
4.87499e-05
4.87499e-05
4.87499e-05
4.87499e-05
4.87499e-05
4.87499e-05
4.87499e-05
4.87499e-05
)
;

boundaryField
{
    top
    {
        type            calculated;
        value           uniform 0;
    }
    bottom
    {
        type            calculated;
        value           uniform 0;
    }
    inlet
    {
        type            calculated;
        value           nonuniform List<scalar> 
20
(
-1.24989e-06
-3.74968e-06
-6.24947e-06
-8.74928e-06
-1.12491e-05
-1.3749e-05
-1.62488e-05
-1.87487e-05
-2.12487e-05
-2.37486e-05
-2.62486e-05
-2.87487e-05
-3.12487e-05
-3.37488e-05
-3.6249e-05
-3.87491e-05
-4.12493e-05
-4.37495e-05
-4.62497e-05
-4.87499e-05
)
;
    }
    outlet
    {
        type            calculated;
        value           nonuniform List<scalar> 
20
(
1.24989e-06
3.74968e-06
6.24947e-06
8.74928e-06
1.12491e-05
1.3749e-05
1.62488e-05
1.87487e-05
2.12487e-05
2.37486e-05
2.62486e-05
2.87487e-05
3.12487e-05
3.37488e-05
3.6249e-05
3.87491e-05
4.12493e-05
4.37495e-05
4.62497e-05
4.87499e-05
)
;
    }
    frontAndBack
    {
        type            empty;
        value           nonuniform 0();
    }
}


// ************************************************************************* //
