/*--------------------------------*- C++ -*----------------------------------*\
| =========                 |                                                 |
| \\      /  F ield         | OpenFOAM: The Open Source CFD Toolbox           |
|  \\    /   O peration     | Version:  4.1                                   |
|   \\  /    A nd           | Web:      www.OpenFOAM.org                      |
|    \\/     M anipulation  |                                                 |
\*---------------------------------------------------------------------------*/
FoamFile
{
    version     2.0;
    format      ascii;
    class       volVectorField;
    location    "1.5";
    object      U;
}
// * * * * * * * * * * * * * * * * * * * * * * * * * * * * * * * * * * * * * //

dimensions      [0 1 -1 0 0 0 0];

internalField   nonuniform List<vector> 
400
(
(0.0249978 -4.08515e-11 0)
(0.0249978 -2.50926e-11 0)
(0.0249978 8.25477e-13 0)
(0.0249978 -2.11013e-12 0)
(0.0249978 1.46773e-12 0)
(0.0249978 -1.23138e-12 0)
(0.0249978 9.81823e-13 0)
(0.0249978 -7.76987e-13 0)
(0.0249978 5.96317e-13 0)
(0.0249978 -4.35927e-13 0)
(0.0249978 2.90031e-13 0)
(0.0249978 -1.53782e-13 0)
(0.0249978 2.27595e-14 0)
(0.0249978 1.06612e-13 0)
(0.0249978 -2.42353e-13 0)
(0.0249978 3.61303e-13 0)
(0.0249978 -6.99916e-13 0)
(0.0249978 9.29515e-13 0)
(0.0249978 -1.40866e-11 0)
(0.0249978 -2.33791e-11 0)
(0.0749936 -1.72441e-10 0)
(0.0749936 -1.26269e-10 0)
(0.0749936 -7.22416e-13 0)
(0.0749936 -7.18019e-12 0)
(0.0749936 4.45978e-12 0)
(0.0749936 -3.83003e-12 0)
(0.0749936 3.03361e-12 0)
(0.0749936 -2.40361e-12 0)
(0.0749936 1.84334e-12 0)
(0.0749936 -1.34656e-12 0)
(0.0749936 8.94413e-13 0)
(0.0749936 -4.71964e-13 0)
(0.0749936 6.54391e-14 0)
(0.0749936 3.34959e-13 0)
(0.0749936 -7.65117e-13 0)
(0.0749936 1.09199e-12 0)
(0.0749936 -2.57662e-12 0)
(0.0749936 3.83911e-12 0)
(0.0749936 -7.69344e-11 0)
(0.0749936 -1.07207e-10 0)
(0.124989 -3.8282e-10 0)
(0.124989 -3.16288e-10 0)
(0.124989 -1.00676e-11 0)
(0.124989 -1.32123e-11 0)
(0.124989 6.87367e-12 0)
(0.124989 -6.15528e-12 0)
(0.124989 4.82316e-12 0)
(0.124989 -3.82937e-12 0)
(0.124989 2.93393e-12 0)
(0.124989 -2.14146e-12 0)
(0.124989 1.41958e-12 0)
(0.124989 -7.44548e-13 0)
(0.124989 9.42501e-14 0)
(0.124989 5.44044e-13 0)
(0.124989 -1.25456e-12 0)
(0.124989 1.66068e-12 0)
(0.124989 -5.21544e-12 0)
(0.124989 7.56452e-12 0)
(0.124989 -2.02739e-10 0)
(0.124989 -2.53875e-10 0)
(0.174986 -6.19415e-10 0)
(0.174986 -5.4939e-10 0)
(0.174986 -2.54007e-11 0)
(0.174986 -1.86382e-11 0)
(0.174986 7.96929e-12 0)
(0.174986 -7.52634e-12 0)
(0.174986 5.8187e-12 0)
(0.174986 -4.63177e-12 0)
(0.174986 3.54406e-12 0)
(0.174986 -2.58374e-12 0)
(0.174986 1.70797e-12 0)
(0.174986 -8.88239e-13 0)
(0.174986 9.74287e-14 0)
(0.174986 6.75257e-13 0)
(0.174986 -1.57282e-12 0)
(0.174986 1.89717e-12 0)
(0.174986 -7.99456e-12 0)
(0.174986 1.18377e-11 0)
(0.174986 -3.665e-10 0)
(0.174986 -4.33214e-10 0)
(0.224982 -8.4441e-10 0)
(0.224982 -7.8543e-10 0)
(0.224982 -4.43585e-11 0)
(0.224982 -2.3083e-11 0)
(0.224982 7.84837e-12 0)
(0.224982 -7.97304e-12 0)
(0.224982 6.05659e-12 0)
(0.224982 -4.83765e-12 0)
(0.224982 3.69505e-12 0)
(0.224982 -2.68948e-12 0)
(0.224982 1.77116e-12 0)
(0.224982 -9.10587e-13 0)
(0.224982 7.90217e-14 0)
(0.224982 7.28535e-13 0)
(0.224982 -1.71752e-12 0)
(0.224982 1.8291e-12 0)
(0.224982 -1.06708e-11 0)
(0.224982 1.60237e-11 0)
(0.224982 -5.43636e-10 0)
(0.224982 -6.19878e-10 0)
(0.274979 -1.03122e-09 0)
(0.274979 -9.93354e-10 0)
(0.274979 -6.41265e-11 0)
(0.274979 -2.63393e-11 0)
(0.274979 6.79383e-12 0)
(0.274979 -7.66369e-12 0)
(0.274979 5.68504e-12 0)
(0.274979 -4.56216e-12 0)
(0.274979 3.47594e-12 0)
(0.274979 -2.52416e-12 0)
(0.274979 1.65338e-12 0)
(0.274979 -8.36205e-13 0)
(0.274979 4.49872e-14 0)
(0.274979 7.16859e-13 0)
(0.274979 -1.71492e-12 0)
(0.274979 1.53002e-12 0)
(0.274979 -1.30398e-11 0)
(0.274979 1.99319e-11 0)
(0.274979 -7.13196e-10 0)
(0.274979 -7.93557e-10 0)
(0.324977 -1.16169e-09 0)
(0.324977 -1.15128e-09 0)
(0.324977 -8.23489e-11 0)
(0.324977 -2.82286e-11 0)
(0.324977 5.04056e-12 0)
(0.324977 -6.73648e-12 0)
(0.324977 4.82641e-12 0)
(0.324977 -3.90035e-12 0)
(0.324977 2.96039e-12 0)
(0.324977 -2.14212e-12 0)
(0.324977 1.39153e-12 0)
(0.324977 -6.85814e-13 0)
(0.324977 6.59352e-16 0)
(0.324977 6.50607e-13 0)
(0.324977 -1.58638e-12 0)
(0.324977 1.05836e-12 0)
(0.324977 -1.49248e-11 0)
(0.324977 2.32597e-11 0)
(0.324977 -8.58142e-10 0)
(0.324977 -9.37613e-10 0)
(0.374975 -1.22436e-09 0)
(0.374975 -1.24445e-09 0)
(0.374975 -9.70251e-11 0)
(0.374975 -2.8603e-11 0)
(0.374975 2.79702e-12 0)
(0.374975 -5.31299e-12 0)
(0.374975 3.58873e-12 0)
(0.374975 -2.93606e-12 0)
(0.374975 2.21342e-12 0)
(0.374975 -1.59134e-12 0)
(0.374975 1.01825e-12 0)
(0.374975 -4.77768e-13 0)
(0.374975 -4.92363e-14 0)
(0.374975 5.38996e-13 0)
(0.374975 -1.351e-12 0)
(0.374975 4.65305e-13 0)
(0.374975 -1.6168e-11 0)
(0.374975 2.57054e-11 0)
(0.374975 -9.64989e-10 0)
(0.374975 -1.03889e-09 0)
(0.424973 -1.21525e-09 0)
(0.424973 -1.26604e-09 0)
(0.424973 -1.06683e-10 0)
(0.424973 -2.7416e-11 0)
(0.424973 2.67108e-13 0)
(0.424973 -3.52136e-12 0)
(0.424973 2.08333e-12 0)
(0.424973 -1.75606e-12 0)
(0.424973 1.30228e-12 0)
(0.424973 -9.21413e-13 0)
(0.424973 5.67149e-13 0)
(0.424973 -2.30794e-13 0)
(0.424973 -1.00237e-13 0)
(0.424973 3.92076e-13 0)
(0.424973 -1.03035e-12 0)
(0.424973 -1.99175e-13 0)
(0.424973 -1.66603e-11 0)
(0.424973 2.69931e-11 0)
(0.424973 -1.02464e-09 0)
(0.424973 -1.08876e-09 0)
(0.474973 -1.13773e-09 0)
(0.474973 -1.21695e-09 0)
(0.474973 -1.105e-10 0)
(0.474973 -2.4744e-11 0)
(0.474973 -2.35252e-12 0)
(0.474973 -1.49738e-12 0)
(0.474973 4.25092e-13 0)
(0.474973 -4.50287e-13 0)
(0.474973 2.96504e-13 0)
(0.474973 -1.83553e-13 0)
(0.474973 7.27785e-14 0)
(0.474973 3.60881e-14 0)
(0.474973 -1.48267e-13 0)
(0.474973 2.20897e-13 0)
(0.474973 -6.48827e-13 0)
(0.474973 -8.86048e-13 0)
(0.474973 -1.63538e-11 0)
(0.474973 2.69258e-11 0)
(0.474973 -1.03293e-09 0)
(0.474973 -1.08369e-09 0)
(0.524973 -1.00179e-09 0)
(0.524973 -1.10533e-09 0)
(0.524973 -1.08363e-10 0)
(0.524973 -2.07904e-11 0)
(0.524973 -4.87903e-12 0)
(0.524973 6.18644e-13 0)
(0.524973 -1.27054e-12 0)
(0.524973 8.90418e-13 0)
(0.524973 -7.33823e-13 0)
(0.524973 5.70756e-13 0)
(0.524973 -4.30272e-13 0)
(0.524973 3.04112e-13 0)
(0.524973 -1.89826e-13 0)
(0.524973 3.72792e-14 0)
(0.524973 -2.33082e-13 0)
(0.524973 -1.54818e-12 0)
(0.524973 -1.52674e-11 0)
(0.524973 2.54264e-11 0)
(0.524973 -9.90643e-10 0)
(0.524973 -1.02535e-09 0)
(0.574973 -8.22792e-10 0)
(0.574973 -9.45218e-10 0)
(0.574973 -1.00835e-10 0)
(0.574973 -1.5879e-11 0)
(0.574973 -7.14649e-12 0)
(0.574973 2.68384e-12 0)
(0.574973 -2.88932e-12 0)
(0.574973 2.17569e-12 0)
(0.574973 -1.7192e-12 0)
(0.574973 1.29055e-12 0)
(0.574973 -9.07956e-13 0)
(0.574973 5.55111e-13 0)
(0.574973 -2.22077e-13 0)
(0.574973 -1.46321e-13 0)
(0.574973 1.88372e-13 0)
(0.574973 -2.14071e-12 0)
(0.574973 -1.34878e-11 0)
(0.574973 2.2573e-11 0)
(0.574973 -9.03214e-10 0)
(0.574973 -9.20267e-10 0)
(0.624975 -6.19963e-10 0)
(0.624975 -7.55049e-10 0)
(0.624975 -8.90423e-11 0)
(0.624975 -1.04359e-11 0)
(0.624975 -9.00638e-12 0)
(0.624975 4.55412e-12 0)
(0.624975 -4.31928e-12 0)
(0.624975 3.31648e-12 0)
(0.624975 -2.59131e-12 0)
(0.624975 1.92591e-12 0)
(0.624975 -1.32714e-12 0)
(0.624975 7.71707e-13 0)
(0.624975 -2.42891e-13 0)
(0.624975 -3.16926e-13 0)
(0.624975 5.85536e-13 0)
(0.624975 -2.62134e-12 0)
(0.624975 -1.11657e-11 0)
(0.624975 1.86119e-11 0)
(0.624975 -7.80089e-10 0)
(0.624975 -7.79213e-10 0)
(0.674977 -4.14363e-10 0)
(0.674977 -5.55443e-10 0)
(0.674977 -7.45018e-11 0)
(0.674977 -4.95964e-12 0)
(0.674977 -1.03274e-11 0)
(0.674977 6.08644e-12 0)
(0.674977 -5.45224e-12 0)
(0.674977 4.22625e-12 0)
(0.674977 -3.28405e-12 0)
(0.674977 2.42868e-12 0)
(0.674977 -1.65608e-12 0)
(0.674977 9.37559e-13 0)
(0.674977 -2.5087e-13 0)
(0.674977 -4.61286e-13 0)
(0.674977 9.27575e-13 0)
(0.674977 -2.95113e-12 0)
(0.674977 -8.50586e-12 0)
(0.674977 1.39497e-11 0)
(0.674977 -6.33694e-10 0)
(0.674977 -6.16126e-10 0)
(0.724979 -2.26972e-10 0)
(0.724979 -3.67146e-10 0)
(0.724979 -5.88738e-11 0)
(0.724979 1.92126e-14 0)
(0.724979 -1.09951e-11 0)
(0.724979 7.14268e-12 0)
(0.724979 -6.18625e-12 0)
(0.724979 4.82313e-12 0)
(0.724979 -3.73507e-12 0)
(0.724979 2.75358e-12 0)
(0.724979 -1.86516e-12 0)
(0.724979 1.03773e-12 0)
(0.724979 -2.45293e-13 0)
(0.724979 -5.66285e-13 0)
(0.724979 1.18381e-12 0)
(0.724979 -3.09574e-12 0)
(0.724979 -5.75249e-12 0)
(0.724979 9.11159e-12 0)
(0.724979 -4.78342e-10 0)
(0.724979 -4.46943e-10 0)
(0.774982 -7.60292e-11 0)
(0.774982 -2.08147e-10 0)
(0.774982 -4.37064e-11 0)
(0.774982 3.97709e-12 0)
(0.774982 -1.09062e-11 0)
(0.774982 7.58937e-12 0)
(0.774982 -6.42466e-12 0)
(0.774982 5.02915e-12 0)
(0.774982 -3.88519e-12 0)
(0.774982 2.85782e-12 0)
(0.774982 -1.92653e-12 0)
(0.774982 1.05844e-12 0)
(0.774982 -2.25983e-13 0)
(0.774982 -6.1901e-13 0)
(0.774982 1.32397e-12 0)
(0.774982 -3.02583e-12 0)
(0.774982 -3.17152e-12 0)
(0.774982 4.67839e-12 0)
(0.774982 -3.28543e-10 0)
(0.774982 -2.87817e-10 0)
(0.824986 2.432e-11 0)
(0.824986 -9.17423e-11 0)
(0.824986 -3.01038e-11 0)
(0.824986 6.40652e-12 0)
(0.824986 -9.93344e-12 0)
(0.824986 7.27603e-12 0)
(0.824986 -6.05748e-12 0)
(0.824986 4.75579e-12 0)
(0.824986 -3.66722e-12 0)
(0.824986 2.69279e-12 0)
(0.824986 -1.8086e-12 0)
(0.824986 9.83991e-13 0)
(0.824986 -1.92619e-13 0)
(0.824986 -6.05118e-13 0)
(0.824986 1.31441e-12 0)
(0.824986 -2.71058e-12 0)
(0.824986 -1.03754e-12 0)
(0.824986 1.21401e-12 0)
(0.824986 -1.97724e-10 0)
(0.824986 -1.53881e-10 0)
(0.874989 6.77916e-11 0)
(0.874989 -2.24688e-11 0)
(0.874989 -1.85609e-11 0)
(0.874989 6.79451e-12 0)
(0.874989 -7.90955e-12 0)
(0.874989 6.02044e-12 0)
(0.874989 -4.94989e-12 0)
(0.874989 3.89494e-12 0)
(0.874989 -2.99908e-12 0)
(0.874989 2.19916e-12 0)
(0.874989 -1.47279e-12 0)
(0.874989 7.95194e-13 0)
(0.874989 -1.44615e-13 0)
(0.874989 -5.07487e-13 0)
(0.874989 1.115e-12 0)
(0.874989 -2.1179e-12 0)
(0.874989 3.54694e-13 0)
(0.874989 -8.7737e-13 0)
(0.874989 -9.6187e-11 0)
(0.874989 -5.71281e-11 0)
(0.924994 5.8468e-11 0)
(0.924994 4.20193e-12 0)
(0.924994 -9.04388e-12 0)
(0.924994 4.95668e-12 0)
(0.924994 -4.81949e-12 0)
(0.924994 3.78234e-12 0)
(0.924994 -3.07951e-12 0)
(0.924994 2.42745e-12 0)
(0.924994 -1.867e-12 0)
(0.924994 1.36752e-12 0)
(0.924994 -9.13749e-13 0)
(0.924994 4.90365e-13 0)
(0.924994 -8.37647e-14 0)
(0.924994 -3.21922e-13 0)
(0.924994 7.13514e-13 0)
(0.924994 -1.26405e-12 0)
(0.924994 8.06519e-13 0)
(0.924994 -1.28731e-12 0)
(0.924994 -3.11243e-11 0)
(0.924994 -5.36546e-12 0)
(0.974998 2.17837e-11 0)
(0.974998 4.66636e-12 0)
(0.974998 -2.47436e-12 0)
(0.974998 1.72143e-12 0)
(0.974998 -1.53191e-12 0)
(0.974998 1.22264e-12 0)
(0.974998 -9.89634e-13 0)
(0.974998 7.81018e-13 0)
(0.974998 -6.00309e-13 0)
(0.974998 4.3947e-13 0)
(0.974998 -2.93297e-13 0)
(0.974998 1.56899e-13 0)
(0.974998 -2.58641e-14 0)
(0.974998 -1.04454e-13 0)
(0.974998 2.33089e-13 0)
(0.974998 -3.95775e-13 0)
(0.974998 3.69256e-13 0)
(0.974998 -6.32721e-13 0)
(0.974998 -4.09504e-12 0)
(0.974998 4.57159e-12 0)
)
;

boundaryField
{
    top
    {
        type            fixedValue;
        value           uniform (1 0 0);
    }
    bottom
    {
        type            fixedValue;
        value           uniform (0 0 0);
    }
    inlet
    {
        type            zeroGradient;
    }
    outlet
    {
        type            zeroGradient;
    }
    frontAndBack
    {
        type            empty;
    }
}


// ************************************************************************* //
