/*--------------------------------*- C++ -*----------------------------------*\
| =========                 |                                                 |
| \\      /  F ield         | OpenFOAM: The Open Source CFD Toolbox           |
|  \\    /   O peration     | Version:  4.1                                   |
|   \\  /    A nd           | Web:      www.OpenFOAM.org                      |
|    \\/     M anipulation  |                                                 |
\*---------------------------------------------------------------------------*/
FoamFile
{
    version     2.0;
    format      ascii;
    class       volScalarField;
    location    "1.6";
    object      p;
}
// * * * * * * * * * * * * * * * * * * * * * * * * * * * * * * * * * * * * * //

dimensions      [0 2 -2 0 0 0 0];

internalField   nonuniform List<scalar> 
400
(
4.15457e-08
4.61481e-08
3.956e-08
4.21275e-08
3.72876e-08
3.86003e-08
3.49223e-08
3.52521e-08
3.24265e-08
3.20095e-08
2.98494e-08
2.88269e-08
2.72313e-08
2.56681e-08
2.46056e-08
2.25031e-08
2.20119e-08
1.93586e-08
1.96441e-08
1.86805e-08
4.13951e-08
4.59936e-08
3.95484e-08
4.21245e-08
3.72877e-08
3.85998e-08
3.49227e-08
3.52518e-08
3.24267e-08
3.20093e-08
2.98495e-08
2.88269e-08
2.72313e-08
2.56681e-08
2.46055e-08
2.25031e-08
2.20102e-08
1.93597e-08
1.9541e-08
1.85716e-08
4.13102e-08
4.58843e-08
3.95343e-08
4.21242e-08
3.72859e-08
3.8601e-08
3.49217e-08
3.52526e-08
3.24261e-08
3.20098e-08
2.98492e-08
2.8827e-08
2.72313e-08
2.5668e-08
2.46057e-08
2.25026e-08
2.20095e-08
1.93586e-08
1.94603e-08
1.8497e-08
4.12836e-08
4.58332e-08
3.9521e-08
4.21245e-08
3.72839e-08
3.86023e-08
3.49205e-08
3.52535e-08
3.24254e-08
3.20103e-08
2.98489e-08
2.88272e-08
2.72313e-08
2.56679e-08
2.4606e-08
2.25021e-08
2.20091e-08
1.93559e-08
1.94139e-08
1.8459e-08
4.12921e-08
4.58225e-08
3.95084e-08
4.21247e-08
3.72823e-08
3.86034e-08
3.49196e-08
3.52542e-08
3.24249e-08
3.20107e-08
2.98486e-08
2.88273e-08
2.72313e-08
2.56678e-08
2.46062e-08
2.25017e-08
2.20088e-08
1.93524e-08
1.93944e-08
1.84458e-08
4.13237e-08
4.58389e-08
3.94959e-08
4.21247e-08
3.7281e-08
3.86043e-08
3.49189e-08
3.52547e-08
3.24245e-08
3.2011e-08
2.98484e-08
2.88274e-08
2.72313e-08
2.56677e-08
2.46064e-08
2.25013e-08
2.20087e-08
1.93484e-08
1.93964e-08
1.84521e-08
4.13716e-08
4.58743e-08
3.94831e-08
4.21246e-08
3.72799e-08
3.86049e-08
3.49183e-08
3.52552e-08
3.24241e-08
3.20112e-08
2.98483e-08
2.88275e-08
2.72313e-08
2.56676e-08
2.46066e-08
2.25011e-08
2.20087e-08
1.93444e-08
1.94165e-08
1.84745e-08
4.14279e-08
4.59204e-08
3.94699e-08
4.21243e-08
3.72789e-08
3.86054e-08
3.49179e-08
3.52555e-08
3.24239e-08
3.20114e-08
2.98482e-08
2.88276e-08
2.72313e-08
2.56675e-08
2.46067e-08
2.25009e-08
2.20088e-08
1.93405e-08
1.94502e-08
1.85085e-08
4.14849e-08
4.59689e-08
3.94563e-08
4.21237e-08
3.72782e-08
3.86058e-08
3.49176e-08
3.52557e-08
3.24237e-08
3.20115e-08
2.98481e-08
2.88276e-08
2.72313e-08
2.56675e-08
2.46068e-08
2.25008e-08
2.20089e-08
1.93372e-08
1.94925e-08
1.8549e-08
4.15351e-08
4.60122e-08
3.94423e-08
4.21227e-08
3.72777e-08
3.86059e-08
3.49175e-08
3.52558e-08
3.24236e-08
3.20116e-08
2.98481e-08
2.88276e-08
2.72313e-08
2.56675e-08
2.46069e-08
2.25008e-08
2.2009e-08
1.93346e-08
1.95377e-08
1.85905e-08
4.15723e-08
4.60439e-08
3.94281e-08
4.21214e-08
3.72775e-08
3.86059e-08
3.49175e-08
3.52558e-08
3.24237e-08
3.20116e-08
2.98481e-08
2.88276e-08
2.72313e-08
2.56675e-08
2.46069e-08
2.25008e-08
2.20089e-08
1.93329e-08
1.95805e-08
1.86275e-08
4.15919e-08
4.60592e-08
3.94141e-08
4.21195e-08
3.72774e-08
3.86056e-08
3.49176e-08
3.52557e-08
3.24238e-08
3.20115e-08
2.98481e-08
2.88276e-08
2.72313e-08
2.56675e-08
2.46069e-08
2.25009e-08
2.20087e-08
1.9332e-08
1.96157e-08
1.86554e-08
4.15907e-08
4.60552e-08
3.94005e-08
4.21173e-08
3.72775e-08
3.86052e-08
3.4918e-08
3.52554e-08
3.2424e-08
3.20113e-08
2.98482e-08
2.88275e-08
2.72314e-08
2.56675e-08
2.46068e-08
2.25011e-08
2.20083e-08
1.93321e-08
1.96391e-08
1.86703e-08
4.1568e-08
4.60313e-08
3.93877e-08
4.21146e-08
3.72778e-08
3.86046e-08
3.49184e-08
3.52551e-08
3.24242e-08
3.20111e-08
2.98484e-08
2.88274e-08
2.72314e-08
2.56676e-08
2.46067e-08
2.25013e-08
2.20077e-08
1.93329e-08
1.96477e-08
1.86694e-08
4.15249e-08
4.59889e-08
3.93761e-08
4.21116e-08
3.72784e-08
3.86038e-08
3.4919e-08
3.52546e-08
3.24246e-08
3.20109e-08
2.98485e-08
2.88273e-08
2.72314e-08
2.56676e-08
2.46066e-08
2.25016e-08
2.20068e-08
1.93343e-08
1.96398e-08
1.86514e-08
4.14655e-08
4.59326e-08
3.93662e-08
4.21082e-08
3.72791e-08
3.86029e-08
3.49197e-08
3.5254e-08
3.24251e-08
3.20105e-08
2.98488e-08
2.88272e-08
2.72314e-08
2.56677e-08
2.46064e-08
2.25019e-08
2.20057e-08
1.93361e-08
1.96158e-08
1.86169e-08
4.13947e-08
4.58687e-08
3.93583e-08
4.21046e-08
3.72802e-08
3.86017e-08
3.49206e-08
3.52533e-08
3.24256e-08
3.20101e-08
2.9849e-08
2.88271e-08
2.72314e-08
2.56678e-08
2.46062e-08
2.25022e-08
2.20043e-08
1.9338e-08
1.95778e-08
1.85676e-08
4.13229e-08
4.58089e-08
3.93527e-08
4.21007e-08
3.72816e-08
3.86002e-08
3.49218e-08
3.52524e-08
3.24263e-08
3.20096e-08
2.98494e-08
2.88269e-08
2.72314e-08
2.56679e-08
2.46059e-08
2.25026e-08
2.20027e-08
1.93401e-08
1.95301e-08
1.85076e-08
4.12675e-08
4.57645e-08
3.93487e-08
4.20972e-08
3.72829e-08
3.85989e-08
3.49227e-08
3.52516e-08
3.24269e-08
3.20092e-08
2.98496e-08
2.88268e-08
2.72315e-08
2.56681e-08
2.46057e-08
2.25029e-08
2.2001e-08
1.93418e-08
1.94759e-08
1.84429e-08
4.12575e-08
4.57449e-08
3.93435e-08
4.20963e-08
3.72821e-08
3.85993e-08
3.49224e-08
3.52519e-08
3.24267e-08
3.20094e-08
2.98495e-08
2.88268e-08
2.72314e-08
2.5668e-08
2.46057e-08
2.25026e-08
2.2e-08
1.93426e-08
1.94247e-08
1.83926e-08
)
;

boundaryField
{
    top
    {
        type            zeroGradient;
    }
    bottom
    {
        type            zeroGradient;
    }
    inlet
    {
        type            fixedValue;
        value           uniform 0;
    }
    outlet
    {
        type            fixedValue;
        value           uniform 0;
    }
    frontAndBack
    {
        type            empty;
    }
}


// ************************************************************************* //
