/*--------------------------------*- C++ -*----------------------------------*\
| =========                 |                                                 |
| \\      /  F ield         | OpenFOAM: The Open Source CFD Toolbox           |
|  \\    /   O peration     | Version:  4.1                                   |
|   \\  /    A nd           | Web:      www.OpenFOAM.org                      |
|    \\/     M anipulation  |                                                 |
\*---------------------------------------------------------------------------*/
FoamFile
{
    version     2.0;
    format      ascii;
    class       surfaceScalarField;
    location    "1.6";
    object      phi;
}
// * * * * * * * * * * * * * * * * * * * * * * * * * * * * * * * * * * * * * //

dimensions      [0 3 -1 0 0 0 0];

internalField   nonuniform List<scalar> 
760
(
1.24992e-06
-6.45555e-14
1.24992e-06
-4.40936e-14
1.24992e-06
4.22676e-16
1.24992e-06
-3.01612e-15
1.24992e-06
1.98873e-15
1.24992e-06
-1.6856e-15
1.24992e-06
1.33711e-15
1.24992e-06
-1.05495e-15
1.24992e-06
8.04155e-16
1.24992e-06
-5.81147e-16
1.24992e-06
3.78039e-16
1.24992e-06
-1.88487e-16
1.24992e-06
6.63916e-18
1.24992e-06
1.71986e-16
1.24992e-06
-3.60423e-16
1.24992e-06
5.1549e-16
1.24992e-06
-1.06382e-15
1.24992e-06
1.53824e-15
1.24992e-06
-2.63923e-14
-3.91721e-14
3.74977e-06
-1.94999e-13
3.74977e-06
-1.54473e-13
3.74977e-06
-3.49251e-15
3.74977e-06
-7.36733e-15
3.74977e-06
4.15988e-15
3.74977e-06
-3.65101e-15
3.74977e-06
2.86928e-15
3.74977e-06
-2.26758e-15
3.74977e-06
1.7267e-15
3.74977e-06
-1.24655e-15
3.74977e-06
8.08929e-16
3.74977e-06
-4.00223e-16
3.74977e-06
7.75871e-18
3.74977e-06
3.76594e-16
3.74977e-06
-7.94692e-16
3.74977e-06
1.06937e-15
3.74977e-06
-2.84028e-15
3.74977e-06
4.1076e-15
3.74977e-06
-9.73711e-14
-1.26368e-13
6.24963e-06
-3.52644e-13
6.24963e-06
-3.0476e-13
6.24963e-06
-1.22988e-14
6.24963e-06
-1.13467e-14
6.24963e-06
5.3387e-15
6.24963e-06
-4.90803e-15
6.24963e-06
3.81075e-15
6.24963e-06
-3.01822e-15
6.24963e-06
2.29505e-15
6.24963e-06
-1.65455e-15
6.24963e-06
1.07018e-15
6.24963e-06
-5.23974e-16
6.24963e-06
-1.13473e-18
6.24963e-06
5.13381e-16
6.24963e-06
-1.09205e-15
6.24963e-06
1.36021e-15
6.24963e-06
-4.75161e-15
6.24963e-06
6.9656e-15
6.24963e-06
-2.0014e-13
-2.41479e-13
8.7495e-06
-5.13726e-13
8.7495e-06
-4.68996e-13
8.7495e-06
-2.43573e-14
8.7495e-06
-1.47809e-14
8.7495e-06
5.65207e-15
8.7495e-06
-5.52425e-15
8.7495e-06
4.2238e-15
8.7495e-06
-3.3549e-15
8.7495e-06
2.54647e-15
8.7495e-06
-1.83254e-15
8.7495e-06
1.1804e-15
8.7495e-06
-5.7023e-16
8.7495e-06
-1.71448e-17
8.7495e-06
5.87205e-16
8.7495e-06
-1.26132e-15
8.7495e-06
1.42354e-15
8.7495e-06
-6.6623e-15
8.7495e-06
9.90989e-15
8.7495e-06
-3.1952e-13
-3.69368e-13
1.12494e-05
-6.57767e-13
1.12494e-05
-6.24319e-13
1.12494e-05
-3.79123e-14
1.12494e-05
-1.74833e-14
1.12494e-05
5.23878e-15
1.12494e-05
-5.5734e-15
1.12494e-05
4.17618e-15
1.12494e-05
-3.32982e-15
1.12494e-05
2.52139e-15
1.12494e-05
-1.81025e-15
1.12494e-05
1.15963e-15
1.12494e-05
-5.50189e-16
1.12494e-05
-3.74324e-17
1.12494e-05
6.03798e-16
1.12494e-05
-1.31291e-15
1.12494e-05
1.29666e-15
1.12494e-05
-8.42689e-15
1.12494e-05
1.2745e-14
1.12494e-05
-4.40939e-13
-4.95552e-13
1.37493e-05
-7.69073e-13
1.37493e-05
-7.52585e-13
1.37493e-05
-5.12411e-14
1.37493e-05
-1.92854e-14
1.37493e-05
4.24557e-15
1.37493e-05
-5.13568e-15
1.37493e-05
3.74071e-15
1.37493e-05
-2.99915e-15
1.37493e-05
2.26327e-15
1.37493e-05
-1.61954e-15
1.37493e-05
1.02933e-15
1.37493e-05
-4.7563e-16
1.37493e-05
-5.93514e-17
1.37493e-05
5.69858e-16
1.37493e-05
-1.25923e-15
1.37493e-05
1.01779e-15
1.37493e-05
-9.90621e-15
1.37493e-05
1.52659e-14
1.37493e-05
-5.51227e-13
-6.07004e-13
1.62492e-05
-8.36817e-13
1.62492e-05
-8.40587e-13
1.62492e-05
-6.28026e-14
1.62492e-05
-2.00608e-14
1.62492e-05
2.82296e-15
1.62492e-05
-4.2972e-15
1.62492e-05
2.99432e-15
1.62492e-05
-2.42237e-15
1.62492e-05
1.81801e-15
1.62492e-05
-1.29399e-15
1.62492e-05
8.11955e-16
1.62492e-05
-3.58717e-16
1.62492e-05
-8.05384e-17
1.62492e-05
4.93016e-16
1.62492e-05
-1.11474e-15
1.62492e-05
6.2549e-16
1.62492e-05
-1.09798e-14
1.62492e-05
1.72618e-14
1.62492e-05
-6.39526e-13
-6.93072e-13
1.87491e-05
-8.55604e-13
1.87491e-05
-8.80749e-13
1.87491e-05
-7.13697e-14
1.87491e-05
-1.9746e-14
1.87491e-05
1.12034e-15
1.87491e-05
-3.14908e-15
1.87491e-05
2.01679e-15
1.87491e-05
-1.66127e-15
1.87491e-05
1.23326e-15
1.87491e-05
-8.68381e-16
1.87491e-05
5.30625e-16
1.87491e-05
-2.11734e-16
1.87491e-05
-9.90397e-17
1.87491e-05
3.81785e-16
1.87491e-05
-8.95919e-16
1.87491e-05
1.57913e-16
1.87491e-05
-1.15573e-14
1.87491e-05
1.85331e-14
1.87491e-05
-6.97882e-13
-7.46088e-13
2.12491e-05
-8.25215e-13
2.12491e-05
-8.70982e-13
2.12491e-05
-7.61343e-14
2.12491e-05
-1.83555e-14
2.12491e-05
-7.18118e-16
2.12491e-05
-1.78663e-15
2.12491e-05
8.89562e-16
2.12491e-05
-7.79237e-16
2.12491e-05
5.57699e-16
2.12491e-05
-3.7814e-16
2.12491e-05
2.08776e-16
2.12491e-05
-4.69239e-17
2.12491e-05
-1.13338e-16
2.12491e-05
2.45473e-16
2.12491e-05
-6.21185e-16
2.12491e-05
-3.47577e-16
2.12491e-05
-1.15868e-14
2.12491e-05
1.89182e-14
2.12491e-05
-7.21654e-13
-7.61805e-13
2.3749e-05
-7.50349e-13
2.3749e-05
-8.14489e-13
2.3749e-05
-7.67658e-14
2.3749e-05
-1.59907e-14
2.3749e-05
-2.55678e-15
2.3749e-05
-3.08585e-16
2.3749e-05
-3.05222e-16
2.3749e-05
1.59583e-16
2.3749e-05
-1.5947e-16
2.3749e-05
1.41019e-16
2.3749e-05
-1.30165e-16
2.3749e-05
1.23729e-16
2.3749e-05
-1.22409e-16
2.3749e-05
9.40635e-17
2.3749e-05
-3.10706e-16
2.3749e-05
-8.54743e-16
2.3749e-05
-1.1061e-14
2.3749e-05
1.83249e-14
2.3749e-05
-7.09663e-13
-7.39572e-13
2.6249e-05
-6.39893e-13
2.6249e-05
-7.19055e-13
2.6249e-05
-7.34183e-14
2.6249e-05
-1.28393e-14
2.6249e-05
-4.27093e-15
2.6249e-05
1.18395e-15
2.6249e-05
-1.48576e-15
2.6249e-05
1.09097e-15
2.6249e-05
-8.69208e-16
2.6249e-05
6.5361e-16
2.6249e-05
-4.63029e-16
2.6249e-05
2.88592e-16
2.6249e-05
-1.25769e-16
2.6249e-05
-6.18631e-17
2.6249e-05
1.38358e-17
2.6249e-05
-1.32877e-15
2.6249e-05
-1.00199e-14
2.6249e-05
1.67565e-14
2.6249e-05
-6.64102e-13
-6.82266e-13
2.87491e-05
-5.05947e-13
2.87491e-05
-5.96055e-13
2.87491e-05
-6.66826e-14
2.87491e-05
-9.16746e-15
2.87491e-05
-5.748e-15
2.87491e-05
2.58851e-15
2.87491e-05
-2.57149e-15
2.87491e-05
1.95135e-15
2.87491e-05
-1.52309e-15
2.87491e-05
1.12469e-15
2.87491e-05
-7.67188e-16
2.87491e-05
4.36579e-16
2.87491e-05
-1.23423e-16
2.87491e-05
-2.11322e-16
2.87491e-05
3.29592e-16
2.87491e-05
-1.73654e-15
2.87491e-05
-8.54926e-15
2.87491e-05
1.43303e-14
2.87491e-05
-5.90178e-13
-5.95936e-13
3.12491e-05
-3.62682e-13
3.12491e-05
-4.59233e-13
3.12491e-05
-5.74807e-14
3.12491e-05
-5.3027e-15
3.12491e-05
-6.88754e-15
3.12491e-05
3.80252e-15
3.12491e-05
-3.48395e-15
3.12491e-05
2.67845e-15
3.12491e-05
-2.07384e-15
3.12491e-05
1.52022e-15
3.12491e-05
-1.02075e-15
3.12491e-05
5.57162e-16
3.12491e-05
-1.15803e-16
3.12491e-05
-3.43095e-16
3.12491e-05
6.1294e-16
3.12491e-05
-2.04705e-15
3.12491e-05
-6.77639e-15
3.12491e-05
1.12777e-14
3.12491e-05
-4.95585e-13
-4.89268e-13
3.37492e-05
-2.24766e-13
3.37492e-05
-3.23017e-13
3.37492e-05
-4.69243e-14
3.37492e-05
-1.61033e-15
3.37492e-05
-7.60011e-15
3.37492e-05
4.72459e-15
3.37492e-05
-4.1475e-15
3.37492e-05
3.21193e-15
3.37492e-05
-2.47579e-15
3.37492e-05
1.80746e-15
3.37492e-05
-1.20276e-15
3.37492e-05
6.40474e-16
3.37492e-05
-1.03759e-16
3.37492e-05
-4.45954e-16
3.37492e-05
8.39999e-16
3.37492e-05
-2.23201e-15
3.37492e-05
-4.86125e-15
3.37492e-05
7.92913e-15
3.37492e-05
-3.89653e-13
-3.7269e-13
3.62493e-05
-1.06107e-13
3.62493e-05
-2.01124e-13
3.62493e-05
-3.61277e-14
3.62493e-05
1.53375e-15
3.62493e-05
-7.80523e-15
3.62493e-05
5.25592e-15
3.62493e-05
-4.48995e-15
3.62493e-05
3.49391e-15
3.62493e-05
-2.68525e-15
3.62493e-05
1.95513e-15
3.62493e-05
-1.29334e-15
3.62493e-05
6.77276e-16
3.62493e-05
-8.83276e-17
3.62493e-05
-5.08914e-16
3.62493e-05
9.87118e-16
3.62493e-05
-2.26648e-15
3.62493e-05
-2.98579e-15
3.62493e-05
4.6734e-15
3.62493e-05
-2.82578e-13
-2.57551e-13
3.87494e-05
-1.76745e-14
3.87494e-05
-1.04243e-13
3.87494e-05
-2.60415e-14
3.87494e-05
3.77285e-15
3.87494e-05
-7.42885e-15
3.87494e-05
5.30178e-15
3.87494e-05
-4.44305e-15
3.87494e-05
3.46949e-15
3.87494e-05
-2.66087e-15
3.87494e-05
1.93369e-15
3.87494e-05
-1.27374e-15
3.87494e-05
6.58951e-16
3.87494e-05
-7.06638e-17
3.87494e-05
-5.21533e-16
3.87494e-05
1.03143e-15
3.87494e-05
-2.12983e-15
3.87494e-05
-1.34042e-15
3.87494e-05
1.9113e-15
3.87494e-05
-1.84061e-13
-1.54679e-13
4.12495e-05
3.32055e-14
4.12495e-05
-3.91837e-14
4.12495e-05
-1.72629e-14
4.12495e-05
4.79421e-15
4.12495e-05
-6.40076e-15
4.12495e-05
4.77306e-15
4.12495e-05
-3.94313e-15
4.12495e-05
3.0873e-15
4.12495e-05
-2.36403e-15
4.12495e-05
1.71555e-15
4.12495e-05
-1.12647e-15
4.12495e-05
5.77469e-16
4.12495e-05
-5.18176e-17
4.12495e-05
-4.74209e-16
4.12495e-05
9.51493e-16
4.12495e-05
-1.80685e-15
4.12495e-05
-1.10853e-16
4.12495e-05
-1.99193e-17
4.12495e-05
-1.02705e-13
-7.36846e-14
4.37496e-05
4.5959e-14
4.37496e-05
-5.71256e-15
4.37496e-05
-9.96029e-15
4.37496e-05
4.34967e-15
4.37496e-05
-4.65204e-15
4.37496e-05
3.5874e-15
4.37496e-05
-2.93132e-15
4.37496e-05
2.29988e-15
4.37496e-05
-1.75895e-15
4.37496e-05
1.27509e-15
4.37496e-05
-8.35255e-16
4.37496e-05
4.25245e-16
4.37496e-05
-3.25371e-17
4.37496e-05
-3.58494e-16
4.37496e-05
7.27746e-16
4.37496e-05
-1.28866e-15
4.37496e-05
5.35247e-16
4.37496e-05
-8.95826e-16
4.37496e-05
-4.39506e-14
-2.08226e-14
4.62498e-05
2.57795e-14
4.62498e-05
2.53499e-15
4.62498e-05
-3.79686e-15
4.62498e-05
2.26017e-15
4.62498e-05
-2.11195e-15
4.62498e-05
1.66949e-15
4.62498e-05
-1.35307e-15
4.62498e-05
1.06328e-15
4.62498e-05
-8.1247e-16
4.62498e-05
5.88497e-16
4.62498e-05
-3.84819e-16
4.62498e-05
1.9494e-16
4.62498e-05
-1.30337e-17
4.62498e-05
-1.67382e-16
4.62498e-05
3.42944e-16
4.62498e-05
-5.73387e-16
4.62498e-05
4.57579e-16
4.62498e-05
-6.84e-16
4.62498e-05
-1.03447e-14
8.27938e-16
4.87499e-05
4.87499e-05
4.87499e-05
4.87499e-05
4.87499e-05
4.87499e-05
4.87499e-05
4.87499e-05
4.87499e-05
4.87499e-05
4.87499e-05
4.87499e-05
4.87499e-05
4.87499e-05
4.87499e-05
4.87499e-05
4.87499e-05
4.87499e-05
4.87499e-05
)
;

boundaryField
{
    top
    {
        type            calculated;
        value           uniform 0;
    }
    bottom
    {
        type            calculated;
        value           uniform 0;
    }
    inlet
    {
        type            calculated;
        value           nonuniform List<scalar> 
20
(
-1.24992e-06
-3.74977e-06
-6.24963e-06
-8.7495e-06
-1.12494e-05
-1.37493e-05
-1.62492e-05
-1.87491e-05
-2.12491e-05
-2.3749e-05
-2.6249e-05
-2.87491e-05
-3.12491e-05
-3.37492e-05
-3.62493e-05
-3.87494e-05
-4.12495e-05
-4.37496e-05
-4.62498e-05
-4.87499e-05
)
;
    }
    outlet
    {
        type            calculated;
        value           nonuniform List<scalar> 
20
(
1.24992e-06
3.74977e-06
6.24963e-06
8.7495e-06
1.12494e-05
1.37493e-05
1.62492e-05
1.87491e-05
2.12491e-05
2.3749e-05
2.6249e-05
2.87491e-05
3.12491e-05
3.37492e-05
3.62493e-05
3.87494e-05
4.12495e-05
4.37496e-05
4.62498e-05
4.87499e-05
)
;
    }
    frontAndBack
    {
        type            empty;
        value           nonuniform 0();
    }
}


// ************************************************************************* //
