/*--------------------------------*- C++ -*----------------------------------*\
| =========                 |                                                 |
| \\      /  F ield         | OpenFOAM: The Open Source CFD Toolbox           |
|  \\    /   O peration     | Version:  4.1                                   |
|   \\  /    A nd           | Web:      www.OpenFOAM.org                      |
|    \\/     M anipulation  |                                                 |
\*---------------------------------------------------------------------------*/
FoamFile
{
    version     2.0;
    format      ascii;
    class       volVectorField;
    location    "1.6";
    object      U;
}
// * * * * * * * * * * * * * * * * * * * * * * * * * * * * * * * * * * * * * //

dimensions      [0 1 -1 0 0 0 0];

internalField   nonuniform List<vector> 
400
(
(0.0249985 -2.86142e-11 0)
(0.0249985 -1.76232e-11 0)
(0.0249985 6.00521e-13 0)
(0.0249985 -1.50188e-12 0)
(0.0249985 1.04735e-12 0)
(0.0249985 -8.7795e-13 0)
(0.0249985 6.98781e-13 0)
(0.0249985 -5.51039e-13 0)
(0.0249985 4.20266e-13 0)
(0.0249985 -3.039e-13 0)
(0.0249985 1.97943e-13 0)
(0.0249985 -9.90665e-14 0)
(0.0249985 4.22488e-15 0)
(0.0249985 8.90499e-14 0)
(0.0249985 -1.86353e-13 0)
(0.0249985 2.71428e-13 0)
(0.0249985 -5.09961e-13 0)
(0.0249985 6.71756e-13 0)
(0.0249985 -9.89816e-12 0)
(0.0249985 -1.63725e-11 0)
(0.0749955 -1.20814e-10 0)
(0.0749955 -8.86254e-11 0)
(0.0749955 -4.34074e-13 0)
(0.0749955 -5.1048e-12 0)
(0.0749955 3.18356e-12 0)
(0.0749955 -2.73087e-12 0)
(0.0749955 2.15909e-12 0)
(0.0749955 -1.70451e-12 0)
(0.0749955 1.29882e-12 0)
(0.0749955 -9.38281e-13 0)
(0.0749955 6.09814e-13 0)
(0.0749955 -3.03173e-13 0)
(0.0749955 8.86581e-15 0)
(0.0749955 2.79885e-13 0)
(0.0749955 -5.88079e-13 0)
(0.0749955 8.22418e-13 0)
(0.0749955 -1.866e-12 0)
(0.0749955 2.75354e-12 0)
(0.0749955 -5.40059e-11 0)
(0.0749955 -7.51033e-11 0)
(0.124993 -2.68259e-10 0)
(0.124993 -2.21917e-10 0)
(0.124993 -6.93883e-12 0)
(0.124993 -9.37987e-12 0)
(0.124993 4.9102e-12 0)
(0.124993 -4.38953e-12 0)
(0.124993 3.43307e-12 0)
(0.124993 -2.71549e-12 0)
(0.124993 2.06662e-12 0)
(0.124993 -1.49115e-12 0)
(0.124993 9.66422e-13 0)
(0.124993 -4.76201e-13 0)
(0.124993 5.24427e-15 0)
(0.124993 4.55272e-13 0)
(0.124993 -9.64e-13 0)
(0.124993 1.25698e-12 0)
(0.124993 -3.75185e-12 0)
(0.124993 5.40252e-12 0)
(0.124993 -1.42248e-10 0)
(0.124993 -1.77893e-10 0)
(0.17499 -4.34108e-10 0)
(0.17499 -3.85398e-10 0)
(0.17499 -1.76656e-11 0)
(0.17499 -1.32141e-11 0)
(0.17499 5.69767e-12 0)
(0.17499 -5.36805e-12 0)
(0.17499 4.14199e-12 0)
(0.17499 -3.28433e-12 0)
(0.17499 2.49558e-12 0)
(0.17499 -1.7978e-12 0)
(0.17499 1.16088e-12 0)
(0.17499 -5.65286e-13 0)
(0.17499 -7.61663e-15 0)
(0.17499 5.65331e-13 0)
(0.17499 -1.20744e-12 0)
(0.17499 1.44476e-12 0)
(0.17499 -5.72036e-12 0)
(0.17499 8.41913e-12 0)
(0.17499 -2.57086e-10 0)
(0.17499 -3.03602e-10 0)
(0.224987 -5.91846e-10 0)
(0.224987 -5.50919e-10 0)
(0.224987 -3.09555e-11 0)
(0.224987 -1.63439e-11 0)
(0.224987 5.61732e-12 0)
(0.224987 -5.68718e-12 0)
(0.224987 4.31143e-12 0)
(0.224987 -3.43e-12 0)
(0.224987 2.60086e-12 0)
(0.224987 -1.86983e-12 0)
(0.224987 1.20162e-12 0)
(0.224987 -5.76103e-13 0)
(0.224987 -2.64769e-14 0)
(0.224987 6.09607e-13 0)
(0.224987 -1.31634e-12 0)
(0.224987 1.40478e-12 0)
(0.224987 -7.60097e-12 0)
(0.224987 1.13582e-11 0)
(0.224987 -3.81285e-10 0)
(0.224987 -4.3446e-10 0)
(0.274985 -7.22829e-10 0)
(0.274985 -6.96708e-10 0)
(0.274985 -4.48307e-11 0)
(0.274985 -1.86258e-11 0)
(0.274985 4.86989e-12 0)
(0.274985 -5.46658e-12 0)
(0.274985 4.04671e-12 0)
(0.274985 -3.23417e-12 0)
(0.274985 2.4454e-12 0)
(0.274985 -1.7532e-12 0)
(0.274985 1.11932e-12 0)
(0.274985 -5.2515e-13 0)
(0.274985 -4.82712e-14 0)
(0.274985 5.98623e-13 0)
(0.274985 -1.31083e-12 0)
(0.274985 1.19057e-12 0)
(0.274985 -9.2529e-12 0)
(0.274985 1.40886e-11 0)
(0.274985 -5.00157e-10 0)
(0.274985 -5.56225e-10 0)
(0.324984 -8.14336e-10 0)
(0.324984 -8.07422e-10 0)
(0.324984 -5.76361e-11 0)
(0.324984 -1.99364e-11 0)
(0.324984 3.62237e-12 0)
(0.324984 -4.80473e-12 0)
(0.324984 3.4349e-12 0)
(0.324984 -2.76426e-12 0)
(0.324984 2.08124e-12 0)
(0.324984 -1.48596e-12 0)
(0.324984 9.39406e-13 0)
(0.324984 -4.26163e-13 0)
(0.324984 -7.03865e-14 0)
(0.324984 5.41069e-13 0)
(0.324984 -1.20754e-12 0)
(0.324984 8.44975e-13 0)
(0.324984 -1.05546e-11 0)
(0.324984 1.64009e-11 0)
(0.324984 -6.0176e-10 0)
(0.324984 -6.57231e-10 0)
(0.374982 -8.58309e-10 0)
(0.374982 -8.72723e-10 0)
(0.374982 -6.79655e-11 0)
(0.374982 -2.01741e-11 0)
(0.374982 2.02314e-12 0)
(0.374982 -3.78838e-12 0)
(0.374982 2.55297e-12 0)
(0.374982 -2.07982e-12 0)
(0.374982 1.5543e-12 0)
(0.374982 -1.10168e-12 0)
(0.374982 6.84283e-13 0)
(0.374982 -2.91169e-13 0)
(0.374982 -9.06731e-14 0)
(0.374982 4.44843e-13 0)
(0.374982 -1.02157e-12 0)
(0.374982 4.05783e-13 0)
(0.374982 -1.13978e-11 0)
(0.374982 1.80859e-11 0)
(0.374982 -6.7664e-10 0)
(0.374982 -7.28252e-10 0)
(0.424981 -8.51975e-10 0)
(0.424981 -8.87816e-10 0)
(0.424981 -7.47829e-11 0)
(0.424981 -1.93086e-11 0)
(0.424981 2.17623e-13 0)
(0.424981 -2.50907e-12 0)
(0.424981 1.48029e-12 0)
(0.424981 -1.24244e-12 0)
(0.424981 9.12006e-13 0)
(0.424981 -6.3493e-13 0)
(0.424981 3.76877e-13 0)
(0.424981 -1.32262e-13 0)
(0.424981 -1.07392e-13 0)
(0.424981 3.18687e-13 0)
(0.424981 -7.70006e-13 0)
(0.424981 -8.97786e-14 0)
(0.424981 -1.17089e-11 0)
(0.424981 1.89531e-11 0)
(0.424981 -7.18428e-10 0)
(0.424981 -7.63238e-10 0)
(0.474981 -7.97677e-10 0)
(0.474981 -8.53349e-10 0)
(0.474981 -7.75085e-11 0)
(0.474981 -1.7396e-11 0)
(0.474981 -1.65369e-12 0)
(0.474981 -1.06388e-12 0)
(0.474981 2.98797e-13 0)
(0.474981 -3.15972e-13 0)
(0.474981 2.03364e-13 0)
(0.474981 -1.21332e-13 0)
(0.474981 4.06584e-14 0)
(0.474981 3.84198e-14 0)
(0.474981 -1.19266e-13 0)
(0.474981 1.72257e-13 0)
(0.474981 -4.72161e-13 0)
(0.474981 -6.04886e-13 0)
(0.474981 -1.1457e-11 0)
(0.474981 1.88672e-11 0)
(0.474981 -7.24194e-10 0)
(0.474981 -7.59711e-10 0)
(0.524981 -7.02425e-10 0)
(0.524981 -7.75029e-10 0)
(0.524981 -7.60579e-11 0)
(0.524981 -1.45819e-11 0)
(0.524981 -3.45995e-12 0)
(0.524981 4.46864e-13 0)
(0.524981 -9.09187e-13 0)
(0.524981 6.35123e-13 0)
(0.524981 -5.22289e-13 0)
(0.524981 4.03359e-13 0)
(0.524981 -3.00972e-13 0)
(0.524981 2.09016e-13 0)
(0.524981 -1.25537e-13 0)
(0.524981 1.58866e-14 0)
(0.524981 -1.49062e-13 0)
(0.524981 -1.1039e-12 0)
(0.524981 -1.06581e-11 0)
(0.524981 1.77773e-11 0)
(0.524981 -6.94504e-10 0)
(0.524981 -7.1884e-10 0)
(0.574981 -5.76976e-10 0)
(0.574981 -6.62712e-10 0)
(0.574981 -7.08227e-11 0)
(0.574981 -1.10966e-11 0)
(0.574981 -5.08223e-12 0)
(0.574981 1.921e-12 0)
(0.574981 -2.06218e-12 0)
(0.574981 1.54671e-12 0)
(0.574981 -1.21604e-12 0)
(0.574981 9.03796e-13 0)
(0.574981 -6.25035e-13 0)
(0.574981 3.68134e-13 0)
(0.574981 -1.25976e-13 0)
(0.574981 -1.39592e-13 0)
(0.574981 1.76909e-13 0)
(0.574981 -1.55275e-12 0)
(0.574981 -9.37602e-12 0)
(0.574981 1.5741e-11 0)
(0.574981 -6.33167e-10 0)
(0.574981 -6.45199e-10 0)
(0.624982 -4.34814e-10 0)
(0.624982 -5.29324e-10 0)
(0.624982 -6.25902e-11 0)
(0.624982 -7.2421e-12 0)
(0.624982 -6.41396e-12 0)
(0.624982 3.25553e-12 0)
(0.624982 -3.08034e-12 0)
(0.624982 2.35563e-12 0)
(0.624982 -1.82986e-12 0)
(0.624982 1.34536e-12 0)
(0.624982 -9.09183e-13 0)
(0.624982 5.04927e-13 0)
(0.624982 -1.20817e-13 0)
(0.624982 -2.83007e-13 0)
(0.624982 4.82373e-13 0)
(0.624982 -1.91921e-12 0)
(0.624982 -7.71888e-12 0)
(0.624982 1.29337e-11 0)
(0.624982 -5.46811e-10 0)
(0.624982 -5.46337e-10 0)
(0.674984 -2.90699e-10 0)
(0.674984 -3.89327e-10 0)
(0.674984 -5.24202e-11 0)
(0.674984 -3.37102e-12 0)
(0.674984 -7.36083e-12 0)
(0.674984 4.34831e-12 0)
(0.674984 -3.8866e-12 0)
(0.674984 3.00051e-12 0)
(0.674984 -2.31723e-12 0)
(0.674984 1.69464e-12 0)
(0.674984 -1.132e-12 0)
(0.674984 6.09217e-13 0)
(0.674984 -1.1073e-13 0)
(0.674984 -4.03094e-13 0)
(0.674984 7.43484e-13 0)
(0.674984 -2.17355e-12 0)
(0.674984 -5.83272e-12 0)
(0.674984 9.64299e-12 0)
(0.674984 -4.44147e-10 0)
(0.674984 -4.32026e-10 0)
(0.724985 -1.59335e-10 0)
(0.724985 -2.57272e-10 0)
(0.724985 -4.14747e-11 0)
(0.724985 1.41679e-13 0)
(0.724985 -7.84075e-12 0)
(0.724985 5.10075e-12 0)
(0.724985 -4.40839e-12 0)
(0.724985 3.42331e-12 0)
(0.724985 -2.6343e-12 0)
(0.724985 1.92022e-12 0)
(0.724985 -1.27347e-12 0)
(0.724985 6.71666e-13 0)
(0.724985 -9.67067e-14 0)
(0.724985 -4.88866e-13 0)
(0.724985 9.36731e-13 0)
(0.724985 -2.28954e-12 0)
(0.724985 -3.89065e-12 0)
(0.724985 6.23902e-12 0)
(0.724985 -3.35215e-10 0)
(0.724985 -3.13434e-10 0)
(0.774987 -5.35098e-11 0)
(0.774987 -1.45774e-10 0)
(0.774987 -3.08375e-11 0)
(0.774987 2.9262e-12 0)
(0.774987 -7.77961e-12 0)
(0.774987 5.41778e-12 0)
(0.774987 -4.57698e-12 0)
(0.774987 3.56878e-12 0)
(0.774987 -2.73943e-12 0)
(0.774987 1.99236e-12 0)
(0.774987 -1.31469e-12 0)
(0.774987 6.83577e-13 0)
(0.774987 -7.98829e-14 0)
(0.774987 -5.29748e-13 0)
(0.774987 1.03916e-12 0)
(0.774987 -2.24474e-12 0)
(0.774987 -2.08075e-12 0)
(0.774987 3.13071e-12 0)
(0.774987 -2.30189e-10 0)
(0.774987 -2.01884e-10 0)
(0.82499 1.68629e-11 0)
(0.82499 -6.4162e-11 0)
(0.82499 -2.12808e-11 0)
(0.82499 4.62403e-12 0)
(0.82499 -7.08658e-12 0)
(0.82499 5.1923e-12 0)
(0.82499 -4.31422e-12 0)
(0.82499 3.37418e-12 0)
(0.82499 -2.58531e-12 0)
(0.82499 1.87715e-12 0)
(0.82499 -1.23409e-12 0)
(0.82499 6.34879e-13 0)
(0.82499 -6.12689e-14 0)
(0.82499 -5.14171e-13 0)
(0.82499 1.02546e-12 0)
(0.82499 -2.01565e-12 0)
(0.82499 -5.97153e-13 0)
(0.82499 7.15077e-13 0)
(0.82499 -1.38485e-10 0)
(0.82499 -1.07984e-10 0)
(0.874993 4.73798e-11 0)
(0.874993 -1.56186e-11 0)
(0.874993 -1.315e-11 0)
(0.874993 4.8727e-12 0)
(0.874993 -5.64269e-12 0)
(0.874993 4.29486e-12 0)
(0.874993 -3.52447e-12 0)
(0.874993 2.76297e-12 0)
(0.874993 -2.11408e-12 0)
(0.874993 1.53312e-12 0)
(0.874993 -1.00514e-12 0)
(0.874993 5.13008e-13 0)
(0.874993 -4.16884e-14 0)
(0.874993 -4.28589e-13 0)
(0.874993 8.65725e-13 0)
(0.874993 -1.57787e-12 0)
(0.874993 3.51805e-13 0)
(0.874993 -7.22763e-13 0)
(0.874993 -6.73262e-11 0)
(0.874993 -4.01396e-11 0)
(0.924995 4.09023e-11 0)
(0.924995 3.03192e-12 0)
(0.924995 -6.42258e-12 0)
(0.924995 3.54305e-12 0)
(0.924995 -3.43799e-12 0)
(0.924995 2.6974e-12 0)
(0.924995 -2.19218e-12 0)
(0.924995 1.72177e-12 0)
(0.924995 -1.31605e-12 0)
(0.924995 9.53522e-13 0)
(0.924995 -6.2388e-13 0)
(0.924995 3.16548e-13 0)
(0.924995 -2.21278e-14 0)
(0.924995 -2.70363e-13 0)
(0.924995 5.51731e-13 0)
(0.924995 -9.43206e-13 0)
(0.924995 6.27663e-13 0)
(0.924995 -9.67455e-13 0)
(0.924995 -2.17557e-11 0)
(0.924995 -3.83036e-12 0)
(0.974998 1.52445e-11 0)
(0.974998 3.30016e-12 0)
(0.974998 -1.76052e-12 0)
(0.974998 1.22877e-12 0)
(0.974998 -1.09275e-12 0)
(0.974998 8.71804e-13 0)
(0.974998 -7.04413e-13 0)
(0.974998 5.53957e-13 0)
(0.974998 -4.23178e-13 0)
(0.974998 3.06475e-13 0)
(0.974998 -2.00317e-13 0)
(0.974998 1.01332e-13 0)
(0.974998 -6.47057e-15 0)
(0.974998 -8.74761e-14 0)
(0.974998 1.79829e-13 0)
(0.974998 -2.95626e-13 0)
(0.974998 2.78501e-13 0)
(0.974998 -4.64046e-13 0)
(0.974998 -2.85096e-12 0)
(0.974998 3.17589e-12 0)
)
;

boundaryField
{
    top
    {
        type            fixedValue;
        value           uniform (1 0 0);
    }
    bottom
    {
        type            fixedValue;
        value           uniform (0 0 0);
    }
    inlet
    {
        type            zeroGradient;
    }
    outlet
    {
        type            zeroGradient;
    }
    frontAndBack
    {
        type            empty;
    }
}


// ************************************************************************* //
