/*--------------------------------*- C++ -*----------------------------------*\
| =========                 |                                                 |
| \\      /  F ield         | OpenFOAM: The Open Source CFD Toolbox           |
|  \\    /   O peration     | Version:  4.1                                   |
|   \\  /    A nd           | Web:      www.OpenFOAM.org                      |
|    \\/     M anipulation  |                                                 |
\*---------------------------------------------------------------------------*/
FoamFile
{
    version     2.0;
    format      ascii;
    class       surfaceScalarField;
    location    "2";
    object      phi;
}
// * * * * * * * * * * * * * * * * * * * * * * * * * * * * * * * * * * * * * //

dimensions      [0 3 -1 0 0 0 0];

internalField   nonuniform List<scalar> 
760
(
3.16639e-05
-1.6815e-12
3.16639e-05
3.71282e-12
3.16639e-05
-4.52327e-12
3.16639e-05
4.18643e-12
3.16639e-05
-5.65805e-12
3.16639e-05
5.23023e-12
3.16639e-05
-6.0423e-12
3.16639e-05
4.31053e-12
3.16639e-05
-5.6378e-12
3.16639e-05
2.44477e-12
3.16639e-05
-4.8086e-12
3.16639e-05
1.50904e-13
3.16639e-05
-4.52286e-12
3.16639e-05
-1.53067e-12
3.16639e-05
-4.92859e-12
3.16639e-05
-2.57692e-12
3.16639e-05
-4.46509e-12
3.16639e-05
-2.77575e-12
3.16639e-05
-2.41411e-12
-1.96656e-12
8.86589e-05
-5.55936e-12
8.86589e-05
8.20413e-12
8.86589e-05
-1.05924e-11
8.86589e-05
1.019e-11
8.86589e-05
-1.15883e-11
8.86589e-05
1.21488e-11
8.86589e-05
-1.06157e-11
8.86589e-05
1.02469e-11
8.86589e-05
-7.4914e-12
8.86589e-05
7.25675e-12
8.86589e-05
-3.38877e-12
8.86589e-05
4.70636e-12
8.86589e-05
-4.85415e-13
8.86589e-05
4.27778e-12
8.86589e-05
8.49493e-13
8.86589e-05
4.48168e-12
8.86589e-05
2.20236e-12
8.86589e-05
3.56958e-12
8.86589e-05
1.33576e-13
-3.96786e-12
0.000139321
-1.01118e-11
0.000139321
1.25118e-11
0.000139321
-1.68427e-11
0.000139321
1.62782e-11
0.000139321
-1.70725e-11
0.000139321
1.87601e-11
0.000139321
-1.4106e-11
0.000139321
1.56393e-11
0.000139321
-7.639e-12
0.000139321
1.15946e-11
0.000139321
1.43428e-13
0.000139321
9.28502e-12
0.000139321
5.86369e-12
0.000139321
1.07774e-11
0.000139321
9.04348e-12
0.000139321
1.26294e-11
0.000139321
1.08299e-11
0.000139321
1.08807e-11
0.000139321
2.2172e-12
-7.4799e-12
0.000183651
-1.41122e-11
0.000183651
1.61517e-11
0.000183651
-2.24248e-11
0.000183651
2.15818e-11
0.000183651
-2.17532e-11
0.000183651
2.43612e-11
0.000183651
-1.6893e-11
0.000183651
2.00254e-11
0.000183651
-7.36411e-12
0.000183651
1.49709e-11
0.000183651
3.66606e-12
0.000183651
1.28816e-11
0.000183651
1.17721e-11
0.000183651
1.61043e-11
0.000183651
1.64572e-11
0.000183651
1.94021e-11
0.000183651
1.84068e-11
0.000183651
1.70442e-11
0.000183651
3.3332e-12
-1.12546e-11
0.000221647
-1.73308e-11
0.000221647
1.96011e-11
0.000221647
-2.72681e-11
0.000221647
2.61876e-11
0.000221647
-2.57904e-11
0.000221647
2.90273e-11
0.000221647
-1.92164e-11
0.000221647
2.34587e-11
0.000221647
-7.01066e-12
0.000221647
1.73552e-11
0.000221647
6.72751e-12
0.000221647
1.53239e-11
0.000221647
1.66656e-11
0.000221647
1.99004e-11
0.000221647
2.23996e-11
0.000221647
2.42772e-11
0.000221647
2.42501e-11
0.000221647
2.14698e-11
0.000221647
3.45015e-12
-1.50754e-11
0.000253311
-1.95307e-11
0.000253311
2.29756e-11
0.000253311
-3.11378e-11
0.000253311
3.00301e-11
0.000253311
-2.90501e-11
0.000253311
3.27148e-11
0.000253311
-2.09796e-11
0.000253311
2.60082e-11
0.000253311
-6.51419e-12
0.000253311
1.89461e-11
0.000253311
9.40935e-12
0.000253311
1.69347e-11
0.000253311
2.07227e-11
0.000253311
2.25891e-11
0.000253311
2.7197e-11
0.000253311
2.7766e-11
0.000253311
2.88277e-11
0.000253311
2.46116e-11
0.000253311
3.27828e-12
-1.82922e-11
0.000278642
-2.0615e-11
0.000278642
2.63372e-11
0.000278642
-3.39199e-11
0.000278642
3.30981e-11
0.000278642
-3.14944e-11
0.000278642
3.54456e-11
0.000278642
-2.21793e-11
0.000278642
2.77685e-11
0.000278642
-5.89551e-12
0.000278642
1.99094e-11
0.000278642
1.17089e-11
0.000278642
1.79354e-11
0.000278642
2.40091e-11
0.000278642
2.44359e-11
0.000278642
3.10024e-11
0.000278642
3.01767e-11
0.000278642
3.23844e-11
0.000278642
2.67134e-11
0.000278642
3.21112e-12
-2.05361e-11
0.00029764
-2.06054e-11
0.00029764
2.96141e-11
0.00029764
-3.5568e-11
0.00029764
3.53661e-11
0.00029764
-3.30995e-11
0.00029764
3.72328e-11
0.00029764
-2.28197e-11
0.00029764
2.88032e-11
0.00029764
-5.17951e-12
0.00029764
2.03517e-11
0.00029764
1.3614e-11
0.00029764
1.84595e-11
0.00029764
2.65583e-11
0.00029764
2.56e-11
0.00029764
3.38992e-11
0.00029764
3.1702e-11
0.00029764
3.50643e-11
0.00029764
2.79347e-11
0.00029764
3.45118e-12
-2.16183e-11
0.000310306
-1.96271e-11
0.000310306
3.26242e-11
0.000310306
-3.61037e-11
0.000310306
3.67948e-11
0.000310306
-3.38561e-11
0.000310306
3.80806e-11
0.000310306
-2.29093e-11
0.000310306
2.91446e-11
0.000310306
-4.3905e-12
0.000310306
2.03249e-11
0.000310306
1.51065e-11
0.000310306
1.85634e-11
0.000310306
2.83755e-11
0.000310306
2.6148e-11
0.000310306
3.591e-11
0.000310306
3.24333e-11
0.000310306
3.69188e-11
0.000310306
2.8367e-11
0.000310306
4.04823e-12
-2.15123e-11
0.000316639
-1.78914e-11
0.000316639
3.51022e-11
0.000316639
-3.56055e-11
0.000316639
3.73363e-11
0.000316639
-3.37661e-11
0.000316639
3.79887e-11
0.000316639
-2.24566e-11
0.000316639
2.88036e-11
0.000316639
-3.54576e-12
0.000316639
1.98449e-11
0.000316639
1.6172e-11
0.000316639
1.82568e-11
0.000316639
2.94554e-11
0.000316639
2.60931e-11
0.000316639
3.7027e-11
0.000316639
3.24042e-11
0.000316639
3.79441e-11
0.000316639
2.80706e-11
0.000316639
4.94861e-12
-2.0322e-11
0.000316639
-1.56662e-11
0.000316639
3.67432e-11
0.000316639
-3.41919e-11
0.000316639
3.69462e-11
0.000316639
-3.28437e-11
0.000316639
3.69613e-11
0.000316639
-2.1471e-11
0.000316639
2.77837e-11
0.000316639
-2.6552e-12
0.000316639
1.89136e-11
0.000316639
1.6804e-11
0.000316639
1.75331e-11
0.000316639
2.97943e-11
0.000316639
2.54316e-11
0.000316639
3.72383e-11
0.000316639
3.16303e-11
0.000316639
3.81158e-11
0.000316639
2.7105e-11
0.000316639
6.04225e-12
-1.82434e-11
0.000310306
-1.32437e-11
0.000310306
3.72498e-11
0.000310306
-3.20013e-11
0.000310306
3.55958e-11
0.000310306
-3.11164e-11
0.000310306
3.50148e-11
0.000310306
-1.99682e-11
0.000310306
2.60924e-11
0.000310306
-1.72675e-12
0.000310306
1.75333e-11
0.000310306
1.7e-11
0.000310306
1.6388e-11
0.000310306
2.93919e-11
0.000310306
2.41619e-11
0.000310306
3.6536e-11
0.000310306
3.01262e-11
0.000310306
3.74037e-11
0.000310306
2.55357e-11
0.000310306
7.18698e-12
-1.55337e-11
0.00029764
-1.09035e-11
0.00029764
3.63813e-11
0.00029764
-2.9171e-11
0.00029764
3.32841e-11
0.00029764
-2.86279e-11
0.00029764
3.21855e-11
0.00029764
-1.79772e-11
0.00029764
2.37503e-11
0.00029764
-7.75989e-13
0.00029764
1.57167e-11
0.00029764
1.67522e-11
0.00029764
1.48274e-11
0.00029764
2.82431e-11
0.00029764
2.22893e-11
0.00029764
3.49097e-11
0.00029764
2.79053e-11
0.00029764
3.57698e-11
0.00029764
2.34211e-11
0.00029764
8.21259e-12
-1.24901e-11
0.000278642
-8.87126e-12
0.000278642
3.39988e-11
0.000278642
-2.58202e-11
0.000278642
3.00462e-11
0.000278642
-2.54413e-11
0.000278642
2.85345e-11
0.000278642
-1.55503e-11
0.000278642
2.07978e-11
0.000278642
1.60741e-13
0.000278642
1.34906e-11
0.000278642
1.60319e-11
0.000278642
1.28649e-11
0.000278642
2.63203e-11
0.000278642
1.98156e-11
0.000278642
3.2325e-11
0.000278642
2.49608e-11
0.000278642
3.31451e-11
0.000278642
2.07791e-11
0.000278642
8.90495e-12
-9.44175e-12
0.000253311
-7.28316e-12
0.000253311
3.00977e-11
0.000253311
-2.20391e-11
0.000253311
2.59563e-11
0.000253311
-2.16434e-11
0.000253311
2.41517e-11
0.000253311
-1.27722e-11
0.000253311
1.72991e-11
0.000253311
1.01363e-12
0.000253311
1.0896e-11
0.000253311
1.47759e-11
0.000253311
1.05141e-11
0.000253311
2.35567e-11
0.000253311
1.67238e-11
0.000253311
2.86986e-11
0.000253311
2.12419e-11
0.000253311
2.94014e-11
0.000253311
1.75486e-11
0.000253311
8.97701e-12
-6.75055e-12
0.000221647
-6.14153e-12
0.000221647
2.48309e-11
0.000221647
-1.78855e-11
0.000221647
2.11246e-11
0.000221647
-1.7344e-11
0.000221647
1.91581e-11
0.000221647
-9.76289e-12
0.000221647
1.33483e-11
0.000221647
1.67454e-12
0.000221647
7.99326e-12
0.000221647
1.28836e-11
0.000221647
7.78932e-12
0.000221647
1.98447e-11
0.000221647
1.29773e-11
0.000221647
2.38929e-11
0.000221647
1.66509e-11
0.000221647
2.43445e-11
0.000221647
1.35763e-11
0.000221647
8.06742e-12
-4.80376e-12
0.000183651
-5.34622e-12
0.000183651
1.85428e-11
0.000183651
-1.34351e-11
0.000183651
1.57217e-11
0.000183651
-1.27236e-11
0.000183651
1.371e-11
0.000183651
-6.72085e-12
0.000183651
9.03589e-12
0.000183651
1.95379e-12
0.000183651
4.77589e-12
0.000183651
1.01592e-11
0.000183651
4.5664e-12
0.000183651
1.49367e-11
0.000183651
8.33455e-12
0.000183651
1.75641e-11
0.000183651
1.08229e-11
0.000183651
1.75395e-11
0.000183651
8.41491e-12
0.000183651
5.62624e-12
-4.05968e-12
0.000139321
-4.45692e-12
0.000139321
1.15779e-11
0.000139321
-8.56321e-12
0.000139321
9.81238e-12
0.000139321
-7.75237e-12
0.000139321
7.96696e-12
0.000139321
-3.63307e-12
0.000139321
4.639e-12
0.000139321
1.91487e-12
0.000139321
1.66553e-12
0.000139321
6.79668e-12
0.000139321
1.40884e-12
0.000139321
9.237e-12
0.000139321
3.51223e-12
0.000139321
1.03173e-11
0.000139321
4.59558e-12
0.000139321
9.66336e-12
0.000139321
2.74594e-12
0.000139321
1.97037e-12
-4.35063e-12
8.86589e-05
-3.1288e-12
8.86589e-05
4.64266e-12
8.86589e-05
-3.43429e-12
8.86589e-05
3.69878e-12
8.86589e-05
-2.76963e-12
8.86589e-05
2.18273e-12
8.86589e-05
-8.21277e-13
8.86589e-05
2.71018e-13
8.86589e-05
1.29592e-12
8.86589e-05
-1.44235e-12
8.86589e-05
2.58135e-12
8.86589e-05
-2.0069e-12
8.86589e-05
2.45938e-12
8.86589e-05
-1.9669e-12
8.86589e-05
1.70794e-12
8.86589e-05
-2.65196e-12
8.86589e-05
1.92202e-13
8.86589e-05
-4.11816e-12
8.86589e-05
-3.4654e-12
-5.96446e-12
3.16639e-05
3.16639e-05
3.16639e-05
3.16639e-05
3.16639e-05
3.16639e-05
3.16639e-05
3.16639e-05
3.16639e-05
3.16639e-05
3.16639e-05
3.16639e-05
3.16639e-05
3.16639e-05
3.16639e-05
3.16639e-05
3.16639e-05
3.16639e-05
3.16639e-05
)
;

boundaryField
{
    top
    {
        type            calculated;
        value           uniform 0;
    }
    bottom
    {
        type            calculated;
        value           uniform 0;
    }
    inlet
    {
        type            calculated;
        value           nonuniform List<scalar> 
20
(
-3.16639e-05
-8.86589e-05
-0.000139321
-0.000183651
-0.000221647
-0.000253311
-0.000278642
-0.00029764
-0.000310306
-0.000316639
-0.000316639
-0.000310306
-0.00029764
-0.000278642
-0.000253311
-0.000221647
-0.000183651
-0.000139321
-8.86589e-05
-3.16639e-05
)
;
    }
    outlet
    {
        type            calculated;
        value           nonuniform List<scalar> 
20
(
3.16639e-05
8.86589e-05
0.000139321
0.000183651
0.000221647
0.000253311
0.000278642
0.00029764
0.000310306
0.000316639
0.000316639
0.000310306
0.00029764
0.000278642
0.000253311
0.000221647
0.000183651
0.000139321
8.86589e-05
3.16639e-05
)
;
    }
    frontAndBack
    {
        type            empty;
        value           nonuniform 0();
    }
}


// ************************************************************************* //
