/*--------------------------------*- C++ -*----------------------------------*\
| =========                 |                                                 |
| \\      /  F ield         | OpenFOAM: The Open Source CFD Toolbox           |
|  \\    /   O peration     | Version:  4.1                                   |
|   \\  /    A nd           | Web:      www.OpenFOAM.org                      |
|    \\/     M anipulation  |                                                 |
\*---------------------------------------------------------------------------*/
FoamFile
{
    version     2.0;
    format      ascii;
    class       volVectorField;
    location    "2";
    object      U;
}
// * * * * * * * * * * * * * * * * * * * * * * * * * * * * * * * * * * * * * //

dimensions      [0 1 -1 0 0 0 0];

internalField   nonuniform List<vector> 
400
(
(0.633278 -7.15394e-10 0)
(0.633278 5.2893e-10 0)
(0.633278 -9.48687e-10 0)
(0.633278 1.00203e-09 0)
(0.633278 -9.09042e-10 0)
(0.633278 1.33888e-09 0)
(0.633278 -7.46535e-10 0)
(0.633278 1.40891e-09 0)
(0.633278 -2.36176e-10 0)
(0.633278 1.52696e-09 0)
(0.633278 5.28975e-10 0)
(0.633278 1.71338e-09 0)
(0.633278 1.36921e-09 0)
(0.633278 2.25532e-09 0)
(0.633278 2.16512e-09 0)
(0.633278 2.84631e-09 0)
(0.633278 2.79656e-09 0)
(0.633278 2.86636e-09 0)
(0.633278 2.35753e-09 0)
(0.633278 8.32511e-10 0)
(1.77318 -4.02299e-09 0)
(1.77318 7.6826e-09 0)
(1.77318 -8.93875e-09 0)
(1.77318 8.52197e-09 0)
(1.77318 -1.05894e-08 0)
(1.77318 1.01001e-08 0)
(1.77318 -1.04337e-08 0)
(1.77318 8.11713e-09 0)
(1.77318 -8.73978e-09 0)
(1.77318 4.78637e-09 0)
(1.77318 -6.42279e-09 0)
(1.77318 1.08818e-09 0)
(1.77318 -5.38255e-09 0)
(1.77318 -1.08593e-09 0)
(1.77318 -5.79085e-09 0)
(1.77318 -2.44634e-09 0)
(1.77318 -5.2733e-09 0)
(1.77318 -3.27362e-09 0)
(1.77318 -4.03311e-09 0)
(1.77318 -4.55901e-09 0)
(2.78642 -7.64694e-09 0)
(2.78642 9.51107e-09 0)
(2.78642 -1.28761e-08 0)
(2.78642 1.25951e-08 0)
(2.78642 -1.30998e-08 0)
(2.78642 1.47589e-08 0)
(2.78642 -1.08833e-08 0)
(2.78642 1.26741e-08 0)
(2.78642 -5.81789e-09 0)
(2.78642 9.95124e-09 0)
(2.78642 4.92928e-10 0)
(2.78642 8.52535e-09 0)
(2.78642 5.45996e-09 0)
(2.78642 1.0148e-08 0)
(2.78642 8.60564e-09 0)
(2.78642 1.20999e-08 0)
(2.78642 1.06484e-08 0)
(2.78642 1.08867e-08 0)
(2.78642 4.3956e-09 0)
(2.78642 -3.65963e-09 0)
(3.67301 -1.25487e-08 0)
(3.67301 1.45596e-08 0)
(3.67301 -1.99231e-08 0)
(3.67301 1.91885e-08 0)
(3.67301 -1.97734e-08 0)
(3.67301 2.17474e-08 0)
(3.67301 -1.58484e-08 0)
(3.67301 1.78486e-08 0)
(3.67301 -7.85738e-09 0)
(3.67301 1.30504e-08 0)
(3.67301 1.46252e-09 0)
(3.67301 1.05888e-08 0)
(3.67301 8.1556e-09 0)
(3.67301 1.26789e-08 0)
(3.67301 1.18012e-08 0)
(3.67301 1.49802e-08 0)
(3.67301 1.34799e-08 0)
(3.67301 1.28065e-08 0)
(3.67301 1.77283e-09 0)
(3.67301 -1.02051e-08 0)
(4.43294 -1.60015e-08 0)
(4.43294 1.7637e-08 0)
(4.43294 -2.48663e-08 0)
(4.43294 2.38374e-08 0)
(4.43294 -2.37246e-08 0)
(4.43294 2.66098e-08 0)
(4.43294 -1.80056e-08 0)
(4.43294 2.16382e-08 0)
(4.43294 -7.15428e-09 0)
(4.43294 1.60349e-08 0)
(4.43294 5.17746e-09 0)
(4.43294 1.39637e-08 0)
(4.43294 1.41285e-08 0)
(4.43294 1.78272e-08 0)
(4.43294 1.92769e-08 0)
(4.43294 2.1609e-08 0)
(4.43294 2.11242e-08 0)
(4.43294 1.90148e-08 0)
(4.43294 3.09157e-09 0)
(4.43294 -1.35086e-08 0)
(5.06622 -1.8688e-08 0)
(5.06622 2.10223e-08 0)
(5.06622 -2.92711e-08 0)
(5.06622 2.80665e-08 0)
(5.06622 -2.7408e-08 0)
(5.06622 3.08214e-08 0)
(5.06622 -2.0102e-08 0)
(5.06622 2.46618e-08 0)
(5.06622 -6.79359e-09 0)
(5.06622 1.80512e-08 0)
(5.06622 7.98112e-09 0)
(5.06622 1.59882e-08 0)
(5.06622 1.85371e-08 0)
(5.06622 2.10349e-08 0)
(5.06622 2.45723e-08 0)
(5.06622 2.57353e-08 0)
(5.06622 2.62489e-08 0)
(5.06622 2.27551e-08 0)
(5.06622 2.95103e-09 0)
(5.06622 -1.71685e-08 0)
(5.57284 -2.02663e-08 0)
(5.57284 2.43876e-08 0)
(5.57284 -3.26084e-08 0)
(5.57284 3.15111e-08 0)
(5.57284 -3.02685e-08 0)
(5.57284 3.40451e-08 0)
(5.57284 -2.16072e-08 0)
(5.57284 2.68394e-08 0)
(5.57284 -6.27023e-09 0)
(5.57284 1.93553e-08 0)
(5.57284 1.04388e-08 0)
(5.57284 1.73091e-08 0)
(5.57284 2.21875e-08 0)
(5.57284 2.33062e-08 0)
(5.57284 2.88606e-08 0)
(5.57284 2.86893e-08 0)
(5.57284 3.0307e-08 0)
(5.57284 2.54038e-08 0)
(5.57284 2.82405e-09 0)
(5.57284 -1.99384e-08 0)
(5.95281 -2.07221e-08 0)
(5.95281 2.77459e-08 0)
(5.95281 -3.48168e-08 0)
(5.95281 3.41741e-08 0)
(5.95281 -3.23007e-08 0)
(5.95281 3.6316e-08 0)
(5.95281 -2.25464e-08 0)
(5.95281 2.82555e-08 0)
(5.95281 -5.63011e-09 0)
(5.95281 2.00786e-08 0)
(5.95281 1.25166e-08 0)
(5.95281 1.8082e-08 0)
(5.95281 2.50916e-08 0)
(5.95281 2.48136e-08 0)
(5.95281 3.22043e-08 0)
(5.95281 3.06626e-08 0)
(5.95281 3.3423e-08 0)
(5.95281 2.70877e-08 0)
(5.95281 2.93059e-09 0)
(5.95281 -2.16048e-08 0)
(6.20612 -2.01426e-08 0)
(6.20612 3.09591e-08 0)
(6.20612 -3.58855e-08 0)
(6.20612 3.60231e-08 0)
(6.20612 -3.34862e-08 0)
(6.20612 3.76411e-08 0)
(6.20612 -2.2924e-08 0)
(6.20612 2.89552e-08 0)
(6.20612 -4.89606e-09 0)
(6.20612 2.02973e-08 0)
(6.20612 1.41996e-08 0)
(6.20612 1.83987e-08 0)
(6.20612 2.72662e-08 0)
(6.20612 2.56668e-08 0)
(6.20612 3.46522e-08 0)
(6.20612 3.17923e-08 0)
(6.20612 3.56896e-08 0)
(6.20612 2.79253e-08 0)
(6.20612 3.38268e-09 0)
(6.20612 -2.20657e-08 0)
(6.33277 -1.87084e-08 0)
(6.33277 3.37917e-08 0)
(6.33277 -3.58705e-08 0)
(6.33277 3.70151e-08 0)
(6.33277 -3.3822e-08 0)
(6.33277 3.80234e-08 0)
(6.33277 -2.27481e-08 0)
(6.33277 2.89604e-08 0)
(6.33277 -4.08769e-09 0)
(6.33277 2.00477e-08 0)
(6.33277 1.5473e-08 0)
(6.33277 1.82962e-08 0)
(6.33277 2.87133e-08 0)
(6.33277 2.5911e-08 0)
(6.33277 3.62151e-08 0)
(6.33277 3.21459e-08 0)
(6.33277 3.71342e-08 0)
(6.33277 2.79959e-08 0)
(6.33277 4.17231e-09 0)
(6.33277 -2.13662e-08 0)
(6.33277 -1.66674e-08 0)
(6.33277 3.59439e-08 0)
(6.33277 -3.48776e-08 0)
(6.33277 3.7102e-08 0)
(6.33277 -3.33161e-08 0)
(6.33277 3.74647e-08 0)
(6.33277 -2.20285e-08 0)
(6.33277 2.82796e-08 0)
(6.33277 -3.21944e-09 0)
(6.33277 1.93399e-08 0)
(6.33277 1.63247e-08 0)
(6.33277 1.7778e-08 0)
(6.33277 2.94264e-08 0)
(6.33277 2.55521e-08 0)
(6.33277 3.68814e-08 0)
(6.33277 3.17476e-08 0)
(6.33277 3.774e-08 0)
(6.33277 2.73595e-08 0)
(6.33277 5.20912e-09 0)
(6.33277 -1.96669e-08 0)
(6.20612 -1.43055e-08 0)
(6.20612 3.71023e-08 0)
(6.20612 -3.30434e-08 0)
(6.20612 3.62452e-08 0)
(6.20612 -3.19906e-08 0)
(6.20612 3.59768e-08 0)
(6.20612 -2.0779e-08 0)
(6.20612 2.69206e-08 0)
(6.20612 -2.30179e-09 0)
(6.20612 1.81791e-08 0)
(6.20612 1.67486e-08 0)
(6.20612 1.68417e-08 0)
(6.20612 2.94027e-08 0)
(6.20612 2.45902e-08 0)
(6.20612 3.66412e-08 0)
(6.20612 3.0615e-08 0)
(6.20612 3.74791e-08 0)
(6.20612 2.60821e-08 0)
(6.20612 6.36306e-09 0)
(6.20612 -1.72026e-08 0)
(5.95281 -1.19116e-08 0)
(5.95281 3.69874e-08 0)
(5.95281 -3.05128e-08 0)
(5.95281 3.44287e-08 0)
(5.95281 -2.98829e-08 0)
(5.95281 3.35888e-08 0)
(5.95281 -1.90241e-08 0)
(5.95281 2.49008e-08 0)
(5.95281 -1.34816e-09 0)
(5.95281 1.6577e-08 0)
(5.95281 1.6739e-08 0)
(5.95281 1.54925e-08 0)
(5.95281 2.86407e-08 0)
(5.95281 2.30319e-08 0)
(5.95281 3.54884e-08 0)
(5.95281 2.87672e-08 0)
(5.95281 3.63196e-08 0)
(5.95281 2.42321e-08 0)
(5.95281 7.47652e-09 0)
(5.95281 -1.4257e-08 0)
(5.57284 -9.73774e-09 0)
(5.57284 3.5401e-08 0)
(5.57284 -2.74182e-08 0)
(5.57284 3.16672e-08 0)
(5.57284 -2.70477e-08 0)
(5.57284 3.03498e-08 0)
(5.57284 -1.68072e-08 0)
(5.57284 2.22517e-08 0)
(5.57284 -3.88663e-10 0)
(5.57284 1.45535e-08 0)
(5.57284 1.62727e-08 0)
(5.57284 1.37385e-08 0)
(5.57284 2.71183e-08 0)
(5.57284 2.08764e-08 0)
(5.57284 3.33939e-08 0)
(5.57284 2.62023e-08 0)
(5.57284 3.42005e-08 0)
(5.57284 2.18462e-08 0)
(5.57284 8.35842e-09 0)
(5.57284 -1.11497e-08 0)
(5.06622 -7.96328e-09 0)
(5.06622 3.22654e-08 0)
(5.06622 -2.38658e-08 0)
(5.06622 2.80141e-08 0)
(5.06622 -2.35604e-08 0)
(5.06622 2.63355e-08 0)
(5.06622 -1.41981e-08 0)
(5.06622 1.90252e-08 0)
(5.06622 5.21498e-10 0)
(5.06622 1.21423e-08 0)
(5.06622 1.53018e-08 0)
(5.06622 1.15919e-08 0)
(5.06622 2.47876e-08 0)
(5.06622 1.81147e-08 0)
(5.06622 3.02995e-08 0)
(5.06622 2.28919e-08 0)
(5.06622 3.10259e-08 0)
(5.06622 1.89095e-08 0)
(5.06622 8.7589e-09 0)
(5.06622 -8.22302e-09 0)
(4.43294 -6.64028e-09 0)
(4.43294 2.76362e-08 0)
(4.43294 -1.991e-08 0)
(4.43294 2.35502e-08 0)
(4.43294 -1.94996e-08 0)
(4.43294 2.16513e-08 0)
(4.43294 -1.12809e-08 0)
(4.43294 1.53184e-08 0)
(4.43294 1.31284e-09 0)
(4.43294 9.43362e-09 0)
(4.43294 1.37733e-08 0)
(4.43294 9.12835e-09 0)
(4.43294 2.16115e-08 0)
(4.43294 1.48032e-08 0)
(4.43294 2.61689e-08 0)
(4.43294 1.88626e-08 0)
(4.43294 2.67183e-08 0)
(4.43294 1.54081e-08 0)
(4.43294 8.4214e-09 0)
(4.43294 -5.82296e-09 0)
(3.67301 -5.97415e-09 0)
(3.67301 2.19912e-08 0)
(3.67301 -1.58926e-08 0)
(3.67301 1.86105e-08 0)
(3.67301 -1.53299e-08 0)
(3.67301 1.6482e-08 0)
(3.67301 -8.52698e-09 0)
(3.67301 1.10186e-08 0)
(3.67301 1.49976e-09 0)
(3.67301 5.9132e-09 0)
(3.67301 1.10715e-08 0)
(3.67301 5.39778e-09 0)
(3.67301 1.66461e-08 0)
(3.67301 9.57302e-09 0)
(3.67301 1.96353e-08 0)
(3.67301 1.23802e-08 0)
(3.67301 1.9675e-08 0)
(3.67301 9.65596e-09 0)
(3.67301 5.96808e-09 0)
(3.67301 -4.90979e-09 0)
(2.78642 -4.29522e-09 0)
(2.78642 1.44866e-08 0)
(2.78642 -1.03441e-08 0)
(2.78642 1.23262e-08 0)
(2.78642 -9.47057e-09 0)
(2.78642 1.07916e-08 0)
(2.78642 -4.40241e-09 0)
(2.78642 7.43532e-09 0)
(2.78642 2.82132e-09 0)
(2.78642 4.6984e-09 0)
(2.78642 9.77458e-09 0)
(2.78642 5.42645e-09 0)
(2.78642 1.4237e-08 0)
(2.78642 9.32419e-09 0)
(2.78642 1.71228e-08 0)
(2.78642 1.19513e-08 0)
(2.78642 1.73572e-08 0)
(2.78642 9.65271e-09 0)
(2.78642 6.75286e-09 0)
(2.78642 -2.22461e-09 0)
(1.77318 -4.8867e-09 0)
(1.77318 9.12947e-09 0)
(1.77318 -7.23793e-09 0)
(1.77318 7.732e-09 0)
(1.77318 -6.52084e-09 0)
(1.77318 5.45057e-09 0)
(1.77318 -3.25344e-09 0)
(1.77318 1.93036e-09 0)
(1.77318 7.45015e-10 0)
(1.77318 -1.57404e-09 0)
(1.77318 3.60283e-09 0)
(1.77318 -3.05282e-09 0)
(1.77318 3.8917e-09 0)
(1.77318 -2.91119e-09 0)
(1.77318 2.96049e-09 0)
(1.77318 -3.53954e-09 0)
(1.77318 1.30558e-09 0)
(1.77318 -4.97395e-09 0)
(1.77318 -3.43972e-09 0)
(1.77318 -6.70691e-09 0)
(0.633278 -6.24026e-10 0)
(0.633278 1.32699e-09 0)
(0.633278 -6.94386e-10 0)
(0.633278 1.03855e-09 0)
(0.633278 -3.45968e-10 0)
(0.633278 8.82073e-10 0)
(0.633278 4.05768e-10 0)
(0.633278 8.28729e-10 0)
(0.633278 1.35708e-09 0)
(0.633278 1.08548e-09 0)
(0.633278 2.31302e-09 0)
(0.633278 1.86398e-09 0)
(0.633278 3.19435e-09 0)
(0.633278 2.88446e-09 0)
(0.633278 4.00766e-09 0)
(0.633278 3.50737e-09 0)
(0.633278 4.03021e-09 0)
(0.633278 2.75764e-09 0)
(0.633278 1.68948e-09 0)
(0.633278 -5.9576e-10 0)
)
;

boundaryField
{
    top
    {
        type            fixedValue;
        value           uniform (0 0 0);
    }
    bottom
    {
        type            fixedValue;
        value           uniform (0 0 0);
    }
    inlet
    {
        type            zeroGradient;
    }
    outlet
    {
        type            zeroGradient;
    }
    frontAndBack
    {
        type            empty;
    }
}


// ************************************************************************* //
