/*--------------------------------*- C++ -*----------------------------------*\
| =========                 |                                                 |
| \\      /  F ield         | OpenFOAM: The Open Source CFD Toolbox           |
|  \\    /   O peration     | Version:  4.1                                   |
|   \\  /    A nd           | Web:      www.OpenFOAM.org                      |
|    \\/     M anipulation  |                                                 |
\*---------------------------------------------------------------------------*/
FoamFile
{
    version     2.0;
    format      ascii;
    class       surfaceScalarField;
    location    "0.7";
    object      phi;
}
// * * * * * * * * * * * * * * * * * * * * * * * * * * * * * * * * * * * * * //

dimensions      [0 3 -1 0 0 0 0];

internalField   nonuniform List<scalar> 
760
(
3.1633e-05
3.05785e-11
3.1633e-05
8.57218e-12
3.1633e-05
-1.49525e-11
3.1633e-05
6.85631e-12
3.1633e-05
-2.67201e-12
3.1633e-05
1.46245e-12
3.1633e-05
-2.86115e-12
3.1633e-05
4.551e-12
3.1633e-05
2.27768e-12
3.1633e-05
3.41635e-12
3.1633e-05
-4.79949e-13
3.1633e-05
3.98516e-12
3.1633e-05
3.89076e-12
3.1633e-05
5.41142e-12
3.1633e-05
2.90223e-12
3.1633e-05
4.40525e-12
3.1633e-05
5.46735e-13
3.1633e-05
1.19695e-11
3.1633e-05
1.83998e-11
-1.72184e-11
8.85669e-05
8.3847e-11
8.85669e-05
3.72156e-11
8.85669e-05
-3.77787e-11
8.85669e-05
1.28599e-11
8.85669e-05
-4.20931e-12
8.85669e-05
4.09284e-12
8.85669e-05
-5.4047e-12
8.85669e-05
9.56461e-12
8.85669e-05
4.97887e-12
8.85669e-05
8.62918e-12
8.85669e-05
6.75269e-13
8.85669e-05
9.13204e-12
8.85669e-05
8.90901e-12
8.85669e-05
1.25077e-11
8.85669e-05
7.01673e-12
8.85669e-05
1.25248e-11
8.85669e-05
-3.27413e-12
8.85669e-05
3.99605e-11
8.85669e-05
5.31132e-11
-4.36439e-11
0.00013917
1.3741e-10
0.00013917
7.82215e-11
0.00013917
-5.33825e-11
0.00013917
1.58133e-11
0.00013917
-3.64662e-12
0.00013917
6.68848e-12
0.00013917
-5.87131e-12
0.00013917
1.33012e-11
0.00013917
7.61585e-12
0.00013917
1.35416e-11
0.00013917
3.82354e-12
0.00013917
1.46108e-11
0.00013917
1.41008e-11
0.00013917
1.91262e-11
0.00013917
1.14993e-11
0.00013917
2.28718e-11
0.00013917
-9.55083e-12
0.00013917
7.72121e-11
0.00013917
9.52877e-11
-6.73923e-11
0.000183445
1.78103e-10
0.000183445
1.20727e-10
0.000183445
-5.32762e-11
0.000183445
1.88458e-11
0.000183445
-1.64116e-12
0.000183445
9.19358e-12
0.000183445
-4.81941e-12
0.000183445
1.5702e-11
0.000183445
1.00892e-11
0.000183445
1.75134e-11
0.000183445
7.69945e-12
0.000183445
1.98474e-11
0.000183445
1.87851e-11
0.000183445
2.49535e-11
0.000183445
1.55241e-11
0.000183445
3.36024e-11
0.000183445
-1.63562e-11
0.000183445
1.16266e-10
0.000183445
1.40445e-10
-8.44854e-11
0.000221391
1.96109e-10
0.000221391
1.56132e-10
0.000221391
-3.40928e-11
0.000221391
2.4559e-11
0.000221391
2.01466e-12
0.000221391
1.13702e-11
0.000221391
-2.61806e-12
0.000221391
1.72577e-11
0.000221391
1.25086e-11
0.000221391
2.06092e-11
0.000221391
1.1859e-11
0.000221391
2.46128e-11
0.000221391
2.32642e-11
0.000221391
3.00831e-11
0.000221391
1.9154e-11
0.000221391
4.38149e-11
0.000221391
-2.24367e-11
0.000221391
1.52047e-10
0.000221391
1.84205e-10
-9.22696e-11
0.000253011
1.85767e-10
0.000253011
1.77354e-10
0.000253011
3.99085e-12
0.000253011
3.43098e-11
0.000253011
7.29786e-12
0.000253011
1.3179e-11
0.000253011
3.97153e-13
0.000253011
1.81569e-11
0.000253011
1.47659e-11
0.000253011
2.27703e-11
0.000253011
1.59162e-11
0.000253011
2.86265e-11
0.000253011
2.73858e-11
0.000253011
3.4309e-11
0.000253011
2.23222e-11
0.000253011
5.25052e-11
0.000253011
-2.65809e-11
0.000253011
1.80192e-10
0.000253011
2.21934e-10
-8.9448e-11
0.000278306
1.46184e-10
0.000278306
1.8007e-10
0.000278306
5.75301e-11
0.000278306
4.81147e-11
0.000278306
1.39278e-11
0.000278306
1.4596e-11
0.000278306
3.93273e-12
0.000278306
1.85372e-11
0.000278306
1.67557e-11
0.000278306
2.39757e-11
0.000278306
1.96354e-11
0.000278306
3.17569e-11
0.000278306
3.10021e-11
0.000278306
3.74429e-11
0.000278306
2.50355e-11
0.000278306
5.89278e-11
0.000278306
-2.77786e-11
0.000278306
1.97771e-10
0.000278306
2.49515e-10
-7.61915e-11
0.000297276
8.11762e-11
0.000297276
1.63363e-10
0.000297276
1.20653e-10
0.000297276
6.47208e-11
0.000297276
2.13219e-11
0.000297276
1.55617e-11
0.000297276
7.71535e-12
0.000297276
1.84723e-11
0.000297276
1.83903e-11
0.000297276
2.42569e-11
0.000297276
2.28686e-11
0.000297276
3.3946e-11
0.000297276
3.39688e-11
0.000297276
3.93595e-11
0.000297276
2.73125e-11
0.000297276
6.26142e-11
0.000297276
-2.54699e-11
0.000297276
2.03361e-10
0.000297276
2.63916e-10
-5.40083e-11
0.000309923
-1.41532e-12
0.000309923
1.29799e-10
0.000309923
1.86056e-10
0.000309923
8.18831e-11
0.000309923
2.86494e-11
0.000309923
1.59658e-11
0.000309923
1.14804e-11
0.000309923
1.79908e-11
0.000309923
1.95937e-11
0.000309923
2.36818e-11
0.000309923
2.55106e-11
0.000309923
3.51758e-11
0.000309923
3.61522e-11
0.000309923
3.99937e-11
0.000309923
2.91316e-11
0.000309923
6.34035e-11
0.000309923
-1.97023e-11
0.000309923
1.97021e-10
0.000309923
2.6363e-10
-2.54694e-11
0.000316246
-9.09542e-11
0.000316246
8.4853e-11
0.000316246
2.46048e-10
0.000316246
9.68239e-11
0.000316246
3.49505e-11
0.000316246
1.56739e-11
0.000316246
1.49825e-11
0.000316246
1.70993e-11
0.000316246
2.02989e-11
0.000316246
2.23448e-11
0.000316246
2.74845e-11
0.000316246
3.54613e-11
0.000316246
3.74355e-11
0.000316246
3.93463e-11
0.000316246
3.04145e-11
0.000316246
6.14487e-11
0.000316246
-1.11369e-11
0.000316246
1.80119e-10
0.000316246
2.48885e-10
6.17109e-12
0.000316246
-1.75627e-10
0.000316246
3.57925e-11
0.000316246
2.93519e-10
0.000316246
1.06789e-10
0.000316246
3.93133e-11
0.000316246
1.45844e-11
0.000316246
1.80055e-11
0.000316246
1.57996e-11
0.000316246
2.04466e-11
0.000316246
2.03588e-11
0.000316246
2.87323e-11
0.000316246
3.48422e-11
0.000316246
3.77192e-11
0.000316246
3.74775e-11
0.000316246
3.10314e-11
0.000316246
5.71726e-11
0.000316246
-9.36967e-13
0.000316246
1.55066e-10
0.000316246
2.21584e-10
3.73844e-11
0.000309923
-2.44213e-10
0.000309923
-9.7414e-12
0.000309923
3.22737e-10
0.000309923
1.09604e-10
0.000309923
4.10597e-11
0.000309923
1.26912e-11
0.000309923
2.0372e-11
0.000309923
1.41027e-11
0.000309923
1.99871e-11
0.000309923
1.7852e-11
0.000309923
2.92103e-11
0.000309923
3.3378e-11
0.000309923
3.69228e-11
0.000309923
3.44974e-11
0.000309923
3.08289e-11
0.000309923
5.11825e-11
0.000309923
9.43935e-12
0.000309923
1.24977e-10
0.000309923
1.85001e-10
6.47607e-11
0.000297276
-2.87756e-10
0.000297276
-4.51777e-11
0.000297276
3.29974e-10
0.000297276
1.04143e-10
0.000297276
3.9892e-11
0.000297276
1.01299e-11
0.000297276
2.19448e-11
0.000297276
1.20395e-11
0.000297276
1.88849e-11
0.000297276
1.49676e-11
0.000297276
2.88873e-11
0.000297276
3.11433e-11
0.000297276
3.49896e-11
0.000297276
3.0556e-11
0.000297276
2.96718e-11
0.000297276
4.41621e-11
0.000297276
1.84977e-11
0.000297276
9.32872e-11
0.000297276
1.4329e-10
8.53604e-11
0.000278306
-3.00907e-10
0.000278306
-6.62014e-11
0.000278306
3.13945e-10
0.000278306
9.06304e-11
0.000278306
3.59641e-11
0.000278306
7.19041e-12
0.000278306
2.26147e-11
0.000278306
9.67082e-12
0.000278306
1.71272e-11
0.000278306
1.18687e-11
0.000278306
2.77417e-11
0.000278306
2.82224e-11
0.000278306
3.18962e-11
0.000278306
2.58388e-11
0.000278306
2.74903e-11
0.000278306
3.67604e-11
0.000278306
2.49676e-11
0.000278306
6.33373e-11
0.000278306
1.00898e-10
9.70064e-11
0.000253011
-2.82759e-10
0.000253011
-7.14718e-11
0.000253011
2.7607e-10
0.000253011
7.07326e-11
0.000253011
2.98589e-11
0.000253011
4.28289e-12
0.000253011
2.22698e-11
0.000253011
7.0967e-12
0.000253011
1.47359e-11
0.000253011
8.74241e-12
0.000253011
2.5745e-11
0.000253011
2.46949e-11
0.000253011
2.76667e-11
0.000253011
2.05677e-11
0.000253011
2.43095e-11
0.000253011
2.94979e-11
0.000253011
2.80053e-11
0.000253011
3.79477e-11
0.000253011
6.20006e-11
9.85093e-11
0.000221391
-2.37113e-10
0.000221391
-6.27844e-11
0.000221391
2.20545e-10
0.000221391
4.74575e-11
0.000221391
2.2475e-11
0.000221391
1.85418e-12
0.000221391
2.07691e-11
0.000221391
4.48406e-12
0.000221391
1.17971e-11
0.000221391
5.82263e-12
0.000221391
2.28499e-11
0.000221391
2.06357e-11
0.000221391
2.24161e-11
0.000221391
1.50395e-11
0.000221391
2.02883e-11
0.000221391
2.27036e-11
0.000221391
2.73205e-11
0.000221391
1.90398e-11
0.000221391
3.00207e-11
8.98225e-11
0.000183445
-1.7222e-10
0.000183445
-4.46822e-11
0.000183445
1.5433e-10
0.000183445
2.48332e-11
0.000183445
1.48455e-11
0.000183445
2.64795e-13
0.000183445
1.79147e-11
0.000183445
2.14326e-12
0.000183445
8.52019e-12
0.000183445
3.39498e-12
0.000183445
1.89671e-11
0.000183445
1.61332e-11
0.000183445
1.6461e-11
0.000183445
9.69431e-12
0.000183445
1.56982e-11
0.000183445
1.6531e-11
0.000183445
2.31992e-11
0.000183445
7.30141e-12
0.000183445
7.37495e-12
7.21225e-11
0.00013917
-9.98018e-11
0.00013917
-2.38432e-11
0.00013917
8.65736e-11
0.00013917
7.75722e-12
0.00013917
7.85506e-12
0.00013917
-5.30338e-13
0.00013917
1.33242e-11
0.00013917
4.39808e-13
0.00013917
5.17659e-12
0.00013917
1.59932e-12
0.00013917
1.3501e-11
0.00013917
1.09905e-11
0.00013917
1.01748e-11
0.00013917
4.88839e-12
0.00013917
1.05966e-11
0.00013917
1.04665e-11
0.00013917
1.61771e-11
0.00013917
2.04343e-12
0.00013917
-4.94577e-12
4.75816e-11
8.85669e-05
-3.46061e-11
8.85669e-05
-7.699e-12
8.85669e-05
2.9246e-11
8.85669e-05
7.50268e-13
8.85669e-05
1.81809e-12
8.85669e-05
-4.72343e-13
8.85669e-05
6.89832e-12
8.85669e-05
4.82224e-14
8.85669e-05
2.06786e-12
8.85669e-05
5.77924e-13
8.85669e-05
6.27582e-12
8.85669e-05
5.44821e-12
8.85669e-05
4.28557e-12
8.85669e-05
1.2436e-12
8.85669e-05
5.03878e-12
8.85669e-05
4.42293e-12
8.85669e-05
7.43256e-12
8.85669e-05
5.72479e-13
8.85669e-05
-6.80779e-12
1.96939e-11
3.1633e-05
3.1633e-05
3.1633e-05
3.1633e-05
3.1633e-05
3.1633e-05
3.1633e-05
3.1633e-05
3.1633e-05
3.1633e-05
3.1633e-05
3.1633e-05
3.1633e-05
3.1633e-05
3.1633e-05
3.1633e-05
3.1633e-05
3.1633e-05
3.1633e-05
)
;

boundaryField
{
    top
    {
        type            calculated;
        value           uniform 0;
    }
    bottom
    {
        type            calculated;
        value           uniform 0;
    }
    inlet
    {
        type            calculated;
        value           nonuniform List<scalar> 
20
(
-3.1633e-05
-8.8567e-05
-0.00013917
-0.000183445
-0.000221391
-0.000253011
-0.000278306
-0.000297276
-0.000309923
-0.000316246
-0.000316246
-0.000309923
-0.000297276
-0.000278306
-0.000253011
-0.000221391
-0.000183445
-0.00013917
-8.85669e-05
-3.1633e-05
)
;
    }
    outlet
    {
        type            calculated;
        value           nonuniform List<scalar> 
20
(
3.1633e-05
8.85669e-05
0.00013917
0.000183445
0.000221391
0.000253011
0.000278306
0.000297276
0.000309923
0.000316246
0.000316246
0.000309923
0.000297276
0.000278306
0.000253011
0.000221391
0.000183445
0.00013917
8.85669e-05
3.1633e-05
)
;
    }
    frontAndBack
    {
        type            empty;
        value           nonuniform 0();
    }
}


// ************************************************************************* //
