/*--------------------------------*- C++ -*----------------------------------*\
| =========                 |                                                 |
| \\      /  F ield         | OpenFOAM: The Open Source CFD Toolbox           |
|  \\    /   O peration     | Version:  4.1                                   |
|   \\  /    A nd           | Web:      www.OpenFOAM.org                      |
|    \\/     M anipulation  |                                                 |
\*---------------------------------------------------------------------------*/
FoamFile
{
    version     2.0;
    format      ascii;
    class       volVectorField;
    location    "0.7";
    object      U;
}
// * * * * * * * * * * * * * * * * * * * * * * * * * * * * * * * * * * * * * //

dimensions      [0 1 -1 0 0 0 0];

internalField   nonuniform List<vector> 
400
(
(0.63266 1.51559e-08 0)
(0.632659 3.84637e-09 0)
(0.63266 -9.5533e-09 0)
(0.63266 3.60866e-09 0)
(0.63266 -5.59265e-10 0)
(0.63266 6.12232e-10 0)
(0.63266 -1.72329e-09 0)
(0.63266 2.62605e-09 0)
(0.63266 1.38623e-09 0)
(0.63266 2.50954e-09 0)
(0.63266 2.10018e-10 0)
(0.63266 1.92933e-09 0)
(0.63266 2.60436e-09 0)
(0.63266 3.14339e-09 0)
(0.63266 2.30327e-09 0)
(0.63266 2.84992e-09 0)
(0.63266 -1.84402e-10 0)
(0.63266 6.39337e-09 0)
(0.632659 8.56257e-09 0)
(0.632659 -9.09435e-09 0)
(1.77134 5.50352e-08 0)
(1.77134 1.88119e-08 0)
(1.77134 -2.60952e-08 0)
(1.77134 1.03633e-08 0)
(1.77134 -4.08204e-09 0)
(1.77134 3.00131e-09 0)
(1.77134 -4.28242e-09 0)
(1.77134 6.78884e-09 0)
(1.77134 3.55331e-09 0)
(1.77134 6.07083e-09 0)
(1.77134 -2.65706e-10 0)
(1.77134 6.35411e-09 0)
(1.77134 5.87379e-09 0)
(1.77134 9.03217e-09 0)
(1.77134 4.71031e-09 0)
(1.77134 7.52573e-09 0)
(1.77134 -1.40601e-10 0)
(1.77134 2.27865e-08 0)
(1.77134 3.29908e-08 0)
(1.77134 -2.97806e-08 0)
(2.78341 1.11778e-07 0)
(2.78341 5.65024e-08 0)
(2.78341 -4.91331e-08 0)
(2.78341 1.43976e-08 0)
(2.78341 -3.77883e-09 0)
(2.78341 5.31868e-09 0)
(2.78341 -5.89937e-09 0)
(2.78341 1.21317e-08 0)
(2.78341 6.65676e-09 0)
(2.78341 1.18262e-08 0)
(2.78341 2.70206e-09 0)
(2.78341 1.23931e-08 0)
(2.78341 1.24541e-08 0)
(2.78341 1.647e-08 0)
(2.78341 1.0243e-08 0)
(2.78341 1.83957e-08 0)
(2.78341 -5.8771e-09 0)
(2.78341 5.84319e-08 0)
(2.7834 7.28136e-08 0)
(2.7834 -5.64274e-08 0)
(3.66889 1.62074e-07 0)
(3.66889 9.9889e-08 0)
(3.66889 -5.76727e-08 0)
(3.66889 1.69173e-08 0)
(3.66889 -3.05781e-09 0)
(3.66889 8.11207e-09 0)
(3.66889 -5.75875e-09 0)
(3.66889 1.44818e-08 0)
(3.66889 8.69288e-09 0)
(3.66889 1.56644e-08 0)
(3.66889 5.45759e-09 0)
(3.66889 1.69852e-08 0)
(3.66889 1.60798e-08 0)
(3.66889 2.19537e-08 0)
(3.66889 1.33818e-08 0)
(3.66889 2.78666e-08 0)
(3.66889 -1.31273e-08 0)
(3.66889 9.65197e-08 0)
(3.66889 1.17232e-07 0)
(3.66889 -7.80522e-08 0)
(4.42782 1.9371e-07 0)
(4.42783 1.41266e-07 0)
(4.42782 -4.8582e-08 0)
(4.42782 2.07788e-08 0)
(4.42782 -2.73911e-10 0)
(4.42782 1.03578e-08 0)
(4.42782 -4.00755e-09 0)
(4.42782 1.65986e-08 0)
(4.42782 1.12021e-08 0)
(4.42782 1.91505e-08 0)
(4.42782 9.60879e-09 0)
(4.42782 2.22353e-08 0)
(4.42782 2.08943e-08 0)
(4.42782 2.75012e-08 0)
(4.42782 1.72525e-08 0)
(4.42782 3.87572e-08 0)
(4.42782 -1.98994e-08 0)
(4.42782 1.35446e-07 0)
(4.42782 1.6314e-07 0)
(4.42782 -9.10574e-08 0)
(5.06023 1.98335e-07 0)
(5.06023 1.71143e-07 0)
(5.06023 -1.93848e-08 0)
(5.06023 2.82871e-08 0)
(5.06023 4.23018e-09 0)
(5.06023 1.23312e-08 0)
(5.06023 -1.32882e-09 0)
(5.06023 1.77561e-08 0)
(5.06023 1.35438e-08 0)
(5.06023 2.17457e-08 0)
(5.06023 1.37446e-08 0)
(5.06023 2.66075e-08 0)
(5.06023 2.5177e-08 0)
(5.06023 3.21729e-08 0)
(5.06023 2.05804e-08 0)
(5.06023 4.83659e-08 0)
(5.06023 -2.53972e-08 0)
(5.06023 1.68209e-07 0)
(5.06023 2.05018e-07 0)
(5.06022 -9.3592e-08 0)
(5.56612 1.7295e-07 0)
(5.56612 1.83798e-07 0)
(5.56612 2.76634e-08 0)
(5.56612 4.02127e-08 0)
(5.56612 1.03031e-08 0)
(5.56612 1.39471e-08 0)
(5.56612 2.00141e-09 0)
(5.56612 1.83506e-08 0)
(5.56612 1.56691e-08 0)
(5.56612 2.33956e-08 0)
(5.56612 1.76383e-08 0)
(5.56612 3.01552e-08 0)
(5.56612 2.90399e-08 0)
(5.56612 3.58409e-08 0)
(5.56612 2.34593e-08 0)
(5.56612 5.60383e-08 0)
(5.56612 -2.83553e-08 0)
(5.56612 1.9151e-07 0)
(5.56612 2.38589e-07 0)
(5.56612 -8.52877e-08 0)
(5.94552 1.19135e-07 0)
(5.94553 1.76532e-07 0)
(5.94553 8.76888e-08 0)
(5.94553 5.5896e-08 0)
(5.94553 1.74957e-08 0)
(5.94552 1.51602e-08 0)
(5.94553 5.72559e-09 0)
(5.94552 1.84887e-08 0)
(5.94553 1.7491e-08 0)
(5.94552 2.41162e-08 0)
(5.94553 2.11338e-08 0)
(5.94552 3.28056e-08 0)
(5.94553 3.23429e-08 0)
(5.94552 3.83754e-08 0)
(5.94553 2.59285e-08 0)
(5.94552 6.11702e-08 0)
(5.94553 -2.79026e-08 0)
(5.94552 2.03184e-07 0)
(5.94553 2.60167e-07 0)
(5.94552 -6.70216e-08 0)
(6.19845 4.29526e-08 0)
(6.19846 1.50253e-07 0)
(6.19845 1.53823e-07 0)
(6.19845 7.34663e-08 0)
(6.19845 2.50993e-08 0)
(6.19845 1.58814e-08 0)
(6.19845 9.557e-09 0)
(6.19845 1.82024e-08 0)
(6.19845 1.89199e-08 0)
(6.19845 2.39426e-08 0)
(6.19845 2.40832e-08 0)
(6.19845 3.44967e-08 0)
(6.19845 3.49299e-08 0)
(6.19845 3.9646e-08 0)
(6.19845 2.79724e-08 0)
(6.19845 6.3402e-08 0)
(6.19845 -2.37964e-08 0)
(6.19845 2.02582e-07 0)
(6.19845 2.67373e-07 0)
(6.19845 -4.09247e-08 0)
(6.32491 -4.59972e-08 0)
(6.32492 1.09221e-07 0)
(6.32492 2.18337e-07 0)
(6.32492 9.02726e-08 0)
(6.32492 3.2169e-08 0)
(6.32492 1.59728e-08 0)
(6.32492 1.32437e-08 0)
(6.32492 1.75084e-08 0)
(6.32492 1.98854e-08 0)
(6.32491 2.29582e-08 0)
(6.32492 2.64031e-08 0)
(6.32491 3.52364e-08 0)
(6.32492 3.66798e-08 0)
(6.32491 3.96259e-08 0)
(6.32492 2.95453e-08 0)
(6.32491 6.27385e-08 0)
(6.32492 -1.63957e-08 0)
(6.32491 1.90476e-07 0)
(6.32492 2.59551e-07 0)
(6.32492 -1.00005e-08 0)
(6.32491 -1.36049e-07 0)
(6.32492 6.01697e-08 0)
(6.32492 2.73624e-07 0)
(6.32492 1.03396e-07 0)
(6.32492 3.77183e-08 0)
(6.32492 1.53004e-08 0)
(6.32492 1.65509e-08 0)
(6.32492 1.64067e-08 0)
(6.32492 2.03243e-08 0)
(6.32492 2.12686e-08 0)
(6.32492 2.80276e-08 0)
(6.32491 3.50533e-08 0)
(6.32492 3.74839e-08 0)
(6.32491 3.83482e-08 0)
(6.32492 3.05385e-08 0)
(6.32491 5.94885e-08 0)
(6.32492 -6.65596e-09 0)
(6.32491 1.68828e-07 0)
(6.32492 2.37825e-07 0)
(6.32492 2.22639e-08 0)
(6.19845 -2.15244e-07 0)
(6.19846 1.09577e-08 0)
(6.19845 3.13105e-07 0)
(6.19845 1.10231e-07 0)
(6.19845 4.09048e-08 0)
(6.19845 1.37946e-08 0)
(6.19845 1.92804e-08 0)
(6.19845 1.49006e-08 0)
(6.19845 2.01816e-08 0)
(6.19845 1.89953e-08 0)
(6.19845 2.89067e-08 0)
(6.19845 3.39981e-08 0)
(6.19845 3.72514e-08 0)
(6.19845 3.59012e-08 0)
(6.19846 3.08003e-08 0)
(6.19845 5.4195e-08 0)
(6.19846 4.04801e-09 0)
(6.19845 1.40484e-07 0)
(6.19846 2.04898e-07 0)
(6.19845 5.2316e-08 0)
(5.94552 -2.73108e-07 0)
(5.94553 -3.09536e-08 0)
(5.94553 3.31934e-07 0)
(5.94553 1.09024e-07 0)
(5.94553 4.12093e-08 0)
(5.94553 1.15129e-08 0)
(5.94553 2.12766e-08 0)
(5.94553 1.30091e-08 0)
(5.94553 1.94129e-08 0)
(5.94553 1.62736e-08 0)
(5.94553 2.90039e-08 0)
(5.94552 3.21398e-08 0)
(5.94553 3.59117e-08 0)
(5.94552 3.24173e-08 0)
(5.94553 3.01743e-08 0)
(5.94552 4.7534e-08 0)
(5.94553 1.41676e-08 0)
(5.94552 1.08807e-07 0)
(5.94553 1.64633e-07 0)
(5.94553 7.69108e-08 0)
(5.56612 -3.02219e-07 0)
(5.56612 -5.98686e-08 0)
(5.56612 3.27536e-07 0)
(5.56612 9.92676e-08 0)
(5.56612 3.85566e-08 0)
(5.56612 8.67239e-09 0)
(5.56612 2.24146e-08 0)
(5.56612 1.07713e-08 0)
(5.56612 1.79907e-08 0)
(5.56612 1.3251e-08 0)
(5.56612 2.8286e-08 0)
(5.56612 2.95504e-08 0)
(5.56612 3.34175e-08 0)
(5.56612 2.80583e-08 0)
(5.56612 2.85361e-08 0)
(5.56612 4.01967e-08 0)
(5.56612 2.22474e-08 0)
(5.56612 7.72715e-08 0)
(5.56612 1.2149e-07 0)
(5.56612 9.34364e-08 0)
(5.06023 -2.99338e-07 0)
(5.06023 -7.28525e-08 0)
(5.06023 2.99932e-07 0)
(5.06023 8.193e-08 0)
(5.06023 3.33434e-08 0)
(5.06023 5.63211e-09 0)
(5.06023 2.26136e-08 0)
(5.06023 8.27674e-09 0)
(5.06023 1.5929e-08 0)
(5.06023 1.01236e-08 0)
(5.06023 2.6763e-08 0)
(5.06023 2.63413e-08 0)
(5.06023 2.97834e-08 0)
(5.06023 2.30583e-08 0)
(5.06023 2.58964e-08 0)
(5.06023 3.2799e-08 0)
(5.06023 2.72106e-08 0)
(5.06023 4.90834e-08 0)
(5.06023 7.99075e-08 0)
(5.06023 1.00192e-07 0)
(4.42782 -2.65893e-07 0)
(4.42782 -7.01546e-08 0)
(4.42782 2.51915e-07 0)
(4.42782 5.93521e-08 0)
(4.42782 2.63539e-08 0)
(4.42782 2.84111e-09 0)
(4.42782 2.1733e-08 0)
(4.42782 5.64319e-09 0)
(4.42782 1.32767e-08 0)
(4.42782 7.06617e-09 0)
(4.42783 2.43714e-08 0)
(4.42782 2.25651e-08 0)
(4.42783 2.50665e-08 0)
(4.42782 1.76356e-08 0)
(4.42783 2.2294e-08 0)
(4.42782 2.57783e-08 0)
(4.42783 2.84454e-08 0)
(4.42782 2.66644e-08 0)
(4.42783 4.37906e-08 0)
(4.42783 9.6536e-08 0)
(3.66889 -2.07481e-07 0)
(3.66889 -5.51657e-08 0)
(3.66889 1.88462e-07 0)
(3.66889 3.53475e-08 0)
(3.66889 1.85748e-08 0)
(3.66889 6.81864e-10 0)
(3.66889 1.9496e-08 0)
(3.66889 2.92474e-09 0)
(3.66889 1.00675e-08 0)
(3.66889 4.28289e-09 0)
(3.66889 2.07905e-08 0)
(3.66889 1.80654e-08 0)
(3.66889 1.92002e-08 0)
(3.66889 1.19632e-08 0)
(3.66889 1.78476e-08 0)
(3.66889 1.90103e-08 0)
(3.66889 2.57654e-08 0)
(3.66889 1.147e-08 0)
(3.66889 1.59058e-08 0)
(3.66889 8.27371e-08 0)
(2.78341 -1.35659e-07 0)
(2.7834 -3.34106e-08 0)
(2.78341 1.19587e-07 0)
(2.78341 1.3756e-08 0)
(2.78341 1.12553e-08 0)
(2.78341 9.28525e-11 0)
(2.78341 1.59559e-08 0)
(2.78341 1.4128e-09 0)
(2.78341 7.23906e-09 0)
(2.78341 2.88791e-09 0)
(2.78341 1.737e-08 0)
(2.78341 1.42038e-08 0)
(2.78341 1.39197e-08 0)
(2.78341 7.97264e-09 0)
(2.78341 1.38628e-08 0)
(2.78341 1.45851e-08 0)
(2.78341 2.0695e-08 0)
(2.78341 3.2367e-09 0)
(2.78341 -1.7294e-10 0)
(2.78341 6.11519e-08 0)
(1.77134 -6.28397e-08 0)
(1.77134 -1.45871e-08 0)
(1.77134 5.30972e-08 0)
(1.77134 3.02996e-09 0)
(1.77134 4.30683e-09 0)
(1.77134 -1.00493e-09 0)
(1.77134 1.01659e-08 0)
(1.77134 -1.78209e-10 0)
(1.77134 3.5611e-09 0)
(1.77134 9.6375e-10 0)
(1.77134 9.47299e-09 0)
(1.77134 7.94716e-09 0)
(1.77134 6.89588e-09 0)
(1.77134 2.67815e-09 0)
(1.77134 7.89265e-09 0)
(1.77134 6.54365e-09 0)
(1.77134 1.1884e-08 0)
(1.77134 1.52247e-09 0)
(1.77134 -8.43492e-09 0)
(1.77134 3.31068e-08 0)
(0.63266 -1.66065e-08 0)
(0.632659 -2.57208e-09 0)
(0.632659 1.40894e-08 0)
(0.63266 -1.82094e-09 0)
(0.63266 1.33646e-09 0)
(0.63266 3.17278e-10 0)
(0.63266 3.20902e-09 0)
(0.63266 -1.39586e-10 0)
(0.63266 1.20678e-09 0)
(0.63266 7.13132e-10 0)
(0.63266 4.01188e-09 0)
(0.63266 2.74288e-09 0)
(0.63266 2.12263e-09 0)
(0.63266 1.24056e-09 0)
(0.63266 2.94843e-09 0)
(0.63266 3.20584e-09 0)
(0.63266 3.82565e-09 0)
(0.63266 -7.62768e-10 0)
(0.63266 -2.80783e-09 0)
(0.63266 1.04583e-08 0)
)
;

boundaryField
{
    top
    {
        type            fixedValue;
        value           uniform (0 0 0);
    }
    bottom
    {
        type            fixedValue;
        value           uniform (0 0 0);
    }
    inlet
    {
        type            zeroGradient;
    }
    outlet
    {
        type            zeroGradient;
    }
    frontAndBack
    {
        type            empty;
    }
}


// ************************************************************************* //
