/*--------------------------------*- C++ -*----------------------------------*\
| =========                 |                                                 |
| \\      /  F ield         | OpenFOAM: The Open Source CFD Toolbox           |
|  \\    /   O peration     | Version:  4.1                                   |
|   \\  /    A nd           | Web:      www.OpenFOAM.org                      |
|    \\/     M anipulation  |                                                 |
\*---------------------------------------------------------------------------*/
FoamFile
{
    version     2.0;
    format      ascii;
    class       surfaceScalarField;
    location    "0.6";
    object      phi;
}
// * * * * * * * * * * * * * * * * * * * * * * * * * * * * * * * * * * * * * //

dimensions      [0 3 -1 0 0 0 0];

internalField   nonuniform List<scalar> 
760
(
3.1583e-05
8.25996e-11
3.1583e-05
3.11335e-11
3.1583e-05
-4.19347e-11
3.1583e-05
1.39146e-11
3.1583e-05
-7.20015e-12
3.1583e-05
5.23476e-12
3.1583e-05
-3.65531e-12
3.1583e-05
6.596e-12
3.1583e-05
6.33636e-13
3.1583e-05
6.08849e-12
3.1583e-05
-1.74781e-12
3.1583e-05
3.28309e-12
3.1583e-05
-1.95171e-12
3.1583e-05
6.7888e-12
3.1583e-05
-3.08346e-12
3.1583e-05
6.86152e-12
3.1583e-05
-8.91236e-12
3.1583e-05
2.32854e-11
3.15829e-05
4.41432e-11
-4.89597e-11
8.84182e-05
2.24584e-10
8.84181e-05
1.14481e-10
8.84182e-05
-1.01094e-10
8.84182e-05
2.60335e-11
8.84182e-05
-1.0393e-11
8.84182e-05
1.36849e-11
8.84182e-05
-5.76376e-12
8.84182e-05
1.57442e-11
8.84182e-05
2.42192e-12
8.84182e-05
1.43923e-11
8.84182e-05
-2.60715e-12
8.84182e-05
8.20955e-12
8.84182e-05
-3.64676e-12
8.84182e-05
1.44825e-11
8.84182e-05
-6.61816e-12
8.84182e-05
1.95477e-11
8.84182e-05
-3.00252e-11
8.84182e-05
8.4148e-11
8.84181e-05
1.29575e-10
-1.2165e-10
0.000138927
3.66648e-10
0.000138926
2.27221e-10
0.000138927
-1.39215e-10
0.000138927
3.2121e-11
0.000138927
-6.67728e-12
0.000138927
2.24858e-11
0.000138927
-3.96923e-12
0.000138927
2.36611e-11
0.000138927
5.4073e-12
0.000138927
2.16072e-11
0.000138927
-1.09569e-12
0.000138927
1.2975e-11
0.000138927
-3.96211e-12
0.000138927
1.99784e-11
0.000138927
-9.89681e-12
0.000138927
3.46365e-11
0.000138927
-5.77623e-11
0.000138926
1.684e-10
0.000138926
2.33716e-10
-1.86908e-10
0.000183112
4.73559e-10
0.000183112
3.41969e-10
0.000183112
-1.35298e-10
0.000183112
4.03605e-11
0.000183112
1.79477e-12
0.000183112
3.14065e-11
0.000183112
6.15702e-13
0.000183112
2.99888e-11
0.000183112
9.11331e-12
0.000183112
2.72152e-11
0.000183112
1.81285e-12
0.000183112
1.69347e-11
0.000183112
-3.43575e-12
0.000183112
2.38385e-11
0.000183112
-1.33712e-11
0.000183112
5.01541e-11
0.000183112
-8.68462e-11
0.000183112
2.58554e-10
0.000183112
3.4531e-10
-2.34129e-10
0.000220978
5.20456e-10
0.000220978
4.36081e-10
0.000220978
-8.09958e-11
0.000220978
5.68897e-11
0.000220978
1.45217e-11
0.000220977
4.00825e-11
0.000220977
7.05251e-12
0.000220977
3.47616e-11
0.000220977
1.3347e-11
0.000220977
3.11011e-11
0.000220977
5.39705e-12
0.000220977
1.98329e-11
0.000220977
-2.13903e-12
0.000220977
2.62825e-11
0.000220978
-1.6301e-11
0.000220977
6.40583e-11
0.000220978
-1.13415e-10
0.000220977
3.41196e-10
0.000220977
4.52749e-10
-2.56451e-10
0.000252527
4.92813e-10
0.000252527
4.90889e-10
0.000252527
2.2784e-11
0.000252527
8.51078e-11
0.000252527
3.0913e-11
0.000252527
4.82036e-11
0.000252527
1.45917e-11
0.000252527
3.7929e-11
0.000252527
1.77692e-11
0.000252527
3.32399e-11
0.000252527
9.18488e-12
0.000252527
2.15565e-11
0.000252527
-2.32781e-13
0.000252527
2.73459e-11
0.000252527
-1.81378e-11
0.000252527
7.45947e-11
0.000252527
-1.335e-10
0.000252527
4.05468e-10
0.000252527
5.44234e-10
-2.5045e-10
0.000277763
3.88539e-10
0.000277763
4.95161e-10
0.000277763
1.66516e-10
0.000277763
1.24907e-10
0.000277763
5.00236e-11
0.000277763
5.53925e-11
0.000277763
2.26051e-11
0.000277763
3.94858e-11
0.000277763
2.20657e-11
0.000277763
3.37212e-11
0.000277763
1.28993e-11
0.000277763
2.21337e-11
0.000277763
2.14204e-12
0.000277763
2.70334e-11
0.000277763
-1.84808e-11
0.000277763
8.04603e-11
0.000277763
-1.43995e-10
0.000277763
4.44184e-10
0.000277763
6.09386e-10
-2.16666e-10
0.000296688
2.17741e-10
0.000296688
4.46799e-10
0.000296688
3.34457e-10
0.000296688
1.72771e-10
0.000296688
7.03634e-11
0.000296688
6.11973e-11
0.000296688
3.05443e-11
0.000296688
3.95175e-11
0.000296688
2.60045e-11
0.000296688
3.27402e-11
0.000296688
1.6384e-11
0.000296688
2.16853e-11
0.000296688
4.84968e-12
0.000296688
2.53955e-11
0.000296688
-1.71261e-11
0.000296688
8.09412e-11
0.000296688
-1.43155e-10
0.000296688
4.53989e-10
0.000296688
6.40707e-10
-1.59114e-10
0.000309303
1.017e-12
0.000309304
3.53027e-10
0.000309303
5.07256e-10
0.000309303
2.22439e-10
0.000309303
8.98736e-11
0.000309303
6.50462e-11
0.000309303
3.78489e-11
0.000309303
3.81213e-11
0.000309303
2.93656e-11
0.000309303
3.05164e-11
0.000309303
1.95131e-11
0.000309303
2.03653e-11
0.000309303
7.73046e-12
0.000309303
2.25562e-11
0.000309303
-1.41205e-11
0.000309303
7.60224e-11
0.000309303
-1.30968e-10
0.000309303
4.3524e-10
0.000309303
6.34714e-10
-8.45442e-11
0.000315611
-2.33771e-10
0.000315611
2.28807e-10
0.000315611
6.64724e-10
0.000315611
2.6616e-10
0.000315611
1.06201e-10
0.000315611
6.63624e-11
0.000315611
4.39879e-11
0.000315611
3.54236e-11
0.000315611
3.1954e-11
0.000315611
2.72879e-11
0.000315611
2.21761e-11
0.000315611
1.8352e-11
0.000315611
1.05984e-11
0.000315611
1.87259e-11
0.000315611
-9.76852e-12
0.000315611
6.6402e-11
0.000315611
-1.09151e-10
0.000315611
3.91556e-10
0.000315611
5.92458e-10
-1.44365e-12
0.000315611
-4.55722e-10
0.000315611
9.38361e-11
0.000315611
7.88323e-10
0.000315611
2.9623e-10
0.000315611
1.17131e-10
0.000315611
6.47056e-11
0.000315611
4.85018e-11
0.000315611
3.15866e-11
0.000315611
3.35944e-11
0.000315611
2.3301e-11
0.000315611
2.42637e-11
0.000315611
1.58354e-11
0.000315611
1.32408e-11
0.000315611
1.41927e-11
0.000315611
-4.59724e-12
0.000315611
5.33823e-11
0.000315611
-8.0842e-11
0.000315611
3.29126e-10
0.000315611
5.1934e-10
8.10154e-11
0.000309303
-6.35526e-10
0.000309303
-3.1271e-11
0.000309303
8.63226e-10
0.000309303
3.06545e-10
0.000309303
1.21058e-10
0.000309303
5.99184e-11
0.000309303
5.10475e-11
0.000309303
2.68193e-11
0.000309303
3.4131e-11
0.000309303
1.88081e-11
0.000309303
2.56637e-11
0.000309303
1.30103e-11
0.000309303
1.54271e-11
0.000309303
9.29817e-12
0.000309303
7.24142e-13
0.000309303
3.8652e-11
0.000309303
-5.00321e-11
0.000309303
2.5586e-10
0.000309304
4.24254e-10
1.53966e-10
0.000296688
-7.49833e-10
0.000296688
-1.28832e-10
0.000296688
8.79901e-10
0.000296688
2.939e-10
0.000296688
1.17356e-10
0.000296688
5.22321e-11
0.000296688
5.14264e-11
0.000296688
2.13838e-11
0.000296688
3.34287e-11
0.000296688
1.4067e-11
0.000296688
2.62618e-11
0.000296688
1.00707e-11
0.000296688
1.69238e-11
0.000296688
4.40652e-12
0.000296688
5.4932e-12
0.000296688
2.40069e-11
0.000296688
-2.08592e-11
0.000296688
1.80412e-10
0.000296688
3.18248e-10
2.09717e-10
0.000277763
-7.84738e-10
0.000277763
-1.87234e-10
0.000277763
8.35209e-10
0.000277763
2.5882e-10
0.000277763
1.06543e-10
0.000277763
4.22984e-11
0.000277763
4.95861e-11
0.000277763
1.55977e-11
0.000277763
3.13796e-11
0.000277763
9.34866e-12
0.000277763
2.59462e-11
0.000277763
7.20775e-12
0.000277763
1.75127e-11
0.000277763
-1.23904e-13
0.000277763
9.091e-12
0.000277763
1.10713e-11
0.000277763
3.10848e-12
0.000277763
1.11134e-10
0.000277763
2.12943e-10
2.42476e-10
0.000252527
-7.37965e-10
0.000252527
-2.02812e-10
0.000252527
7.33076e-10
0.000252527
2.05759e-10
0.000252527
9.01494e-11
0.000252527
3.11072e-11
0.000252527
4.55621e-11
0.000252527
9.81084e-12
0.000252527
2.79058e-11
0.000252527
4.93658e-12
0.000252527
2.46012e-11
0.000252527
4.60129e-12
0.000252527
1.70067e-11
0.000252527
-3.9526e-12
0.000252527
1.10793e-11
0.000252527
1.07152e-12
0.000252527
1.94462e-11
0.000252527
5.4956e-11
0.000252527
1.1899e-10
2.48924e-10
0.000220977
-6.19459e-10
0.000220977
-1.80175e-10
0.000220978
5.84717e-10
0.000220978
1.42766e-10
0.000220978
7.04064e-11
0.000220978
1.99357e-11
0.000220978
3.9502e-11
0.000220978
4.49098e-12
0.000220978
2.30655e-11
0.000220978
1.20269e-12
0.000220978
2.21428e-11
0.000220978
2.43759e-12
0.000220978
1.52815e-11
0.000220978
-6.73067e-12
0.000220978
1.12878e-11
0.000220978
-5.28637e-12
0.000220978
2.72289e-11
0.000220978
1.63777e-11
0.000220978
4.48166e-11
2.28625e-10
0.000183112
-4.50716e-10
0.000183112
-1.31088e-10
0.000183112
4.08634e-10
0.000183112
8.04428e-11
0.000183112
4.96668e-11
0.000183112
1.01419e-11
0.000183112
3.15223e-11
0.000183112
2.35677e-13
0.000183112
1.7093e-11
0.000183112
-1.40359e-12
0.000183112
1.84553e-11
0.000183112
8.73062e-13
0.000183112
1.22964e-11
0.000183112
-8.03366e-12
0.000183112
9.83685e-12
0.000183112
-7.8637e-12
0.000183112
2.70098e-11
0.000183112
-3.56806e-12
0.000183112
-4.10135e-12
1.8434e-10
0.000138926
-2.62088e-10
0.000138926
-7.25193e-11
0.000138927
2.29103e-10
0.000138927
3.08619e-11
0.000138927
2.97642e-11
0.000138927
2.75529e-12
0.000138927
2.16106e-11
0.000138927
-2.14493e-12
0.000138927
1.05333e-11
0.000138927
-2.40993e-12
0.000138927
1.32261e-11
0.000138927
-6.44747e-14
0.000138927
8.12004e-12
0.000138927
-7.23453e-12
0.000138927
7.09157e-12
0.000138927
-7.29572e-12
0.000138927
2.0511e-11
0.000138927
-7.43698e-12
0.000138927
-2.56471e-11
1.21663e-10
8.84181e-05
-9.16983e-11
8.84181e-05
-2.37925e-11
8.84182e-05
7.74692e-11
8.84182e-05
5.55063e-12
8.84182e-05
1.11449e-11
8.84182e-05
-9.57195e-13
8.84182e-05
9.74557e-12
8.84182e-05
-1.75339e-12
8.84182e-05
3.91126e-12
8.84182e-05
-1.53939e-12
8.84182e-05
5.98224e-12
8.84182e-05
-3.79326e-13
8.84182e-05
2.92765e-12
8.84182e-05
-3.69125e-12
8.84182e-05
3.30779e-12
8.84182e-05
-4.27598e-12
8.84182e-05
1.03776e-11
8.84182e-05
-3.16513e-12
8.84182e-05
-2.04775e-11
4.97656e-11
3.1583e-05
3.15829e-05
3.1583e-05
3.1583e-05
3.1583e-05
3.1583e-05
3.1583e-05
3.1583e-05
3.1583e-05
3.1583e-05
3.1583e-05
3.1583e-05
3.1583e-05
3.1583e-05
3.1583e-05
3.1583e-05
3.1583e-05
3.1583e-05
3.1583e-05
)
;

boundaryField
{
    top
    {
        type            calculated;
        value           uniform 0;
    }
    bottom
    {
        type            calculated;
        value           uniform 0;
    }
    inlet
    {
        type            calculated;
        value           nonuniform List<scalar> 
20
(
-3.15831e-05
-8.84184e-05
-0.000138927
-0.000183112
-0.000220978
-0.000252527
-0.000277763
-0.000296688
-0.000309303
-0.000315611
-0.000315611
-0.000309303
-0.000296688
-0.000277763
-0.000252527
-0.000220978
-0.000183112
-0.000138927
-8.84183e-05
-3.1583e-05
)
;
    }
    outlet
    {
        type            calculated;
        value           nonuniform List<scalar> 
20
(
3.1583e-05
8.84181e-05
0.000138926
0.000183112
0.000220977
0.000252527
0.000277763
0.000296688
0.000309303
0.000315611
0.000315611
0.000309303
0.000296688
0.000277763
0.000252527
0.000220978
0.000183112
0.000138927
8.84183e-05
3.1583e-05
)
;
    }
    frontAndBack
    {
        type            empty;
        value           nonuniform 0();
    }
}


// ************************************************************************* //
