/*--------------------------------*- C++ -*----------------------------------*\
| =========                 |                                                 |
| \\      /  F ield         | OpenFOAM: The Open Source CFD Toolbox           |
|  \\    /   O peration     | Version:  4.1                                   |
|   \\  /    A nd           | Web:      www.OpenFOAM.org                      |
|    \\/     M anipulation  |                                                 |
\*---------------------------------------------------------------------------*/
FoamFile
{
    version     2.0;
    format      ascii;
    class       volVectorField;
    location    "0.6";
    object      U;
}
// * * * * * * * * * * * * * * * * * * * * * * * * * * * * * * * * * * * * * //

dimensions      [0 1 -1 0 0 0 0];

internalField   nonuniform List<vector> 
400
(
(0.631661 4.25137e-08 0)
(0.631659 1.43108e-08 0)
(0.63166 -2.64624e-08 0)
(0.63166 6.60549e-09 0)
(0.63166 -2.84702e-09 0)
(0.63166 2.3315e-09 0)
(0.63166 -2.55935e-09 0)
(0.63166 2.87955e-09 0)
(0.63166 4.26685e-10 0)
(0.63166 3.38703e-09 0)
(0.63166 -8.08738e-10 0)
(0.63166 1.45334e-09 0)
(0.63166 -1.17422e-09 0)
(0.63166 3.10323e-09 0)
(0.63166 -5.28765e-10 0)
(0.63166 3.21296e-09 0)
(0.63166 -5.39525e-09 0)
(0.63166 1.1688e-08 0)
(0.631659 1.97059e-08 0)
(0.631659 -2.64344e-08 0)
(1.76837 1.4602e-07 0)
(1.76836 6.21757e-08 0)
(1.76836 -6.89918e-08 0)
(1.76836 2.24134e-08 0)
(1.76836 -9.39069e-09 0)
(1.76836 1.04412e-08 0)
(1.76836 -3.72506e-09 0)
(1.76836 1.22817e-08 0)
(1.76836 2.54521e-09 0)
(1.76836 1.10122e-08 0)
(1.76836 -1.83167e-09 0)
(1.76836 5.99541e-09 0)
(1.76836 -2.87546e-09 0)
(1.76836 1.11139e-08 0)
(1.76836 -4.92036e-09 0)
(1.76836 1.23681e-08 0)
(1.76836 -1.52691e-08 0)
(1.76836 4.58526e-08 0)
(1.76836 8.01894e-08 0)
(1.76836 -8.25877e-08 0)
(2.77853 3.00406e-07 0)
(2.77853 1.68231e-07 0)
(2.77853 -1.30318e-07 0)
(2.77853 2.84436e-08 0)
(2.77853 -9.02874e-09 0)
(2.77853 1.79516e-08 0)
(2.77853 -5.57293e-09 0)
(2.77853 1.98815e-08 0)
(2.77853 3.90805e-09 0)
(2.77853 1.85914e-08 0)
(2.77853 -1.81596e-09 0)
(2.77853 1.08651e-08 0)
(2.77853 -3.81244e-09 0)
(2.77853 1.73779e-08 0)
(2.77853 -7.52767e-09 0)
(2.77853 2.67778e-08 0)
(2.77853 -4.37694e-08 0)
(2.77853 1.24602e-07 0)
(2.77853 1.77226e-07 0)
(2.77853 -1.57925e-07 0)
(3.66224 4.30637e-07 0)
(3.66224 2.85722e-07 0)
(3.66223 -1.47837e-07 0)
(3.66224 3.53708e-08 0)
(3.66224 -3.5986e-09 0)
(3.66223 2.71046e-08 0)
(3.66224 -2.28581e-09 0)
(3.66223 2.70576e-08 0)
(3.66224 7.01301e-09 0)
(3.66223 2.47791e-08 0)
(3.66224 9.13911e-12 0)
(3.66223 1.5044e-08 0)
(3.66224 -4.10238e-09 0)
(3.66223 2.2187e-08 0)
(3.66224 -1.17183e-08 0)
(3.66223 4.24031e-08 0)
(3.66224 -7.18471e-08 0)
(3.66223 2.13033e-07 0)
(3.66223 2.88323e-07 0)
(3.66223 -2.15481e-07 0)
(4.41955 5.1407e-07 0)
(4.41955 3.96718e-07 0)
(4.41955 -1.20868e-07 0)
(4.41955 4.59744e-08 0)
(4.41955 6.90734e-09 0)
(4.41955 3.55907e-08 0)
(4.41955 3.16665e-09 0)
(4.41955 3.23942e-08 0)
(4.41955 1.08219e-08 0)
(4.41955 2.92895e-08 0)
(4.41955 3.26171e-09 0)
(4.41955 1.85007e-08 0)
(4.41955 -3.09195e-09 0)
(4.41955 2.53148e-08 0)
(4.41955 -1.51258e-08 0)
(4.41955 5.76239e-08 0)
(4.41955 -1.01275e-07 0)
(4.41955 3.03154e-07 0)
(4.41955 4.01437e-07 0)
(4.41955 -2.5217e-07 0)
(5.05054 5.25665e-07 0)
(5.05054 4.75217e-07 0)
(5.05054 -4.02317e-08 0)
(5.05054 6.7782e-08 0)
(5.05054 2.16514e-08 0)
(5.05054 4.40292e-08 0)
(5.05054 1.03008e-08 0)
(5.05054 3.64208e-08 0)
(5.05054 1.52249e-08 0)
(5.05054 3.22856e-08 0)
(5.05054 7.01589e-09 0)
(5.05054 2.07879e-08 0)
(5.05054 -1.46518e-09 0)
(5.05054 2.70428e-08 0)
(5.05054 -1.76456e-08 0)
(5.05054 7.0229e-08 0)
(5.05054 -1.25596e-07 0)
(5.05054 3.78673e-07 0)
(5.05054 5.03826e-07 0)
(5.05054 -2.60368e-07 0)
(5.55526 4.58604e-07 0)
(5.55527 5.06499e-07 0)
(5.55526 8.67474e-08 0)
(5.55526 1.02185e-07 0)
(5.55526 3.96692e-08 0)
(5.55526 5.17156e-08 0)
(5.55526 1.81466e-08 0)
(5.55526 3.86998e-08 0)
(5.55526 1.9579e-08 0)
(5.55526 3.35045e-08 0)
(5.55526 1.07719e-08 0)
(5.55526 2.18772e-08 0)
(5.55526 6.796e-10 0)
(5.55526 2.7394e-08 0)
(5.55526 -1.88425e-08 0)
(5.55526 7.87125e-08 0)
(5.55526 -1.41637e-07 0)
(5.55526 4.31305e-07 0)
(5.55526 5.84469e-07 0)
(5.55526 -2.39762e-07 0)
(5.93376 3.17118e-07 0)
(5.93376 4.83661e-07 0)
(5.93376 2.47004e-07 0)
(5.93376 1.473e-07 0)
(5.93376 5.987e-08 0)
(5.93376 5.83714e-08 0)
(5.93376 2.62832e-08 0)
(5.93375 3.94824e-08 0)
(5.93376 2.37734e-08 0)
(5.93375 3.32199e-08 0)
(5.93376 1.44205e-08 0)
(5.93375 2.19155e-08 0)
(5.93376 3.25646e-09 0)
(5.93375 2.63999e-08 0)
(5.93376 -1.83708e-08 0)
(5.93375 8.20026e-08 0)
(5.93376 -1.46738e-07 0)
(5.93375 4.5579e-07 0)
(5.93376 6.34157e-07 0)
(5.93375 -1.92654e-07 0)
(6.18606 1.17201e-07 0)
(6.18608 4.09516e-07 0)
(6.18607 4.22199e-07 0)
(6.18607 1.97893e-07 0)
(6.18607 8.03759e-08 0)
(6.18607 6.33436e-08 0)
(6.18607 3.40292e-08 0)
(6.18607 3.87572e-08 0)
(6.18607 2.74639e-08 0)
(6.18607 3.15557e-08 0)
(6.18607 1.77524e-08 0)
(6.18606 2.09831e-08 0)
(6.18607 6.08765e-09 0)
(6.18606 2.41186e-08 0)
(6.18607 -1.61577e-08 0)
(6.18606 7.97112e-08 0)
(6.18607 -1.40046e-07 0)
(6.18606 4.5075e-07 0)
(6.18607 6.47126e-07 0)
(6.18607 -1.24698e-07 0)
(6.31221 -1.15997e-07 0)
(6.31222 2.95788e-07 0)
(6.31222 5.91987e-07 0)
(6.31222 2.46609e-07 0)
(6.31222 9.89061e-08 0)
(6.31222 6.60624e-08 0)
(6.31222 4.08729e-08 0)
(6.31222 3.66697e-08 0)
(6.31222 3.0483e-08 0)
(6.31221 2.87706e-08 0)
(6.31222 2.06773e-08 0)
(6.31221 1.92694e-08 0)
(6.31222 9.01176e-09 0)
(6.31221 2.07211e-08 0)
(6.31222 -1.23753e-08 0)
(6.31221 7.2189e-08 0)
(6.31222 -1.22428e-07 0)
(6.31221 4.18314e-07 0)
(6.31222 6.2213e-07 0)
(6.31222 -4.37302e-08 0)
(6.31221 -3.51961e-07 0)
(6.31222 1.60758e-07 0)
(6.31222 7.36484e-07 0)
(6.31222 2.85309e-07 0)
(6.31222 1.13049e-07 0)
(6.31222 6.59786e-08 0)
(6.31222 4.63054e-08 0)
(6.31222 3.33605e-08 0)
(6.31222 3.26448e-08 0)
(6.31222 2.5108e-08 0)
(6.31222 2.30865e-08 0)
(6.31221 1.69598e-08 0)
(6.31222 1.18269e-08 0)
(6.31221 1.64606e-08 0)
(6.31222 -7.45502e-09 0)
(6.31221 6.04808e-08 0)
(6.31222 -9.64288e-08 0)
(6.31221 3.63575e-07 0)
(6.31222 5.6255e-07 0)
(6.31222 4.11791e-08 0)
(6.18606 -5.59437e-07 0)
(6.18607 2.56457e-08 0)
(6.18607 8.38609e-07 0)
(6.18607 3.06712e-07 0)
(6.18607 1.20776e-07 0)
(6.18607 6.27595e-08 0)
(6.18607 4.99147e-08 0)
(6.18607 2.90125e-08 0)
(6.18607 3.37827e-08 0)
(6.18607 2.08177e-08 0)
(6.18607 2.48699e-08 0)
(6.18607 1.42484e-08 0)
(6.18607 1.43076e-08 0)
(6.18607 1.16591e-08 0)
(6.18607 -2.02153e-09 0)
(6.18607 4.61513e-08 0)
(6.18607 -6.57833e-08 0)
(6.18606 2.9379e-07 0)
(6.18607 4.75837e-07 0)
(6.18607 1.20803e-07 0)
(5.93375 -7.11102e-07 0)
(5.93376 -8.94612e-08 0)
(5.93376 8.85895e-07 0)
(5.93376 3.05886e-07 0)
(5.93376 1.20893e-07 0)
(5.93376 5.64254e-08 0)
(5.93376 5.14264e-08 0)
(5.93376 2.38603e-08 0)
(5.93376 3.375e-08 0)
(5.93376 1.61538e-08 0)
(5.93376 2.59142e-08 0)
(5.93376 1.13318e-08 0)
(5.93376 1.62169e-08 0)
(5.93376 6.67798e-09 0)
(5.93376 3.20832e-09 0)
(5.93375 3.10204e-08 0)
(5.93376 -3.47465e-08 0)
(5.93375 2.17467e-07 0)
(5.93376 3.72355e-07 0)
(5.93376 1.86689e-07 0)
(5.55526 -7.87675e-07 0)
(5.55526 -1.69267e-07 0)
(5.55526 8.71834e-07 0)
(5.55526 2.81316e-07 0)
(5.55526 1.13317e-07 0)
(5.55526 4.73772e-08 0)
(5.55526 5.0673e-08 0)
(5.55526 1.81493e-08 0)
(5.55526 3.23939e-08 0)
(5.55526 1.13503e-08 0)
(5.55526 2.60846e-08 0)
(5.55526 8.38834e-09 0)
(5.55526 1.73159e-08 0)
(5.55526 1.88255e-09 0)
(5.55526 7.53701e-09 0)
(5.55526 1.686e-08 0)
(5.55526 -7.36206e-09 0)
(5.55526 1.4331e-07 0)
(5.55527 2.63852e-07 0)
(5.55526 2.31975e-07 0)
(5.05054 -7.80675e-07 0)
(5.05054 -2.0585e-07 0)
(5.05054 7.96723e-07 0)
(5.05054 2.35655e-07 0)
(5.05054 9.92598e-08 0)
(5.05054 3.66065e-08 0)
(5.05054 4.78165e-08 0)
(5.05054 1.23446e-08 0)
(5.05054 2.96997e-08 0)
(5.05054 6.76759e-09 0)
(5.05054 2.53382e-08 0)
(5.05054 5.64684e-09 0)
(5.05054 1.74208e-08 0)
(5.05054 -2.37464e-09 0)
(5.05054 1.0444e-08 0)
(5.05054 5.16114e-09 0)
(5.05054 1.33023e-08 0)
(5.05054 7.93143e-08 0)
(5.05055 1.61792e-07 0)
(5.05054 2.52043e-07 0)
(4.41955 -6.94053e-07 0)
(4.41955 -1.99775e-07 0)
(4.41955 6.68047e-07 0)
(4.41955 1.75024e-07 0)
(4.41955 8.05605e-08 0)
(4.41955 2.50448e-08 0)
(4.41955 4.27171e-08 0)
(4.41955 6.64415e-09 0)
(4.41955 2.54386e-08 0)
(4.41955 2.578e-09 0)
(4.41955 2.34701e-08 0)
(4.41955 3.21853e-09 0)
(4.41955 1.63435e-08 0)
(4.41955 -5.77435e-09 0)
(4.41955 1.15674e-08 0)
(4.41955 -3.12887e-09 0)
(4.41955 2.54368e-08 0)
(4.41955 3.12541e-08 0)
(4.41956 7.59634e-08 0)
(4.41955 2.44985e-07 0)
(3.66224 -5.41981e-07 0)
(3.66223 -1.59717e-07 0)
(3.66223 4.98826e-07 0)
(3.66224 1.09645e-07 0)
(3.66224 5.98672e-08 0)
(3.66224 1.42404e-08 0)
(3.66224 3.58946e-08 0)
(3.66224 1.85924e-09 0)
(3.66224 2.01888e-08 0)
(3.66224 -4.98475e-10 0)
(3.66224 2.05753e-08 0)
(3.66224 1.38602e-09 0)
(3.66224 1.40088e-08 0)
(3.66224 -7.87646e-09 0)
(3.66224 1.09336e-08 0)
(3.66224 -7.65938e-09 0)
(3.66224 2.89961e-08 0)
(3.66224 2.94828e-09 0)
(3.66224 1.33282e-08 0)
(3.66224 2.11048e-07 0)
(2.77853 -3.56426e-07 0)
(2.77853 -1.00132e-07 0)
(2.77853 3.17531e-07 0)
(2.77853 4.99782e-08 0)
(2.77853 3.91565e-08 0)
(2.77853 6.31335e-09 0)
(2.77853 2.65806e-08 0)
(2.77853 -1.40507e-09 0)
(2.77853 1.4032e-08 0)
(2.77853 -1.83949e-09 0)
(2.77853 1.63939e-08 0)
(2.77853 3.475e-10 0)
(2.77853 1.04111e-08 0)
(2.77853 -7.92828e-09 0)
(2.77853 8.88355e-09 0)
(2.77853 -7.5314e-09 0)
(2.77853 2.47283e-08 0)
(2.77853 -1.04137e-08 0)
(2.77853 -2.00095e-08 0)
(2.77853 1.56503e-07 0)
(1.76836 -1.64453e-07 0)
(1.76836 -4.46553e-08 0)
(1.76836 1.4002e-07 0)
(1.76836 1.50225e-08 0)
(1.76836 2.00938e-08 0)
(1.76836 4.72706e-10 0)
(1.76837 1.68026e-08 0)
(1.76836 -1.19305e-09 0)
(1.76837 8.08442e-09 0)
(1.76836 -1.14167e-09 0)
(1.76837 1.03147e-08 0)
(1.76836 8.61278e-11 0)
(1.76837 5.74106e-09 0)
(1.76836 -5.44907e-09 0)
(1.76837 5.56027e-09 0)
(1.76836 -6.64631e-09 0)
(1.76837 1.64435e-08 0)
(1.76836 -3.775e-09 0)
(1.76837 -2.86763e-08 0)
(1.76837 8.37203e-08 0)
(0.63166 -4.51057e-08 0)
(0.631658 -9.36256e-09 0)
(0.631659 3.83972e-08 0)
(0.63166 -1.66246e-09 0)
(0.63166 5.28991e-09 0)
(0.63166 -1.11642e-10 0)
(0.63166 4.06583e-09 0)
(0.63166 -1.49636e-09 0)
(0.631661 1.87379e-09 0)
(0.63166 -3.28958e-10 0)
(0.631661 3.29977e-09 0)
(0.63166 -3.91295e-10 0)
(0.631661 1.27116e-09 0)
(0.63166 -2.04213e-09 0)
(0.631661 1.85957e-09 0)
(0.63166 -1.29672e-09 0)
(0.631661 4.72184e-09 0)
(0.63166 -5.13655e-09 0)
(0.63166 -1.05716e-08 0)
(0.631661 2.6821e-08 0)
)
;

boundaryField
{
    top
    {
        type            fixedValue;
        value           uniform (0 0 0);
    }
    bottom
    {
        type            fixedValue;
        value           uniform (0 0 0);
    }
    inlet
    {
        type            zeroGradient;
    }
    outlet
    {
        type            zeroGradient;
    }
    frontAndBack
    {
        type            empty;
    }
}


// ************************************************************************* //
