/*--------------------------------*- C++ -*----------------------------------*\
| =========                 |                                                 |
| \\      /  F ield         | OpenFOAM: The Open Source CFD Toolbox           |
|  \\    /   O peration     | Version:  4.1                                   |
|   \\  /    A nd           | Web:      www.OpenFOAM.org                      |
|    \\/     M anipulation  |                                                 |
\*---------------------------------------------------------------------------*/
FoamFile
{
    version     2.0;
    format      ascii;
    class       volScalarField;
    location    "4.2";
    object      p;
}
// * * * * * * * * * * * * * * * * * * * * * * * * * * * * * * * * * * * * * //

dimensions      [0 2 -2 0 0 0 0];

internalField   nonuniform List<scalar> 
400
(
4.0586e-12
4.52934e-12
3.8637e-12
4.12636e-12
3.63543e-12
3.77668e-12
3.40121e-12
3.44562e-12
3.16573e-12
3.1267e-12
2.91579e-12
2.81425e-12
2.6733e-12
2.51048e-12
2.41921e-12
2.19562e-12
2.16422e-12
1.89128e-12
1.93765e-12
1.82458e-12
4.04399e-12
4.51433e-12
3.86256e-12
4.12607e-12
3.63545e-12
3.77662e-12
3.40126e-12
3.4456e-12
3.16574e-12
3.12668e-12
2.91583e-12
2.81427e-12
2.67329e-12
2.51047e-12
2.41917e-12
2.19562e-12
2.16405e-12
1.89139e-12
1.92763e-12
1.81397e-12
4.03565e-12
4.50359e-12
3.86118e-12
4.12605e-12
3.63525e-12
3.77672e-12
3.40117e-12
3.44567e-12
3.16567e-12
3.12672e-12
2.91582e-12
2.81429e-12
2.6733e-12
2.51044e-12
2.41917e-12
2.19556e-12
2.16397e-12
1.89128e-12
1.91972e-12
1.80662e-12
4.03306e-12
4.49856e-12
3.85987e-12
4.12608e-12
3.63505e-12
3.77685e-12
3.40105e-12
3.44575e-12
3.1656e-12
3.12676e-12
2.91582e-12
2.81429e-12
2.67331e-12
2.51042e-12
2.41919e-12
2.19549e-12
2.16393e-12
1.891e-12
1.91519e-12
1.80285e-12
4.03393e-12
4.49752e-12
3.85865e-12
4.1261e-12
3.63487e-12
3.77694e-12
3.40096e-12
3.44582e-12
3.16554e-12
3.1268e-12
2.91581e-12
2.81429e-12
2.67333e-12
2.51042e-12
2.41921e-12
2.19541e-12
2.16391e-12
1.89066e-12
1.91332e-12
1.80154e-12
4.03707e-12
4.49913e-12
3.85745e-12
4.12609e-12
3.63472e-12
3.77702e-12
3.40087e-12
3.44585e-12
3.16551e-12
3.12682e-12
2.9158e-12
2.81428e-12
2.67336e-12
2.51045e-12
2.41923e-12
2.19533e-12
2.1639e-12
1.89026e-12
1.91355e-12
1.80212e-12
4.04181e-12
4.50258e-12
3.85622e-12
4.12607e-12
3.63461e-12
3.77708e-12
3.40079e-12
3.44586e-12
3.16549e-12
3.12684e-12
2.91578e-12
2.81427e-12
2.67338e-12
2.5105e-12
2.41923e-12
2.19525e-12
2.16392e-12
1.88985e-12
1.91556e-12
1.80427e-12
4.04734e-12
4.50708e-12
3.85497e-12
4.12604e-12
3.63452e-12
3.77713e-12
3.40071e-12
3.44585e-12
3.16546e-12
3.12686e-12
2.91577e-12
2.81425e-12
2.67341e-12
2.51055e-12
2.41924e-12
2.19516e-12
2.16396e-12
1.88948e-12
1.91893e-12
1.80756e-12
4.05293e-12
4.51183e-12
3.85368e-12
4.12596e-12
3.63445e-12
3.7772e-12
3.40064e-12
3.4458e-12
3.16544e-12
3.12689e-12
2.91575e-12
2.81424e-12
2.67342e-12
2.51061e-12
2.41924e-12
2.19507e-12
2.16399e-12
1.88918e-12
1.92316e-12
1.81149e-12
4.05785e-12
4.51607e-12
3.85239e-12
4.12585e-12
3.63439e-12
3.77725e-12
3.40058e-12
3.44576e-12
3.16547e-12
3.1269e-12
2.9157e-12
2.81427e-12
2.67345e-12
2.51064e-12
2.41922e-12
2.19498e-12
2.16403e-12
1.88894e-12
1.92766e-12
1.81553e-12
4.06152e-12
4.51918e-12
3.85102e-12
4.12574e-12
3.63434e-12
3.77728e-12
3.40053e-12
3.44571e-12
3.1655e-12
3.12693e-12
2.91566e-12
2.81429e-12
2.67346e-12
2.51067e-12
2.41919e-12
2.19491e-12
2.16409e-12
1.88876e-12
1.93194e-12
1.81919e-12
4.06345e-12
4.52073e-12
3.84964e-12
4.12554e-12
3.6343e-12
3.77726e-12
3.40053e-12
3.44565e-12
3.16552e-12
3.12697e-12
2.91563e-12
2.81431e-12
2.67345e-12
2.51075e-12
2.41912e-12
2.19486e-12
2.16411e-12
1.88867e-12
1.93547e-12
1.82199e-12
4.06338e-12
4.52038e-12
3.84831e-12
4.12531e-12
3.63425e-12
3.77721e-12
3.40057e-12
3.4456e-12
3.16556e-12
3.12697e-12
2.9156e-12
2.8143e-12
2.67344e-12
2.51086e-12
2.41906e-12
2.19482e-12
2.16407e-12
1.88869e-12
1.93786e-12
1.82348e-12
4.06117e-12
4.5181e-12
3.84699e-12
4.12506e-12
3.63425e-12
3.77711e-12
3.40061e-12
3.44554e-12
3.16563e-12
3.12695e-12
2.91557e-12
2.81427e-12
2.67347e-12
2.511e-12
2.41899e-12
2.19476e-12
2.16405e-12
1.88879e-12
1.93876e-12
1.82339e-12
4.05691e-12
4.51404e-12
3.84582e-12
4.12473e-12
3.63429e-12
3.77697e-12
3.40074e-12
3.44544e-12
3.16565e-12
3.12689e-12
2.91556e-12
2.81429e-12
2.67347e-12
2.51116e-12
2.41892e-12
2.19471e-12
2.16401e-12
1.88898e-12
1.93801e-12
1.82165e-12
4.05112e-12
4.5086e-12
3.84479e-12
4.1244e-12
3.63433e-12
3.77679e-12
3.40085e-12
3.44534e-12
3.1657e-12
3.12684e-12
2.91557e-12
2.81428e-12
2.67346e-12
2.51133e-12
2.41881e-12
2.19469e-12
2.16389e-12
1.88918e-12
1.93572e-12
1.81828e-12
4.0442e-12
4.50243e-12
3.84398e-12
4.12405e-12
3.63442e-12
3.77655e-12
3.40095e-12
3.44524e-12
3.16578e-12
3.12677e-12
2.91561e-12
2.81426e-12
2.67346e-12
2.5115e-12
2.41871e-12
2.19465e-12
2.16379e-12
1.8894e-12
1.93205e-12
1.81348e-12
4.03721e-12
4.49662e-12
3.84337e-12
4.12373e-12
3.63452e-12
3.77631e-12
3.40108e-12
3.44517e-12
3.16586e-12
3.12664e-12
2.91567e-12
2.81426e-12
2.67346e-12
2.51163e-12
2.41854e-12
2.19472e-12
2.16367e-12
1.8896e-12
1.92737e-12
1.80758e-12
4.03188e-12
4.49227e-12
3.84293e-12
4.12344e-12
3.63466e-12
3.77608e-12
3.40116e-12
3.44513e-12
3.1659e-12
3.12651e-12
2.91574e-12
2.81427e-12
2.67348e-12
2.51166e-12
2.41843e-12
2.19483e-12
2.16351e-12
1.88974e-12
1.92204e-12
1.80126e-12
4.0309e-12
4.49031e-12
3.84241e-12
4.12342e-12
3.63459e-12
3.77607e-12
3.40112e-12
3.44516e-12
3.16581e-12
3.12647e-12
2.91581e-12
2.81427e-12
2.67352e-12
2.51165e-12
2.41844e-12
2.19483e-12
2.16341e-12
1.88981e-12
1.91702e-12
1.7964e-12
)
;

boundaryField
{
    top
    {
        type            zeroGradient;
    }
    bottom
    {
        type            zeroGradient;
    }
    inlet
    {
        type            fixedValue;
        value           uniform 0;
    }
    outlet
    {
        type            fixedValue;
        value           uniform 0;
    }
    frontAndBack
    {
        type            empty;
    }
}


// ************************************************************************* //
