/*--------------------------------*- C++ -*----------------------------------*\
| =========                 |                                                 |
| \\      /  F ield         | OpenFOAM: The Open Source CFD Toolbox           |
|  \\    /   O peration     | Version:  4.1                                   |
|   \\  /    A nd           | Web:      www.OpenFOAM.org                      |
|    \\/     M anipulation  |                                                 |
\*---------------------------------------------------------------------------*/
FoamFile
{
    version     2.0;
    format      ascii;
    class       surfaceScalarField;
    location    "4.2";
    object      phi;
}
// * * * * * * * * * * * * * * * * * * * * * * * * * * * * * * * * * * * * * //

dimensions      [0 3 -1 0 0 0 0];

internalField   nonuniform List<scalar> 
760
(
1.25e-06
-6.30664e-18
1.25e-06
-4.33345e-18
1.25e-06
4.96357e-20
1.25e-06
-3.01575e-19
1.25e-06
2.04278e-19
1.25e-06
-1.77924e-19
1.25e-06
1.45295e-19
1.25e-06
-1.08245e-19
1.25e-06
7.61569e-20
1.25e-06
-5.91776e-20
1.25e-06
4.23915e-20
1.25e-06
-7.7022e-21
1.25e-06
-1.09769e-20
1.25e-06
1.83197e-20
1.25e-06
-5.03693e-20
1.25e-06
6.45214e-20
1.25e-06
-1.14729e-19
1.25e-06
1.60885e-19
1.25e-06
-2.60072e-18
-3.83063e-18
3.75e-06
-1.90609e-17
3.75e-06
-1.51637e-17
3.75e-06
-3.27878e-19
3.75e-06
-7.29352e-19
3.75e-06
4.2819e-19
3.75e-06
-3.91492e-19
3.75e-06
3.18707e-19
3.75e-06
-2.31484e-19
3.75e-06
1.5692e-19
3.75e-06
-1.30048e-19
3.75e-06
1.01176e-19
3.75e-06
-7.46605e-21
3.75e-06
-2.83657e-20
3.75e-06
2.86502e-20
3.75e-06
-1.17613e-19
3.75e-06
1.38158e-19
3.75e-06
-3.01923e-19
3.75e-06
4.24764e-19
3.75e-06
-9.5761e-18
-1.23692e-17
6.25e-06
-3.4483e-17
6.25e-06
-2.98988e-17
6.25e-06
-1.19341e-18
6.25e-06
-1.10946e-18
6.25e-06
5.48039e-19
6.25e-06
-5.35626e-19
6.25e-06
4.36063e-19
6.25e-06
-3.06143e-19
6.25e-06
1.94637e-19
6.25e-06
-1.7884e-19
6.25e-06
1.52462e-19
6.25e-06
4.56756e-21
6.25e-06
-4.62169e-20
6.25e-06
2.26525e-20
6.25e-06
-1.75573e-19
6.25e-06
1.8577e-19
6.25e-06
-5.00393e-19
6.25e-06
7.11709e-19
6.25e-06
-1.96626e-17
-2.36481e-17
8.75e-06
-5.02487e-17
8.75e-06
-4.59972e-17
8.75e-06
-2.38534e-18
8.75e-06
-1.42834e-18
8.75e-06
5.80923e-19
8.75e-06
-6.18362e-19
8.75e-06
5.03618e-19
8.75e-06
-3.37407e-19
8.75e-06
1.94089e-19
8.75e-06
-2.07279e-19
8.75e-06
1.96863e-19
8.75e-06
2.60579e-20
8.75e-06
-6.26805e-20
8.75e-06
7.43731e-22
8.75e-06
-2.20439e-19
8.75e-06
2.13516e-19
8.75e-06
-6.97229e-19
8.75e-06
9.98534e-19
8.75e-06
-3.13755e-17
-3.61864e-17
1.125e-05
-6.43438e-17
1.125e-05
-6.12172e-17
1.125e-05
-3.72941e-18
1.125e-05
-1.66788e-18
1.125e-05
5.3634e-19
1.125e-05
-6.4917e-19
1.125e-05
5.31597e-19
1.125e-05
-3.24675e-19
1.125e-05
1.57311e-19
1.125e-05
-2.19689e-19
1.125e-05
2.33919e-19
1.125e-05
5.07346e-20
1.125e-05
-7.3453e-20
1.125e-05
-3.20867e-20
1.125e-05
-2.5127e-19
1.125e-05
2.16099e-19
1.125e-05
-8.75323e-19
1.125e-05
1.27085e-18
1.125e-05
-4.32818e-17
-4.8556e-17
1.375e-05
-7.52415e-17
1.375e-05
-7.37857e-17
1.375e-05
-5.05515e-18
1.375e-05
-1.81475e-18
1.375e-05
4.29915e-19
1.375e-05
-6.25399e-19
1.375e-05
5.14851e-19
1.375e-05
-2.77885e-19
1.375e-05
9.87081e-20
1.375e-05
-2.18879e-19
1.375e-05
2.616e-19
1.375e-05
7.54928e-20
1.375e-05
-7.55074e-20
1.375e-05
-6.78561e-20
1.375e-05
-2.67553e-19
1.375e-05
2.03574e-19
1.375e-05
-1.02746e-18
1.375e-05
1.50645e-18
1.375e-05
-5.40987e-17
-5.94865e-17
1.625e-05
-8.18649e-17
1.625e-05
-8.24086e-17
1.625e-05
-6.21361e-18
1.625e-05
-1.85972e-18
1.625e-05
2.81187e-19
1.625e-05
-5.59434e-19
1.625e-05
4.69097e-19
1.625e-05
-2.07707e-19
1.625e-05
2.04934e-20
1.625e-05
-2.04942e-19
1.625e-05
2.78309e-19
1.625e-05
1.0048e-19
1.625e-05
-7.6002e-20
1.625e-05
-9.91878e-20
1.625e-05
-2.74001e-19
1.625e-05
1.73235e-19
1.625e-05
-1.12887e-18
1.625e-05
1.68459e-18
1.625e-05
-6.2763e-17
-6.79304e-17
1.875e-05
-8.37072e-17
1.875e-05
-8.63485e-17
1.875e-05
-7.07647e-18
1.875e-05
-1.79349e-18
1.875e-05
1.01501e-19
1.875e-05
-4.59291e-19
1.875e-05
3.91977e-19
1.875e-05
-1.19345e-19
1.875e-05
-7.31225e-20
1.875e-05
-1.78892e-19
1.875e-05
2.87517e-19
1.875e-05
1.13994e-19
1.875e-05
-6.51315e-20
1.875e-05
-1.2435e-19
1.875e-05
-2.64491e-19
1.875e-05
1.27884e-19
1.875e-05
-1.17527e-18
1.875e-05
1.79084e-18
1.875e-05
-6.84897e-17
-7.31403e-17
2.125e-05
-8.07336e-17
2.125e-05
-8.53903e-17
2.125e-05
-7.57156e-18
2.125e-05
-1.62897e-18
2.125e-05
-9.03728e-20
2.125e-05
-3.23143e-19
2.125e-05
2.89775e-19
2.125e-05
-3.14842e-20
2.125e-05
-1.77734e-19
2.125e-05
-1.36381e-19
2.125e-05
2.92502e-19
2.125e-05
1.19946e-19
2.125e-05
-5.69928e-20
2.125e-05
-1.41266e-19
2.125e-05
-2.4188e-19
2.125e-05
6.80271e-20
2.125e-05
-1.16816e-18
2.125e-05
1.82266e-18
2.125e-05
-7.08195e-17
-7.46964e-17
2.375e-05
-7.34172e-17
2.375e-05
-7.98522e-17
2.375e-05
-7.63588e-18
2.375e-05
-1.37751e-18
2.375e-05
-2.85013e-19
2.375e-05
-1.64304e-19
2.375e-05
1.72403e-19
2.375e-05
5.9137e-20
2.375e-05
-2.65326e-19
2.375e-05
-1.00855e-19
2.375e-05
2.75218e-19
2.375e-05
1.27516e-19
2.375e-05
-3.98292e-20
2.375e-05
-1.54892e-19
2.375e-05
-2.05537e-19
2.375e-05
4.74049e-21
2.375e-05
-1.10885e-18
2.375e-05
1.76129e-18
2.375e-05
-6.96479e-17
-7.25343e-17
2.625e-05
-6.26122e-17
2.625e-05
-7.05042e-17
2.625e-05
-7.31303e-18
2.625e-05
-1.04678e-18
2.625e-05
-4.6985e-19
2.625e-05
9.7037e-21
2.625e-05
4.67027e-20
2.625e-05
1.45997e-19
2.625e-05
-3.44645e-19
2.625e-05
-5.62213e-20
2.625e-05
2.48464e-19
2.625e-05
1.28704e-19
2.625e-05
-2.57252e-20
2.625e-05
-1.77007e-19
2.625e-05
-1.48787e-19
2.625e-05
-6.42593e-20
2.625e-05
-9.8802e-19
2.625e-05
1.60726e-18
2.625e-05
-6.51741e-17
-6.69263e-17
2.875e-05
-4.95142e-17
2.875e-05
-5.84436e-17
2.875e-05
-6.65581e-18
2.875e-05
-6.79624e-19
2.875e-05
-6.24332e-19
2.875e-05
1.7458e-19
2.875e-05
-7.14263e-20
2.875e-05
2.15911e-19
2.875e-05
-4.09283e-19
2.875e-05
-5.35554e-21
2.875e-05
2.131e-19
2.875e-05
1.32286e-19
2.875e-05
-1.63638e-20
2.875e-05
-1.90362e-19
2.875e-05
-9.79512e-20
2.875e-05
-1.27567e-19
2.875e-05
-8.24356e-19
2.875e-05
1.36806e-18
2.875e-05
-5.79229e-17
-5.84593e-17
3.125e-05
-3.54964e-17
3.125e-05
-4.50343e-17
3.125e-05
-5.73895e-18
3.125e-05
-3.03496e-19
3.125e-05
-7.57368e-19
3.125e-05
3.26255e-19
3.125e-05
-1.75114e-19
3.125e-05
2.80445e-19
3.125e-05
-4.49844e-19
3.125e-05
2.9854e-20
3.125e-05
1.69575e-19
3.125e-05
1.31184e-19
3.125e-05
-1.65745e-20
3.125e-05
-2.02478e-19
3.125e-05
-3.54818e-20
3.125e-05
-1.67788e-19
3.125e-05
-6.5038e-19
3.125e-05
1.07901e-18
3.125e-05
-4.863e-17
-4.80001e-17
3.375e-05
-2.19921e-17
3.375e-05
-3.16848e-17
3.375e-05
-4.70461e-18
3.375e-05
5.40139e-20
3.375e-05
-8.36676e-19
3.375e-05
4.45907e-19
3.375e-05
-2.80628e-19
3.375e-05
3.31626e-19
3.375e-05
-4.48521e-19
3.375e-05
7.23754e-20
3.375e-05
1.1524e-19
3.375e-05
1.09114e-19
3.375e-05
-8.7559e-21
3.375e-05
-2.03619e-19
3.375e-05
2.26079e-20
3.375e-05
-2.02304e-19
3.375e-05
-4.62256e-19
3.375e-05
7.58216e-19
3.375e-05
-3.82347e-17
-3.65847e-17
3.625e-05
-1.03973e-17
3.625e-05
-1.97284e-17
3.625e-05
-3.631e-18
3.625e-05
3.32336e-19
3.625e-05
-8.50541e-19
3.625e-05
5.27155e-19
3.625e-05
-3.4344e-19
3.625e-05
3.52146e-19
3.625e-05
-4.33552e-19
3.625e-05
9.53934e-20
3.625e-05
6.33997e-20
3.625e-05
1.04071e-19
3.625e-05
-3.7962e-21
3.625e-05
-1.9897e-19
3.625e-05
7.79224e-20
3.625e-05
-2.19482e-19
3.625e-05
-2.69708e-19
3.625e-05
4.55653e-19
3.625e-05
-2.77361e-17
-2.53003e-17
3.875e-05
-1.74424e-18
3.875e-05
-1.02282e-17
3.875e-05
-2.63009e-18
3.875e-05
5.1504e-19
3.875e-05
-8.09152e-19
3.875e-05
5.5752e-19
3.875e-05
-3.73772e-19
3.875e-05
3.39758e-19
3.875e-05
-3.91098e-19
3.875e-05
1.19993e-19
3.875e-05
1.34054e-20
3.875e-05
8.44899e-20
3.875e-05
-2.13634e-21
3.875e-05
-1.77172e-19
3.875e-05
1.11235e-19
3.875e-05
-2.10759e-19
3.875e-05
-1.1931e-19
3.875e-05
1.88053e-19
3.875e-05
-1.80693e-17
-1.52241e-17
4.125e-05
3.23333e-18
4.125e-05
-3.83331e-18
4.125e-05
-1.74801e-18
4.125e-05
5.5964e-19
4.125e-05
-6.8527e-19
4.125e-05
5.14433e-19
4.125e-05
-3.60672e-19
4.125e-05
2.85777e-19
4.125e-05
-3.16732e-19
4.125e-05
1.329e-19
4.125e-05
-2.16455e-20
4.125e-05
5.96306e-20
4.125e-05
2.38004e-21
4.125e-05
-1.40434e-19
4.125e-05
1.3758e-19
4.125e-05
-2.07637e-19
4.125e-05
-5.21817e-21
4.125e-05
3.93922e-22
4.125e-05
-1.00692e-17
-7.26722e-18
4.375e-05
4.47417e-18
4.375e-05
-5.399e-19
4.375e-05
-1.01248e-18
4.375e-05
4.73301e-19
4.375e-05
-5.05874e-19
4.375e-05
4.05712e-19
4.375e-05
-2.76387e-19
4.375e-05
2.04485e-19
4.375e-05
-2.14945e-19
4.375e-05
1.15235e-19
4.375e-05
-3.28441e-20
4.375e-05
3.44155e-20
4.375e-05
-2.74094e-21
4.375e-05
-8.02105e-20
4.375e-05
1.05353e-19
4.375e-05
-1.67174e-19
4.375e-05
5.83681e-20
4.375e-05
-7.49548e-20
4.375e-05
-4.30047e-18
-2.08137e-18
4.625e-05
2.51831e-18
4.625e-05
2.66422e-19
4.625e-05
-3.96118e-19
4.625e-05
2.36342e-19
4.625e-05
-2.28505e-19
4.625e-05
1.89118e-19
4.625e-05
-1.32976e-19
4.625e-05
9.16686e-20
4.625e-05
-8.42996e-20
4.625e-05
5.61601e-20
4.625e-05
-2.67451e-20
4.625e-05
1.77489e-20
4.625e-05
-2.37374e-21
4.625e-05
-3.30937e-20
4.625e-05
4.37513e-20
4.625e-05
-7.51162e-20
4.625e-05
5.16891e-20
4.625e-05
-6.41839e-20
4.625e-05
-1.00439e-18
5.64374e-20
4.875e-05
4.875e-05
4.875e-05
4.875e-05
4.875e-05
4.875e-05
4.875e-05
4.875e-05
4.875e-05
4.875e-05
4.875e-05
4.875e-05
4.875e-05
4.875e-05
4.875e-05
4.875e-05
4.875e-05
4.875e-05
4.875e-05
)
;

boundaryField
{
    top
    {
        type            calculated;
        value           uniform 0;
    }
    bottom
    {
        type            calculated;
        value           uniform 0;
    }
    inlet
    {
        type            calculated;
        value           nonuniform List<scalar> 
20
(
-1.25e-06
-3.75e-06
-6.25e-06
-8.75e-06
-1.125e-05
-1.375e-05
-1.625e-05
-1.875e-05
-2.125e-05
-2.375e-05
-2.625e-05
-2.875e-05
-3.125e-05
-3.375e-05
-3.625e-05
-3.875e-05
-4.125e-05
-4.375e-05
-4.625e-05
-4.875e-05
)
;
    }
    outlet
    {
        type            calculated;
        value           nonuniform List<scalar> 
20
(
1.25e-06
3.75e-06
6.25e-06
8.75e-06
1.125e-05
1.375e-05
1.625e-05
1.875e-05
2.125e-05
2.375e-05
2.625e-05
2.875e-05
3.125e-05
3.375e-05
3.625e-05
3.875e-05
4.125e-05
4.375e-05
4.625e-05
4.875e-05
)
;
    }
    frontAndBack
    {
        type            empty;
        value           nonuniform 0();
    }
}


// ************************************************************************* //
