/*--------------------------------*- C++ -*----------------------------------*\
| =========                 |                                                 |
| \\      /  F ield         | OpenFOAM: The Open Source CFD Toolbox           |
|  \\    /   O peration     | Version:  4.1                                   |
|   \\  /    A nd           | Web:      www.OpenFOAM.org                      |
|    \\/     M anipulation  |                                                 |
\*---------------------------------------------------------------------------*/
FoamFile
{
    version     2.0;
    format      ascii;
    class       volVectorField;
    location    "4.2";
    object      U;
}
// * * * * * * * * * * * * * * * * * * * * * * * * * * * * * * * * * * * * * //

dimensions      [0 1 -1 0 0 0 0];

internalField   nonuniform List<vector> 
400
(
(0.025 -2.81084e-15 0)
(0.025 -1.75245e-15 0)
(0.025 6.26051e-17 0)
(0.025 -1.51229e-16 0)
(0.025 1.07762e-16 0)
(0.025 -9.2009e-17 0)
(0.025 7.51198e-17 0)
(0.025 -5.67786e-17 0)
(0.025 4.097e-17 0)
(0.025 -3.04265e-17 0)
(0.025 2.12854e-17 0)
(0.025 -4.80094e-18 0)
(0.025 -5.30046e-18 0)
(0.025 1.06403e-17 0)
(0.025 -2.55345e-17 0)
(0.025 3.34713e-17 0)
(0.025 -5.54148e-17 0)
(0.025 7.12612e-17 0)
(0.025 -9.88901e-16 0)
(0.025 -1.61106e-15 0)
(0.075 -1.18253e-14 0)
(0.075 -8.72716e-15 0)
(0.075 -3.10458e-17 0)
(0.075 -5.08842e-16 0)
(0.075 3.27391e-16 0)
(0.075 -2.90117e-16 0)
(0.075 2.36618e-16 0)
(0.075 -1.74479e-16 0)
(0.075 1.21031e-16 0)
(0.075 -9.66704e-17 0)
(0.075 7.10123e-17 0)
(0.075 -9.66741e-18 0)
(0.075 -1.90194e-17 0)
(0.075 2.61659e-17 0)
(0.075 -8.36757e-17 0)
(0.075 1.03847e-16 0)
(0.075 -2.00048e-16 0)
(0.075 2.86808e-16 0)
(0.075 -5.33078e-15 0)
(0.075 -7.36111e-15 0)
(0.125 -2.62287e-14 0)
(0.125 -2.17798e-14 0)
(0.125 -6.65596e-16 0)
(0.125 -9.23922e-16 0)
(0.125 5.04792e-16 0)
(0.125 -4.73338e-16 0)
(0.125 3.85361e-16 0)
(0.125 -2.76753e-16 0)
(0.125 1.83464e-16 0)
(0.125 -1.57322e-16 0)
(0.125 1.27441e-16 0)
(0.125 -3.75761e-18 0)
(0.125 -3.73679e-17 0)
(0.125 2.90725e-17 0)
(0.125 -1.48134e-16 0)
(0.125 1.65842e-16 0)
(0.125 -3.96998e-16 0)
(0.125 5.56233e-16 0)
(0.125 -1.39835e-14 0)
(0.125 -1.74179e-14 0)
(0.175 -4.24533e-14 0)
(0.175 -3.78019e-14 0)
(0.175 -1.72291e-15 0)
(0.175 -1.28557e-15 0)
(0.175 5.85483e-16 0)
(0.175 -5.91794e-16 0)
(0.175 4.81599e-16 0)
(0.175 -3.32606e-16 0)
(0.175 2.03371e-16 0)
(0.175 -1.97446e-16 0)
(0.175 1.76543e-16 0)
(0.175 1.34878e-17 0)
(0.175 -5.51511e-17 0)
(0.175 1.46194e-17 0)
(0.175 -2.01053e-16 0)
(0.175 2.05108e-16 0)
(0.175 -6.00774e-16 0)
(0.175 8.54726e-16 0)
(0.175 -2.52498e-14 0)
(0.175 -2.97368e-14 0)
(0.225 -5.78921e-14 0)
(0.225 -5.40244e-14 0)
(0.225 -3.03854e-15 0)
(0.225 -1.57051e-15 0)
(0.225 5.76395e-16 0)
(0.225 -6.4791e-16 0)
(0.225 5.28535e-16 0)
(0.225 -3.40557e-16 0)
(0.225 1.83424e-16 0)
(0.225 -2.17729e-16 0)
(0.225 2.17899e-16 0)
(0.225 3.77304e-17 0)
(0.225 -6.94318e-17 0)
(0.225 -1.39669e-17 0)
(0.225 -2.39263e-16 0)
(0.225 2.19822e-16 0)
(0.225 -7.92929e-16 0)
(0.225 1.13952e-15 0)
(0.225 -3.74321e-14 0)
(0.225 -4.25661e-14 0)
(0.275 -7.07133e-14 0)
(0.275 -6.83107e-14 0)
(0.275 -4.41579e-15 0)
(0.275 -1.76604e-15 0)
(0.275 4.96386e-16 0)
(0.275 -6.49183e-16 0)
(0.275 5.32516e-16 0)
(0.275 -3.09049e-16 0)
(0.275 1.34305e-16 0)
(0.275 -2.22892e-16 0)
(0.275 2.50025e-16 0)
(0.275 6.31462e-17 0)
(0.275 -7.60946e-17 0)
(0.275 -4.96026e-17 0)
(0.275 -2.62908e-16 0)
(0.275 2.1464e-16 0)
(0.275 -9.61087e-16 0)
(0.275 1.3976e-15 0)
(0.275 -4.909e-14 0)
(0.275 -5.45054e-14 0)
(0.325 -7.96681e-14 0)
(0.325 -7.91593e-14 0)
(0.325 -5.69395e-15 0)
(0.325 -1.86332e-15 0)
(0.325 3.64767e-16 0)
(0.325 -6.02608e-16 0)
(0.325 4.99845e-16 0)
(0.325 -2.47708e-16 0)
(0.325 6.36631e-17 0)
(0.325 -2.15262e-16 0)
(0.325 2.72161e-16 0)
(0.325 8.90119e-17 0)
(0.325 -7.70394e-17 0)
(0.325 -8.44751e-17 0)
(0.325 -2.73859e-16 0)
(0.325 1.92466e-16 0)
(0.325 -1.09033e-15 0)
(0.325 1.60931e-15 0)
(0.325 -5.90567e-14 0)
(0.325 -6.4413e-14 0)
(0.375 -8.39699e-14 0)
(0.375 -8.55598e-14 0)
(0.375 -6.7313e-15 0)
(0.375 -1.85269e-15 0)
(0.375 1.9697e-16 0)
(0.375 -5.18338e-16 0)
(0.375 4.37345e-16 0)
(0.375 -1.664e-16 0)
(0.375 -2.44907e-17 0)
(0.375 -1.94582e-16 0)
(0.375 2.85475e-16 0)
(0.375 1.08633e-16 0)
(0.375 -7.1858e-17 0)
(0.375 -1.13187e-16 0)
(0.375 -2.72281e-16 0)
(0.375 1.53672e-16 0)
(0.375 -1.16587e-15 0)
(0.375 1.75554e-15 0)
(0.375 -6.64044e-14 0)
(0.375 -7.13853e-14 0)
(0.425 -8.33514e-14 0)
(0.425 -8.70411e-14 0)
(0.425 -7.4263e-15 0)
(0.425 -1.73587e-15 0)
(0.425 7.91583e-18 0)
(0.425 -3.97586e-16 0)
(0.425 3.4555e-16 0)
(0.425 -7.61546e-17 0)
(0.425 -1.25407e-16 0)
(0.425 -1.59699e-16 0)
(0.425 2.92627e-16 0)
(0.425 1.18267e-16 0)
(0.425 -6.18268e-17 0)
(0.425 -1.33722e-16 0)
(0.425 -2.56965e-16 0)
(0.425 1.00083e-16 0)
(0.425 -1.18575e-15 0)
(0.425 1.82819e-15 0)
(0.425 -7.05042e-14 0)
(0.425 -7.48295e-14 0)
(0.475 -7.80439e-14 0)
(0.475 -8.36617e-14 0)
(0.475 -7.70901e-15 0)
(0.475 -1.52314e-15 0)
(0.475 -1.88936e-16 0)
(0.475 -2.47607e-16 0)
(0.475 2.32905e-16 0)
(0.475 1.46392e-17 0)
(0.475 -2.23391e-16 0)
(0.475 -1.19427e-16 0)
(0.475 2.86677e-16 0)
(0.475 1.25212e-16 0)
(0.475 -4.82101e-17 0)
(0.475 -1.49404e-16 0)
(0.475 -2.27011e-16 0)
(0.475 3.71246e-17 0)
(0.475 -1.1517e-15 0)
(0.475 1.81488e-15 0)
(0.475 -7.10714e-14 0)
(0.475 -7.45012e-14 0)
(0.525 -6.87291e-14 0)
(0.525 -7.59874e-14 0)
(0.525 -7.57097e-15 0)
(0.525 -1.22637e-15 0)
(0.525 -3.81779e-16 0)
(0.525 -7.81261e-17 0)
(0.525 1.09795e-16 0)
(0.525 1.04117e-16 0)
(0.525 -3.08989e-16 0)
(0.525 -7.80945e-17 0)
(0.525 2.64834e-16 0)
(0.525 1.28918e-16 0)
(0.525 -3.27727e-17 0)
(0.525 -1.66356e-16 0)
(0.525 -1.79717e-16 0)
(0.525 -3.01989e-17 0)
(0.525 -1.05967e-15 0)
(0.525 1.70571e-15 0)
(0.525 -6.81589e-14 0)
(0.525 -7.05072e-14 0)
(0.575 -5.64603e-14 0)
(0.575 -6.49794e-14 0)
(0.575 -7.06102e-15 0)
(0.575 -8.70374e-16 0)
(0.575 -5.54827e-16 0)
(0.575 9.51303e-17 0)
(0.575 -1.42648e-17 0)
(0.575 1.83923e-16 0)
(0.575 -3.82344e-16 0)
(0.575 -2.99415e-17 0)
(0.575 2.33056e-16 0)
(0.575 1.31559e-16 0)
(0.575 -1.97328e-17 0)
(0.575 -1.84802e-16 0)
(0.575 -1.25162e-16 0)
(0.575 -9.83941e-17 0)
(0.575 -9.14205e-16 0)
(0.575 1.50567e-15 0)
(0.575 -6.21398e-14 0)
(0.575 -6.32903e-14 0)
(0.625 -4.2554e-14 0)
(0.625 -5.19038e-14 0)
(0.625 -6.24843e-15 0)
(0.625 -4.89649e-16 0)
(0.625 -7.01458e-16 0)
(0.625 2.56454e-16 0)
(0.625 -1.26683e-16 0)
(0.625 2.51868e-16 0)
(0.625 -4.36196e-16 0)
(0.625 1.37709e-17 0)
(0.625 1.93193e-16 0)
(0.625 1.32885e-16 0)
(0.625 -1.61325e-17 0)
(0.625 -1.97608e-16 0)
(0.625 -6.67791e-17 0)
(0.625 -1.50933e-16 0)
(0.625 -7.42114e-16 0)
(0.625 1.23558e-15 0)
(0.625 -5.36615e-14 0)
(0.625 -5.35953e-14 0)
(0.675 -2.84489e-14 0)
(0.675 -3.81835e-14 0)
(0.675 -5.24427e-15 0)
(0.675 -1.13928e-16 0)
(0.675 -8.10152e-16 0)
(0.675 3.94244e-16 0)
(0.675 -2.31863e-16 0)
(0.675 3.11512e-16 0)
(0.675 -4.56166e-16 0)
(0.675 5.18837e-17 0)
(0.675 1.43163e-16 0)
(0.675 1.21058e-16 0)
(0.675 -1.22363e-17 0)
(0.675 -2.04637e-16 0)
(0.675 -5.07084e-18 0)
(0.675 -1.89276e-16 0)
(0.675 -5.56566e-16 0)
(0.675 9.22716e-16 0)
(0.675 -4.35818e-14 0)
(0.675 -4.23948e-14 0)
(0.725 -1.55976e-14 0)
(0.725 -2.5237e-14 0)
(0.725 -4.16413e-15 0)
(0.725 2.1454e-16 0)
(0.725 -8.5945e-16 0)
(0.725 4.98165e-16 0)
(0.725 -3.19411e-16 0)
(0.725 3.48897e-16 0)
(0.725 -4.47969e-16 0)
(0.725 8.53792e-17 0)
(0.725 8.85406e-17 0)
(0.725 1.08015e-16 0)
(0.725 -6.07162e-18 0)
(0.725 -2.04093e-16 0)
(0.725 5.27765e-17 0)
(0.725 -2.15424e-16 0)
(0.725 -3.61707e-16 0)
(0.725 6.01961e-16 0)
(0.725 -3.28977e-14 0)
(0.725 -3.0778e-14 0)
(0.775 -5.25145e-15 0)
(0.775 -1.43017e-14 0)
(0.775 -3.10719e-15 0)
(0.775 4.52514e-16 0)
(0.775 -8.47669e-16 0)
(0.775 5.57156e-16 0)
(0.775 -3.69865e-16 0)
(0.775 3.54321e-16 0)
(0.775 -4.19203e-16 0)
(0.775 1.10519e-16 0)
(0.775 3.58751e-17 0)
(0.775 9.52222e-17 0)
(0.775 -3.43227e-18 0)
(0.775 -1.90473e-16 0)
(0.775 9.99685e-17 0)
(0.775 -2.2009e-16 0)
(0.775 -1.86277e-16 0)
(0.775 3.07209e-16 0)
(0.775 -2.25959e-14 0)
(0.775 -1.98482e-14 0)
(0.825 1.63253e-15 0)
(0.825 -6.2903e-15 0)
(0.825 -2.15268e-15 0)
(0.825 5.72079e-16 0)
(0.825 -7.66031e-16 0)
(0.825 5.52975e-16 0)
(0.825 -3.8035e-16 0)
(0.825 3.21255e-16 0)
(0.825 -3.60141e-16 0)
(0.825 1.3182e-16 0)
(0.825 -8.53362e-18 0)
(0.825 7.22389e-17 0)
(0.825 7.71029e-19 0)
(0.825 -1.61798e-16 0)
(0.825 1.3109e-16 0)
(0.825 -2.15456e-16 0)
(0.825 -4.94784e-17 0)
(0.825 7.22931e-17 0)
(0.825 -1.35887e-14 0)
(0.825 -1.06397e-14 0)
(0.875 4.61597e-15 0)
(0.875 -1.51586e-15 0)
(0.875 -1.33606e-15 0)
(0.875 5.44203e-16 0)
(0.875 -6.07335e-16 0)
(0.875 4.75938e-16 0)
(0.875 -3.319e-16 0)
(0.875 2.51495e-16 0)
(0.875 -2.68954e-16 0)
(0.875 1.29481e-16 0)
(0.875 -3.13089e-17 0)
(0.875 4.66575e-17 0)
(0.875 5.39624e-20 0)
(0.875 -1.10636e-16 0)
(0.875 1.27367e-16 0)
(0.875 -1.91835e-16 0)
(0.875 4.08332e-17 0)
(0.875 -6.35711e-17 0)
(0.875 -6.5956e-15 0)
(0.875 -3.97965e-15 0)
(0.925 3.9902e-15 0)
(0.925 3.19343e-16 0)
(0.925 -6.59886e-16 0)
(0.925 3.75142e-16 0)
(0.925 -3.72588e-16 0)
(0.925 3.05796e-16 0)
(0.925 -2.11166e-16 0)
(0.925 1.49403e-16 0)
(0.925 -1.49299e-16 0)
(0.925 8.97088e-17 0)
(0.925 -3.4414e-17 0)
(0.925 2.56977e-17 0)
(0.925 -2.22777e-18 0)
(0.925 -5.65972e-17 0)
(0.925 7.79732e-17 0)
(0.925 -1.24593e-16 0)
(0.925 6.74491e-17 0)
(0.925 -8.61168e-17 0)
(0.925 -2.12652e-15 0)
(0.925 -4.19369e-16 0)
(0.975 1.49141e-15 0)
(0.975 3.35221e-16 0)
(0.975 -1.85865e-16 0)
(0.975 1.26731e-16 0)
(0.975 -1.17624e-16 0)
(0.975 1.01049e-16 0)
(0.975 -7.24696e-17 0)
(0.975 4.83097e-17 0)
(0.975 -4.31395e-17 0)
(0.975 2.99927e-17 0)
(0.975 -1.38664e-17 0)
(0.975 7.92245e-18 0)
(0.975 -3.06097e-19 0)
(0.975 -1.54176e-17 0)
(0.975 2.36715e-17 0)
(0.975 -3.89154e-17 0)
(0.975 3.1232e-17 0)
(0.975 -4.47412e-17 0)
(0.975 -2.76783e-16 0)
(0.975 2.90842e-16 0)
)
;

boundaryField
{
    top
    {
        type            fixedValue;
        value           uniform (1 0 0);
    }
    bottom
    {
        type            fixedValue;
        value           uniform (0 0 0);
    }
    inlet
    {
        type            zeroGradient;
    }
    outlet
    {
        type            zeroGradient;
    }
    frontAndBack
    {
        type            empty;
    }
}


// ************************************************************************* //
