/*--------------------------------*- C++ -*----------------------------------*\
| =========                 |                                                 |
| \\      /  F ield         | OpenFOAM: The Open Source CFD Toolbox           |
|  \\    /   O peration     | Version:  4.1                                   |
|   \\  /    A nd           | Web:      www.OpenFOAM.org                      |
|    \\/     M anipulation  |                                                 |
\*---------------------------------------------------------------------------*/
FoamFile
{
    version     2.0;
    format      ascii;
    class       surfaceScalarField;
    location    "4.3";
    object      phi;
}
// * * * * * * * * * * * * * * * * * * * * * * * * * * * * * * * * * * * * * //

dimensions      [0 3 -1 0 0 0 0];

internalField   nonuniform List<scalar> 
760
(
-1.91641e-05
5.52961e-13
-1.91641e-05
9.63302e-13
-1.91641e-05
6.99161e-14
-1.91641e-05
1.29411e-12
-1.91641e-05
-2.15693e-13
-1.91641e-05
1.50509e-12
-1.91641e-05
-4.24503e-13
-1.91641e-05
1.56917e-12
-1.91641e-05
-5.77832e-13
-1.91641e-05
1.49711e-12
-1.91641e-05
-6.60178e-13
-1.91641e-05
1.27552e-12
-1.91641e-05
-6.44745e-13
-1.91641e-05
9.40295e-13
-1.91641e-05
-5.60408e-13
-1.91641e-05
5.04268e-13
-1.91641e-05
-2.82649e-13
-1.91641e-05
-8.73553e-14
-1.91641e-05
-2.05196e-13
2.56713e-13
-5.11594e-05
5.21053e-13
-5.11594e-05
3.23188e-13
-5.11594e-05
-1.87764e-12
-5.11594e-05
-4.68363e-13
-5.11594e-05
-3.0363e-12
-5.11594e-05
-1.12584e-12
-5.11594e-05
-3.78633e-12
-5.11594e-05
-1.51253e-12
-5.11594e-05
-4.17157e-12
-5.11594e-05
-1.68965e-12
-5.11594e-05
-4.15773e-12
-5.11594e-05
-1.72135e-12
-5.11594e-05
-3.7346e-12
-5.11594e-05
-1.62464e-12
-5.11594e-05
-3.01786e-12
-5.11594e-05
-1.44746e-12
-5.11594e-05
-1.84764e-12
-5.11594e-05
-1.48242e-12
-5.11594e-05
-1.02781e-12
6.68871e-13
-7.68219e-05
3.9602e-13
-7.68219e-05
-7.06781e-13
-7.68219e-05
-4.13499e-12
-7.68219e-05
-2.96639e-12
-7.68219e-05
-6.01827e-12
-7.68219e-05
-4.77117e-12
-7.68219e-05
-7.1765e-12
-7.68219e-05
-5.71865e-12
-7.68219e-05
-7.69078e-12
-7.68219e-05
-5.98984e-12
-7.68219e-05
-7.50536e-12
-7.68219e-05
-5.70712e-12
-7.68219e-05
-6.63362e-12
-7.68219e-05
-4.96899e-12
-7.68219e-05
-5.28091e-12
-7.68219e-05
-3.88305e-12
-7.68219e-05
-3.27358e-12
-7.68219e-05
-3.05777e-12
-7.68219e-05
-1.76414e-12
1.33577e-12
-9.61516e-05
4.0063e-13
-9.61516e-05
-1.47205e-12
-9.61516e-05
-6.18815e-12
-9.61516e-05
-5.06784e-12
-9.61516e-05
-8.6433e-12
-9.61516e-05
-7.94404e-12
-9.61516e-05
-1.01029e-11
-9.61516e-05
-9.41519e-12
-9.61516e-05
-1.06894e-11
-9.61516e-05
-9.79586e-12
-9.61516e-05
-1.03265e-11
-9.61516e-05
-9.25406e-12
-9.61516e-05
-9.04641e-12
-9.61516e-05
-7.96401e-12
-9.61516e-05
-7.13923e-12
-9.61516e-05
-6.07726e-12
-9.61516e-05
-4.40721e-12
-9.61516e-05
-4.51437e-12
-9.61516e-05
-2.34809e-12
2.08449e-12
-0.000109148
4.83915e-13
-0.000109148
-2.00898e-12
-0.000109148
-7.89644e-12
-0.000109148
-6.75228e-12
-0.000109148
-1.07794e-11
-0.000109148
-1.05329e-11
-0.000109148
-1.24534e-11
-0.000109148
-1.2442e-11
-0.000109148
-1.30747e-11
-0.000109148
-1.2917e-11
-0.000109148
-1.25527e-11
-0.000109148
-1.21664e-11
-0.000109148
-1.09322e-11
-0.000109148
-1.04262e-11
-0.000109148
-8.57741e-12
-0.000109148
-7.88191e-12
-0.000109148
-5.25341e-12
-0.000109148
-5.72357e-12
-0.000109148
-2.8005e-12
2.83024e-12
-0.000115812
5.90597e-13
-0.000115812
-2.4264e-12
-0.000115812
-9.26882e-12
-0.000115813
-8.13045e-12
-0.000115812
-1.25052e-11
-0.000115813
-1.26375e-11
-0.000115812
-1.43556e-11
-0.000115813
-1.48979e-11
-0.000115812
-1.50025e-11
-0.000115813
-1.54459e-11
-0.000115812
-1.43489e-11
-0.000115813
-1.45237e-11
-0.000115812
-1.24495e-11
-0.000115813
-1.24165e-11
-0.000115813
-9.73137e-12
-0.000115813
-9.34249e-12
-0.000115813
-5.91706e-12
-0.000115813
-6.69678e-12
-0.000115813
-3.17115e-12
3.45027e-12
-0.000116144
7.04275e-13
-0.000116144
-2.79272e-12
-0.000116144
-1.02884e-11
-0.000116144
-9.24321e-12
-0.000116144
-1.38409e-11
-0.000116144
-1.4284e-11
-0.000116144
-1.58547e-11
-0.000116144
-1.68045e-11
-0.000116144
-1.65339e-11
-0.000116144
-1.73993e-11
-0.000116144
-1.57836e-11
-0.000116144
-1.63393e-11
-0.000116144
-1.36675e-11
-0.000116144
-1.39451e-11
-0.000116144
-1.0662e-11
-0.000116144
-1.04671e-11
-0.000116144
-6.44849e-12
-0.000116144
-7.43631e-12
-0.000116144
-3.47302e-12
3.86268e-12
-0.000110142
8.31086e-13
-0.000110142
-3.14423e-12
-0.000110142
-1.09351e-11
-0.000110142
-1.00957e-11
-0.000110142
-1.47769e-11
-0.000110142
-1.54704e-11
-0.000110142
-1.69482e-11
-0.000110142
-1.81577e-11
-0.000110142
-1.76728e-11
-0.000110142
-1.8774e-11
-0.000110142
-1.68655e-11
-0.000110142
-1.76095e-11
-0.000110142
-1.4599e-11
-0.000110142
-1.50086e-11
-0.000110142
-1.13829e-11
-0.000110142
-1.1254e-11
-0.000110142
-6.86401e-12
-0.000110142
-7.94479e-12
-0.000110142
-3.69718e-12
4.02246e-12
-9.78078e-05
9.8809e-13
-9.78078e-05
-3.49348e-12
-9.78078e-05
-1.12075e-11
-9.78078e-05
-1.06751e-11
-9.78078e-05
-1.53058e-11
-9.78078e-05
-1.61862e-11
-9.78078e-05
-1.76243e-11
-9.78078e-05
-1.89478e-11
-9.78078e-05
-1.84067e-11
-9.78078e-05
-1.95629e-11
-9.78078e-05
-1.75824e-11
-9.78078e-05
-1.83299e-11
-9.78078e-05
-1.52335e-11
-9.78078e-05
-1.56057e-11
-9.78078e-05
-1.18845e-11
-9.78078e-05
-1.17036e-11
-9.78078e-05
-7.15974e-12
-9.78078e-05
-8.23218e-12
-9.78078e-05
-3.82149e-12
3.92077e-12
-7.91406e-05
1.19166e-12
-7.91406e-05
-3.83255e-12
-7.91406e-05
-1.11259e-11
-7.91406e-05
-1.09643e-11
-7.91406e-05
-1.54272e-11
-7.91406e-05
-1.64261e-11
-7.91406e-05
-1.78689e-11
-7.91406e-05
-1.91738e-11
-7.91406e-05
-1.87139e-11
-7.91406e-05
-1.97681e-11
-7.91406e-05
-1.79086e-11
-7.91406e-05
-1.85046e-11
-7.91406e-05
-1.55443e-11
-7.91406e-05
-1.57422e-11
-7.91406e-05
-1.21417e-11
-7.91406e-05
-1.182e-11
-7.91406e-05
-7.3166e-12
-7.91406e-05
-8.31183e-12
-7.91406e-05
-3.82047e-12
3.58494e-12
-5.41406e-05
1.44738e-12
-5.41406e-05
-4.1359e-12
-5.41406e-05
-1.0731e-11
-5.41406e-05
-1.09524e-11
-5.41406e-05
-1.51514e-11
-5.41406e-05
-1.6198e-11
-5.41406e-05
-1.76736e-11
-5.41406e-05
-1.88506e-11
-5.41406e-05
-1.85736e-11
-5.41406e-05
-1.94082e-11
-5.41406e-05
-1.78158e-11
-5.41406e-05
-1.81524e-11
-5.41406e-05
-1.54992e-11
-5.41406e-05
-1.54356e-11
-5.41406e-05
-1.21225e-11
-5.41406e-05
-1.16142e-11
-5.41406e-05
-7.30749e-12
-5.41406e-05
-8.198e-12
-5.41406e-05
-3.67561e-12
3.07118e-12
-2.28078e-05
1.74101e-12
-2.28078e-05
-4.36462e-12
-2.28078e-05
-1.00756e-11
-2.28078e-05
-1.06399e-11
-2.28078e-05
-1.44981e-11
-2.28078e-05
-1.55271e-11
-2.28078e-05
-1.70367e-11
-2.28078e-05
-1.80125e-11
-2.28078e-05
-1.79695e-11
-2.28078e-05
-1.85203e-11
-2.28078e-05
-1.72778e-11
-2.28078e-05
-1.73082e-11
-2.28078e-05
-1.50661e-11
-2.28078e-05
-1.47153e-11
-2.28078e-05
-1.17946e-11
-2.28078e-05
-1.11035e-11
-2.28078e-05
-7.10383e-12
-2.28078e-05
-7.90132e-12
-2.28078e-05
-3.38357e-12
2.45342e-12
1.48578e-05
2.03195e-12
1.48578e-05
-4.47243e-12
1.48578e-05
-9.21352e-12
1.48578e-05
-1.00394e-11
1.48578e-05
-1.34909e-11
1.48578e-05
-1.44529e-11
1.48578e-05
-1.59611e-11
1.48578e-05
-1.67093e-11
1.48578e-05
-1.68899e-11
1.48578e-05
-1.71562e-11
1.48578e-05
-1.62729e-11
1.48578e-05
-1.60196e-11
1.48578e-05
-1.42164e-11
1.48578e-05
-1.36194e-11
1.48578e-05
-1.11294e-11
1.48578e-05
-1.03104e-11
1.48578e-05
-6.68119e-12
1.48578e-05
-7.42421e-12
1.48578e-05
-2.95977e-12
1.80977e-12
5.88562e-05
2.2525e-12
5.88562e-05
-4.4134e-12
5.88562e-05
-8.18682e-12
5.88562e-05
-9.16955e-12
5.88562e-05
-1.21496e-11
5.88562e-05
-1.30199e-11
5.88562e-05
-1.44485e-11
5.88562e-05
-1.49959e-11
5.88562e-05
-1.53237e-11
5.88562e-05
-1.5372e-11
5.88562e-05
-1.47814e-11
5.88562e-05
-1.43378e-11
5.88562e-05
-1.29254e-11
5.88562e-05
-1.2188e-11
5.88562e-05
-1.01041e-11
5.88562e-05
-9.25723e-12
5.88562e-05
-6.02373e-12
5.88562e-05
-6.75734e-12
5.88562e-05
-2.43594e-12
1.21003e-12
0.000109187
2.3111e-12
0.000109187
-4.14901e-12
0.000109187
-7.02088e-12
0.000109187
-8.04692e-12
0.000109187
-1.04873e-11
0.000109187
-1.12683e-11
0.000109187
-1.24979e-11
0.000109187
-1.29233e-11
0.000109187
-1.32599e-11
0.000109187
-1.32205e-11
0.000109187
-1.27858e-11
0.000109187
-1.23121e-11
0.000109187
-1.11714e-11
0.000109187
-1.04591e-11
0.000109188
-8.70112e-12
0.000109187
-7.96585e-12
0.000109188
-5.12531e-12
0.000109187
-5.88297e-12
0.000109187
-1.85218e-12
7.08532e-13
0.000165852
2.1195e-12
0.000165852
-3.6479e-12
0.000165852
-5.70677e-12
0.000165852
-6.66303e-12
0.000165852
-8.48955e-12
0.000165852
-9.20036e-12
0.000165852
-1.00837e-11
0.000165852
-1.04989e-11
0.000165852
-1.06678e-11
0.000165852
-1.07104e-11
0.000165852
-1.02542e-11
0.000165852
-9.95093e-12
0.000165852
-8.92686e-12
0.000165852
-8.43725e-12
0.000165852
-6.90048e-12
0.000165852
-6.43433e-12
0.000165852
-3.98351e-12
0.000165852
-4.77053e-12
0.000165852
-1.24003e-12
3.43057e-13
0.000228848
1.64539e-12
0.000228848
-2.87396e-12
0.000228848
-4.19076e-12
0.000228848
-4.94571e-12
0.000228848
-6.08303e-12
0.000228848
-6.73136e-12
0.000228848
-7.1131e-12
0.000228848
-7.63131e-12
0.000228848
-7.44583e-12
0.000228848
-7.75086e-12
0.000228848
-7.0877e-12
0.000228848
-7.17185e-12
0.000228848
-6.10431e-12
0.000228848
-6.05297e-12
0.000228848
-4.6346e-12
0.000228848
-4.60924e-12
0.000228848
-2.55852e-12
0.000228848
-3.37837e-12
0.000228848
-5.88533e-13
1.4946e-13
0.000298178
8.76915e-13
0.000298178
-1.89309e-12
0.000298178
-2.58209e-12
0.000298178
-2.97109e-12
0.000298178
-3.45164e-12
0.000298178
-3.971e-12
0.000298178
-3.81144e-12
0.000298178
-4.45208e-12
0.000298178
-3.83226e-12
0.000298178
-4.48181e-12
0.000298178
-3.51253e-12
0.000298178
-4.11089e-12
0.000298178
-2.89935e-12
0.000298178
-3.43051e-12
0.000298178
-2.05196e-12
0.000298178
-2.59009e-12
0.000298178
-9.30752e-13
0.000298178
-1.81059e-12
0.000298178
9.24777e-14
1.38064e-13
0.000373841
1.59599e-13
0.000373841
-5.92181e-13
0.000373841
-7.55088e-13
0.000373841
-5.67426e-13
0.000373841
-4.69557e-13
0.000373841
-7.05735e-13
0.000373841
-6.85798e-14
0.000373841
-7.30905e-13
0.000373841
2.66303e-13
0.000373841
-6.81403e-13
0.000373841
5.4271e-13
0.000373841
-5.74348e-13
0.000373841
7.40507e-13
0.000373841
-4.24816e-13
0.000373841
8.74964e-13
0.000373841
-2.94962e-13
0.000373841
9.47636e-13
0.000373841
-1.25893e-13
0.000373841
8.61013e-13
3.16147e-13
0.000455836
0.000455836
0.000455836
0.000455836
0.000455836
0.000455836
0.000455836
0.000455836
0.000455836
0.000455836
0.000455836
0.000455836
0.000455836
0.000455836
0.000455836
0.000455836
0.000455836
0.000455836
0.000455836
)
;

boundaryField
{
    top
    {
        type            calculated;
        value           uniform 0;
    }
    bottom
    {
        type            calculated;
        value           uniform 0;
    }
    inlet
    {
        type            calculated;
        value           nonuniform List<scalar> 
20
(
1.91641e-05
5.11594e-05
7.68219e-05
9.61516e-05
0.000109148
0.000115812
0.000116144
0.000110142
9.78078e-05
7.91406e-05
5.41406e-05
2.28078e-05
-1.48578e-05
-5.88562e-05
-0.000109187
-0.000165852
-0.000228848
-0.000298178
-0.000373841
-0.000455836
)
;
    }
    outlet
    {
        type            calculated;
        value           nonuniform List<scalar> 
20
(
-1.91641e-05
-5.11594e-05
-7.68219e-05
-9.61516e-05
-0.000109148
-0.000115813
-0.000116144
-0.000110142
-9.78078e-05
-7.91406e-05
-5.41406e-05
-2.28078e-05
1.48578e-05
5.88562e-05
0.000109188
0.000165852
0.000228848
0.000298178
0.000373841
0.000455836
)
;
    }
    frontAndBack
    {
        type            empty;
        value           nonuniform 0();
    }
}


// ************************************************************************* //
