/*--------------------------------*- C++ -*----------------------------------*\
| =========                 |                                                 |
| \\      /  F ield         | OpenFOAM: The Open Source CFD Toolbox           |
|  \\    /   O peration     | Version:  4.1                                   |
|   \\  /    A nd           | Web:      www.OpenFOAM.org                      |
|    \\/     M anipulation  |                                                 |
\*---------------------------------------------------------------------------*/
FoamFile
{
    version     2.0;
    format      ascii;
    class       volVectorField;
    location    "4.3";
    object      U;
}
// * * * * * * * * * * * * * * * * * * * * * * * * * * * * * * * * * * * * * //

dimensions      [0 1 -1 0 0 0 0];

internalField   nonuniform List<vector> 
400
(
(-0.383281 -6.36592e-13 0)
(-0.383281 -1.12809e-10 0)
(-0.383281 -6.44258e-10 0)
(-0.383281 -5.00652e-10 0)
(-0.383281 -1.03077e-09 0)
(-0.383281 -8.09504e-10 0)
(-0.383281 -1.28722e-09 0)
(-0.383281 -1.00524e-09 0)
(-0.383281 -1.40675e-09 0)
(-0.383281 -1.09062e-09 0)
(-0.383281 -1.39052e-09 0)
(-0.383281 -1.07437e-09 0)
(-0.383281 -1.24667e-09 0)
(-0.383281 -9.65464e-10 0)
(-0.383281 -1.00511e-09 0)
(-0.383281 -7.88325e-10 0)
(-0.383281 -6.65749e-10 0)
(-0.383281 -5.78271e-10 0)
(-0.383281 -3.94172e-10 0)
(-0.383281 -7.7817e-11 0)
(-1.02319 6.56172e-10 0)
(-1.02319 9.73269e-10 0)
(-1.02319 -2.9363e-10 0)
(-1.02319 1.18684e-09 0)
(-1.02319 -8.07854e-10 0)
(-1.02319 1.33002e-09 0)
(-1.02319 -1.16012e-09 0)
(-1.02319 1.37964e-09 0)
(-1.02319 -1.39753e-09 0)
(-1.02319 1.32915e-09 0)
(-1.02319 -1.48725e-09 0)
(-1.02319 1.13788e-09 0)
(-1.02319 -1.39404e-09 0)
(-1.02319 8.44307e-10 0)
(-1.02319 -1.17123e-09 0)
(-1.02319 4.30705e-10 0)
(-1.02319 -6.3253e-10 0)
(-1.02319 -2.51536e-10 0)
(-1.02319 -4.01071e-10 0)
(-1.02319 6.22565e-10 0)
(-1.53644 2.22482e-10 0)
(-1.53644 -6.12451e-10 0)
(-1.53644 -3.59561e-09 0)
(-1.53644 -2.5864e-09 0)
(-1.53644 -5.37629e-09 0)
(-1.53644 -4.15788e-09 0)
(-1.53644 -6.49897e-09 0)
(-1.53644 -5.02212e-09 0)
(-1.53644 -7.01004e-09 0)
(-1.53644 -5.29337e-09 0)
(-1.53644 -6.87181e-09 0)
(-1.53644 -5.08699e-09 0)
(-1.53644 -6.10272e-09 0)
(-1.53644 -4.47385e-09 0)
(-1.53644 -4.88052e-09 0)
(-1.53644 -3.55605e-09 0)
(-1.53644 -3.08134e-09 0)
(-1.53644 -2.76632e-09 0)
(-1.53644 -1.69786e-09 0)
(-1.53644 7.69241e-10 0)
(-1.92303 4.49818e-10 0)
(-1.92303 -9.99844e-10 0)
(-1.92303 -4.98522e-09 0)
(-1.92303 -3.80357e-09 0)
(-1.92303 -7.05385e-09 0)
(-1.92303 -6.05788e-09 0)
(-1.92303 -8.29428e-09 0)
(-1.92303 -7.21519e-09 0)
(-1.92303 -8.81503e-09 0)
(-1.92303 -7.51638e-09 0)
(-1.92303 -8.54753e-09 0)
(-1.92303 -7.12069e-09 0)
(-1.92303 -7.51099e-09 0)
(-1.92303 -6.16547e-09 0)
(-1.92303 -5.94617e-09 0)
(-1.92303 -4.74962e-09 0)
(-1.92303 -3.66063e-09 0)
(-1.92303 -3.63538e-09 0)
(-1.92303 -1.97216e-09 0)
(-1.92303 1.77735e-09 0)
(-2.18297 4.76105e-10 0)
(-2.18297 -1.7019e-09 0)
(-2.18297 -7.031e-09 0)
(-2.18297 -5.8274e-09 0)
(-2.18297 -9.67375e-09 0)
(-2.18297 -9.14703e-09 0)
(-2.18297 -1.12176e-08 0)
(-2.18297 -1.08339e-08 0)
(-2.18297 -1.18081e-08 0)
(-2.18297 -1.12698e-08 0)
(-2.18297 -1.13599e-08 0)
(-2.18297 -1.06331e-08 0)
(-2.18297 -9.91157e-09 0)
(-2.18297 -9.13613e-09 0)
(-2.18297 -7.78926e-09 0)
(-2.18297 -6.94263e-09 0)
(-2.18297 -4.78263e-09 0)
(-2.18297 -5.10486e-09 0)
(-2.18297 -2.53936e-09 0)
(-2.18297 2.47894e-09 0)
(-2.31625 5.76915e-10 0)
(-2.31625 -2.17917e-09 0)
(-2.31625 -8.58428e-09 0)
(-2.31625 -7.36362e-09 0)
(-2.31625 -1.16159e-08 0)
(-2.31625 -1.14997e-08 0)
(-2.31625 -1.3353e-08 0)
(-2.31625 -1.35775e-08 0)
(-2.31625 -1.39719e-08 0)
(-2.31625 -1.40903e-08 0)
(-2.31625 -1.33759e-08 0)
(-2.31625 -1.32636e-08 0)
(-2.31625 -1.16151e-08 0)
(-2.31625 -1.13575e-08 0)
(-2.31625 -9.08443e-09 0)
(-2.31625 -8.56604e-09 0)
(-2.31625 -5.53229e-09 0)
(-2.31625 -6.19163e-09 0)
(-2.31625 -2.94075e-09 0)
(-2.31625 3.18229e-09 0)
(-2.32287 6.8549e-10 0)
(-2.32287 -2.56978e-09 0)
(-2.32287 -9.78374e-09 0)
(-2.32287 -8.62175e-09 0)
(-2.32288 -1.31393e-08 0)
(-2.32287 -1.339e-08 0)
(-2.32288 -1.50413e-08 0)
(-2.32288 -1.57721e-08 0)
(-2.32288 -1.56862e-08 0)
(-2.32288 -1.63428e-08 0)
(-2.32288 -1.49758e-08 0)
(-2.32288 -1.53561e-08 0)
(-2.32288 -1.29686e-08 0)
(-2.32288 -1.31153e-08 0)
(-2.32288 -1.01155e-08 0)
(-2.32288 -9.85247e-09 0)
(-2.32288 -6.11974e-09 0)
(-2.32288 -7.03991e-09 0)
(-2.32288 -3.2739e-09 0)
(-2.32288 3.71975e-09 0)
(-2.20284 8.04273e-10 0)
(-2.20284 -2.92776e-09 0)
(-2.20284 -1.06278e-08 0)
(-2.20284 -9.61008e-09 0)
(-2.20284 -1.42898e-08 0)
(-2.20284 -1.48115e-08 0)
(-2.20284 -1.63541e-08 0)
(-2.20284 -1.74065e-08 0)
(-2.20284 -1.70374e-08 0)
(-2.20284 -1.80092e-08 0)
(-2.20284 -1.62482e-08 0)
(-2.20284 -1.69013e-08 0)
(-2.20284 -1.40542e-08 0)
(-2.20284 -1.44149e-08 0)
(-2.20284 -1.09482e-08 0)
(-2.20284 -1.08109e-08 0)
(-2.20284 -6.59437e-09 0)
(-2.20284 -7.66718e-09 0)
(-2.20284 -3.53463e-09 0)
(-2.20284 4.00983e-09 0)
(-1.95616 9.44102e-10 0)
(-1.95616 -3.27425e-09 0)
(-1.95616 -1.1085e-08 0)
(-1.95616 -1.03292e-08 0)
(-1.95616 -1.50209e-08 0)
(-1.95616 -1.57648e-08 0)
(-1.95616 -1.72386e-08 0)
(-1.95616 -1.848e-08 0)
(-1.95616 -1.79736e-08 0)
(-1.95616 -1.90928e-08 0)
(-1.95616 -1.71475e-08 0)
(-1.95616 -1.78976e-08 0)
(-1.95616 -1.4837e-08 0)
(-1.95616 -1.52458e-08 0)
(-1.95616 -1.15596e-08 0)
(-1.95616 -1.14291e-08 0)
(-1.95616 -6.94934e-09 0)
(-1.95616 -8.06532e-09 0)
(-1.95616 -3.71016e-09 0)
(-1.95616 4.04014e-09 0)
(-1.58281 1.12287e-09 0)
(-1.58281 -3.61446e-09 0)
(-1.58281 -1.11722e-08 0)
(-1.58281 -1.07648e-08 0)
(-1.58281 -1.53414e-08 0)
(-1.58281 -1.62425e-08 0)
(-1.58281 -1.76972e-08 0)
(-1.58281 -1.89887e-08 0)
(-1.58281 -1.8494e-08 0)
(-1.58281 -1.95913e-08 0)
(-1.58281 -1.76704e-08 0)
(-1.58281 -1.83473e-08 0)
(-1.58281 -1.5312e-08 0)
(-1.58281 -1.5615e-08 0)
(-1.58281 -1.19423e-08 0)
(-1.58281 -1.17146e-08 0)
(-1.58281 -7.17847e-09 0)
(-1.58281 -8.2515e-09 0)
(-1.58281 -3.77637e-09 0)
(-1.58281 3.81621e-09 0)
(-1.08281 1.35231e-09 0)
(-1.08281 -3.9328e-09 0)
(-1.08281 -1.09213e-08 0)
(-1.08281 -1.0903e-08 0)
(-1.08281 -1.52573e-08 0)
(-1.08281 -1.62489e-08 0)
(-1.08281 -1.77193e-08 0)
(-1.08281 -1.894e-08 0)
(-1.08281 -1.85779e-08 0)
(-1.08281 -1.95154e-08 0)
(-1.08281 -1.77901e-08 0)
(-1.08281 -1.82615e-08 0)
(-1.08281 -1.54497e-08 0)
(-1.08281 -1.5534e-08 0)
(-1.08281 -1.20676e-08 0)
(-1.08281 -1.16749e-08 0)
(-1.08281 -7.2581e-09 0)
(-1.08281 -8.2396e-09 0)
(-1.08281 -3.71008e-09 0)
(-1.08281 3.38122e-09 0)
(-0.456156 1.62932e-09 0)
(-0.456156 -4.1981e-09 0)
(-0.456156 -1.03816e-08 0)
(-0.456156 -1.07386e-08 0)
(-0.456156 -1.47856e-08 0)
(-0.456156 -1.57968e-08 0)
(-0.456156 -1.73015e-08 0)
(-0.456156 -1.83584e-08 0)
(-0.456156 -1.82082e-08 0)
(-0.456156 -1.88927e-08 0)
(-0.456156 -1.74804e-08 0)
(-0.456156 -1.76666e-08 0)
(-0.456156 -1.52184e-08 0)
(-0.456156 -1.50255e-08 0)
(-0.456156 -1.19034e-08 0)
(-0.456156 -1.13232e-08 0)
(-0.456156 -7.16003e-09 0)
(-0.456156 -8.04195e-09 0)
(-0.456156 -3.4989e-09 0)
(-0.456156 2.80202e-09 0)
(0.297156 1.92705e-09 0)
(0.297156 -4.36815e-09 0)
(0.297156 -9.60923e-09 0)
(0.297156 -1.0279e-08 0)
(0.297156 -1.39492e-08 0)
(0.297156 -1.4919e-08 0)
(0.297156 -1.64451e-08 0)
(0.297156 -1.72866e-08 0)
(0.297156 -1.73708e-08 0)
(0.297156 -1.7768e-08 0)
(0.297156 -1.67168e-08 0)
(0.297156 -1.66039e-08 0)
(0.297156 -1.4587e-08 0)
(0.297156 -1.41229e-08 0)
(0.297156 -1.14179e-08 0)
(0.297156 -1.06788e-08 0)
(0.297156 -6.85631e-09 0)
(0.297156 -7.66462e-09 0)
(0.297156 -3.14782e-09 0)
(0.297156 2.15713e-09 0)
(1.17712 2.19911e-09 0)
(1.17712 -4.39592e-09 0)
(1.17712 -8.64571e-09 0)
(1.17712 -9.53578e-09 0)
(1.17712 -1.27614e-08 0)
(1.17712 -1.36525e-08 0)
(1.17712 -1.51432e-08 0)
(1.17712 -1.57639e-08 0)
(1.17712 -1.60454e-08 0)
(1.17712 -1.61803e-08 0)
(1.17712 -1.54715e-08 0)
(1.17712 -1.51072e-08 0)
(1.17712 -1.35255e-08 0)
(1.17712 -1.28511e-08 0)
(1.17712 -1.05825e-08 0)
(1.17712 -9.75214e-09 0)
(1.17712 -6.32444e-09 0)
(1.17712 -7.09698e-09 0)
(1.17712 -2.67736e-09 0)
(1.17712 1.5219e-09 0)
(2.18375 2.33761e-09 0)
(2.18375 -4.2369e-09 0)
(2.18375 -7.55754e-09 0)
(2.18375 -8.53988e-09 0)
(2.18375 -1.12708e-08 0)
(2.18375 -1.20645e-08 0)
(2.18375 -1.34247e-08 0)
(2.18375 -1.3881e-08 0)
(2.18375 -1.42432e-08 0)
(2.18375 -1.42269e-08 0)
(2.18375 -1.37387e-08 0)
(2.18375 -1.32709e-08 0)
(2.18375 -1.20088e-08 0)
(2.18375 -1.12898e-08 0)
(2.18375 -9.37265e-09 0)
(2.18375 -8.59871e-09 0)
(2.18375 -5.54596e-09 0)
(2.18375 -6.34371e-09 0)
(2.18375 -2.12652e-09 0)
(2.18375 9.62621e-10 0)
(3.31703 2.277e-09 0)
(3.31703 -3.86456e-09 0)
(3.31703 -6.31684e-09 0)
(3.31703 -7.28802e-09 0)
(3.31703 -9.44818e-09 0)
(3.31703 -1.01509e-08 0)
(3.31703 -1.1254e-08 0)
(3.31703 -1.16251e-08 0)
(3.31703 -1.19292e-08 0)
(3.31703 -1.18866e-08 0)
(3.31703 -1.14876e-08 0)
(3.31703 -1.10677e-08 0)
(3.31703 -1.00212e-08 0)
(3.31703 -9.40592e-09 0)
(3.31703 -7.77941e-09 0)
(3.31703 -7.18202e-09 0)
(3.31703 -4.52826e-09 0)
(3.31703 -5.35e-09 0)
(3.31703 -1.52837e-09 0)
(3.31703 5.20359e-10 0)
(4.57697 2.04915e-09 0)
(4.57697 -3.11048e-09 0)
(4.57697 -4.71473e-09 0)
(4.57697 -5.52177e-09 0)
(4.57697 -6.94025e-09 0)
(4.57697 -7.59228e-09 0)
(4.57697 -8.18413e-09 0)
(4.57697 -8.64308e-09 0)
(4.57697 -8.61682e-09 0)
(4.57697 -8.80416e-09 0)
(4.57697 -8.24608e-09 0)
(4.57697 -8.16908e-09 0)
(4.57697 -7.12945e-09 0)
(4.57697 -6.91868e-09 0)
(4.57697 -5.47155e-09 0)
(4.57697 -5.28876e-09 0)
(4.57697 -3.06463e-09 0)
(4.57697 -3.95201e-09 0)
(4.57697 -8.2335e-10 0)
(4.57697 2.73837e-10 0)
(5.96356 9.64983e-10 0)
(5.96356 -2.84242e-09 0)
(5.96356 -3.96483e-09 0)
(5.96356 -4.74497e-09 0)
(5.96356 -5.78756e-09 0)
(5.96356 -6.36188e-09 0)
(5.96356 -6.77848e-09 0)
(5.96356 -7.18464e-09 0)
(5.96356 -7.09619e-09 0)
(5.96356 -7.27949e-09 0)
(5.96356 -6.75005e-09 0)
(5.96356 -6.72216e-09 0)
(5.96356 -5.80167e-09 0)
(5.96356 -5.65813e-09 0)
(5.96356 -4.40942e-09 0)
(5.96356 -4.28248e-09 0)
(5.96356 -2.49986e-09 0)
(5.96356 -3.04018e-09 0)
(5.96356 -6.01752e-10 0)
(5.96356 -4.45879e-11 0)
(7.47681 8.29097e-10 0)
(7.47681 -8.41211e-10 0)
(7.47681 -1.08336e-09 0)
(7.47681 -1.02616e-09 0)
(7.47681 -9.1536e-10 0)
(7.47681 -1.37083e-09 0)
(7.47681 -5.93885e-10 0)
(7.47681 -1.49413e-09 0)
(7.47681 -3.00679e-10 0)
(7.47681 -1.46821e-09 0)
(7.47681 -2.91182e-11 0)
(7.47681 -1.31034e-09 0)
(7.47681 2.2118e-10 0)
(7.47681 -1.05051e-09 0)
(7.47681 4.64237e-10 0)
(7.47681 -8.00293e-10 0)
(7.47681 7.41922e-10 0)
(7.47681 -5.3322e-10 0)
(7.47681 7.88258e-10 0)
(7.47681 3.05767e-10 0)
(9.11672 -2.11481e-10 0)
(9.11672 -7.16208e-10 0)
(9.11672 -9.33874e-10 0)
(9.11672 -1.07916e-09 0)
(9.11672 -1.28979e-09 0)
(9.11672 -1.36988e-09 0)
(9.11672 -1.45089e-09 0)
(9.11672 -1.51757e-09 0)
(9.11672 -1.47114e-09 0)
(9.11672 -1.51889e-09 0)
(9.11672 -1.36504e-09 0)
(9.11672 -1.3861e-09 0)
(9.11672 -1.14236e-09 0)
(9.11672 -1.14996e-09 0)
(9.11672 -8.26598e-10 0)
(9.11672 -8.44614e-10 0)
(9.11672 -4.54081e-10 0)
(9.11672 -5.30809e-10 0)
(9.11672 -4.01583e-11 0)
(9.11672 -7.3927e-12 0)
)
;

boundaryField
{
    top
    {
        type            fixedValue;
        value           uniform (10 0 0);
    }
    bottom
    {
        type            fixedValue;
        value           uniform (0 0 0);
    }
    inlet
    {
        type            zeroGradient;
    }
    outlet
    {
        type            zeroGradient;
    }
    frontAndBack
    {
        type            empty;
    }
}


// ************************************************************************* //
