# Region type : patch inlet
#   Faces  : 20
#   Area   : 1.000000e-03
#        Time	sum(phi)
        0.005	-4.472685e-04
         0.01	-6.183002e-04
        0.015	-7.031279e-04
         0.02	-7.519280e-04
        0.025	-7.813342e-04
         0.03	-7.994691e-04
        0.035	-8.104220e-04
         0.04	-8.167781e-04
        0.045	-8.200710e-04
         0.05	-8.213476e-04
        0.055	-8.212721e-04
         0.06	-8.203161e-04
        0.065	-8.187863e-04
         0.07	-8.168994e-04
        0.075	-8.148083e-04
         0.08	-8.126034e-04
        0.085	-8.103540e-04
         0.09	-8.081052e-04
        0.095	-8.058882e-04
          0.1	-8.037231e-04
        0.105	-8.016226e-04
         0.11	-7.995943e-04
        0.115	-7.976427e-04
         0.12	-7.957694e-04
        0.125	-7.939746e-04
         0.13	-7.922565e-04
        0.135	-7.906147e-04
         0.14	-7.890459e-04
        0.145	-7.875487e-04
         0.15	-7.861199e-04
        0.155	-7.847567e-04
         0.16	-7.834562e-04
        0.165	-7.822164e-04
         0.17	-7.810339e-04
        0.175	-7.799066e-04
         0.18	-7.788319e-04
        0.185	-7.778625e-04
         0.19	-7.769158e-04
        0.195	-7.759819e-04
          0.2	-7.750551e-04
        0.205	-7.742096e-04
         0.21	-7.734040e-04
        0.215	-7.726358e-04
         0.22	-7.719027e-04
        0.225	-7.712050e-04
         0.23	-7.705398e-04
        0.235	-7.699059e-04
         0.24	-7.693017e-04
        0.245	-7.687251e-04
         0.25	-7.681759e-04
        0.255	-7.676523e-04
         0.26	-7.671538e-04
        0.265	-7.666782e-04
         0.27	-7.662259e-04
        0.275	-7.657936e-04
         0.28	-7.653821e-04
        0.285	-7.649897e-04
         0.29	-7.646160e-04
        0.295	-7.642598e-04
          0.3	-7.639202e-04
        0.305	-7.635961e-04
         0.31	-7.632877e-04
        0.315	-7.629942e-04
         0.32	-7.627136e-04
        0.325	-7.624470e-04
         0.33	-7.621919e-04
        0.335	-7.619492e-04
         0.34	-7.617179e-04
        0.345	-7.614979e-04
         0.35	-7.612876e-04
        0.355	-7.610877e-04
         0.36	-7.608965e-04
        0.365	-7.607147e-04
         0.37	-7.605406e-04
        0.375	-7.604227e-04
         0.38	-7.602626e-04
        0.385	-7.601557e-04
         0.39	-7.600080e-04
        0.395	-7.599106e-04
          0.4	-7.597748e-04
        0.405	-7.596938e-04
         0.41	-7.595682e-04
        0.415	-7.594865e-04
         0.42	-7.593703e-04
        0.425	-7.592907e-04
         0.43	-7.591837e-04
        0.435	-7.591117e-04
         0.44	-7.590131e-04
        0.445	-7.589778e-04
         0.45	-7.589434e-04
        0.455	-7.589098e-04
         0.46	-7.588762e-04
        0.465	-7.588433e-04
         0.47	-7.588113e-04
        0.475	-7.587799e-04
         0.48	-7.587489e-04
        0.485	-7.587184e-04
         0.49	-7.586883e-04
        0.495	-7.586587e-04
          0.5	-7.586297e-04
        0.505	-7.586013e-04
         0.51	-7.585733e-04
        0.515	-7.585459e-04
         0.52	-7.585190e-04
        0.525	-7.584926e-04
         0.53	-7.584666e-04
        0.535	-7.584410e-04
         0.54	-7.584159e-04
        0.545	-7.583912e-04
         0.55	-7.583670e-04
        0.555	-7.583431e-04
         0.56	-7.583198e-04
        0.565	-7.582968e-04
         0.57	-7.582742e-04
        0.575	-7.582521e-04
         0.58	-7.582303e-04
        0.585	-7.582089e-04
         0.59	-7.581878e-04
        0.595	-7.581672e-04
          0.6	-7.581469e-04
        0.605	-7.581270e-04
         0.61	-7.581074e-04
        0.615	-7.580882e-04
         0.62	-7.580693e-04
        0.625	-7.580507e-04
         0.63	-7.580325e-04
        0.635	-7.580146e-04
         0.64	-7.579970e-04
        0.645	-7.579797e-04
         0.65	-7.579627e-04
        0.655	-7.579460e-04
         0.66	-7.579296e-04
        0.665	-7.579135e-04
         0.67	-7.578977e-04
        0.675	-7.578821e-04
         0.68	-7.578669e-04
        0.685	-7.578519e-04
         0.69	-7.578371e-04
        0.695	-7.578227e-04
          0.7	-7.578085e-04
        0.705	-7.577945e-04
         0.71	-7.577808e-04
        0.715	-7.577673e-04
         0.72	-7.577540e-04
        0.725	-7.577410e-04
         0.73	-7.577282e-04
        0.735	-7.577157e-04
         0.74	-7.577034e-04
        0.745	-7.576912e-04
         0.75	-7.576793e-04
        0.755	-7.576676e-04
         0.76	-7.576561e-04
        0.765	-7.576449e-04
         0.77	-7.576338e-04
        0.775	-7.576229e-04
         0.78	-7.576122e-04
        0.785	-7.576017e-04
         0.79	-7.575914e-04
        0.795	-7.575812e-04
          0.8	-7.575712e-04
        0.805	-7.575615e-04
         0.81	-7.575518e-04
        0.815	-7.575424e-04
         0.82	-7.575331e-04
        0.825	-7.575240e-04
         0.83	-7.575150e-04
        0.835	-7.575062e-04
         0.84	-7.574976e-04
        0.845	-7.574891e-04
         0.85	-7.574807e-04
        0.855	-7.574725e-04
         0.86	-7.574645e-04
        0.865	-7.574566e-04
         0.87	-7.574488e-04
        0.875	-7.574412e-04
         0.88	-7.574337e-04
        0.885	-7.574263e-04
         0.89	-7.574191e-04
        0.895	-7.574120e-04
          0.9	-7.574050e-04
        0.905	-7.573981e-04
         0.91	-7.573914e-04
        0.915	-7.573848e-04
         0.92	-7.573783e-04
        0.925	-7.573719e-04
         0.93	-7.573656e-04
        0.935	-7.573594e-04
         0.94	-7.573534e-04
        0.945	-7.573474e-04
         0.95	-7.573416e-04
        0.955	-7.573358e-04
         0.96	-7.573302e-04
        0.965	-7.573246e-04
         0.97	-7.573192e-04
        0.975	-7.573138e-04
         0.98	-7.573086e-04
        0.985	-7.573034e-04
         0.99	-7.572984e-04
        0.995	-7.572934e-04
            1	-7.572885e-04
        1.005	-7.572837e-04
         1.01	-7.572790e-04
        1.015	-7.572743e-04
         1.02	-7.572698e-04
        1.025	-7.572653e-04
         1.03	-7.572609e-04
        1.035	-7.572566e-04
         1.04	-7.572523e-04
        1.045	-7.572481e-04
         1.05	-7.572441e-04
        1.055	-7.572400e-04
         1.06	-7.572361e-04
        1.065	-7.572322e-04
         1.07	-7.572284e-04
        1.075	-7.572246e-04
         1.08	-7.572209e-04
        1.085	-7.572173e-04
         1.09	-7.572138e-04
        1.095	-7.572103e-04
          1.1	-7.572068e-04
        1.105	-7.572035e-04
         1.11	-7.572002e-04
        1.115	-7.571969e-04
         1.12	-7.571937e-04
        1.125	-7.571906e-04
         1.13	-7.571875e-04
        1.135	-7.571845e-04
         1.14	-7.571815e-04
        1.145	-7.571786e-04
         1.15	-7.571757e-04
        1.155	-7.571729e-04
         1.16	-7.571701e-04
        1.165	-7.571674e-04
         1.17	-7.571647e-04
        1.175	-7.571621e-04
         1.18	-7.571595e-04
        1.185	-7.571570e-04
         1.19	-7.571545e-04
        1.195	-7.571520e-04
          1.2	-7.571496e-04
        1.205	-7.571473e-04
         1.21	-7.571449e-04
        1.215	-7.571427e-04
         1.22	-7.571404e-04
        1.225	-7.571382e-04
         1.23	-7.571361e-04
        1.235	-7.571339e-04
         1.24	-7.571319e-04
        1.245	-7.571298e-04
         1.25	-7.571278e-04
        1.255	-7.571258e-04
         1.26	-7.571239e-04
        1.265	-7.571220e-04
         1.27	-7.571201e-04
        1.275	-7.571183e-04
         1.28	-7.571165e-04
        1.285	-7.571147e-04
         1.29	-7.571129e-04
        1.295	-7.571112e-04
          1.3	-7.571095e-04
        1.305	-7.571079e-04
         1.31	-7.571063e-04
        1.315	-7.571047e-04
         1.32	-7.571031e-04
        1.325	-7.571016e-04
         1.33	-7.571000e-04
        1.335	-7.570985e-04
         1.34	-7.570971e-04
        1.345	-7.570957e-04
         1.35	-7.570942e-04
        1.355	-7.570929e-04
         1.36	-7.570915e-04
        1.365	-7.570902e-04
         1.37	-7.570888e-04
        1.375	-7.570876e-04
         1.38	-7.570863e-04
        1.385	-7.570850e-04
         1.39	-7.570838e-04
        1.395	-7.570826e-04
          1.4	-7.570814e-04
        1.405	-7.570803e-04
         1.41	-7.570791e-04
        1.415	-7.570780e-04
         1.42	-7.570769e-04
        1.425	-7.570758e-04
         1.43	-7.570748e-04
        1.435	-7.570737e-04
         1.44	-7.570727e-04
        1.445	-7.570717e-04
         1.45	-7.570707e-04
        1.455	-7.570697e-04
         1.46	-7.570688e-04
        1.465	-7.570678e-04
         1.47	-7.570669e-04
        1.475	-7.570660e-04
         1.48	-7.570651e-04
        1.485	-7.570643e-04
         1.49	-7.570634e-04
        1.495	-7.570626e-04
          1.5	-7.570617e-04
        1.505	-7.570609e-04
         1.51	-7.570601e-04
        1.515	-7.570593e-04
         1.52	-7.570586e-04
        1.525	-7.570578e-04
         1.53	-7.570571e-04
        1.535	-7.570563e-04
         1.54	-7.570556e-04
        1.545	-7.570549e-04
         1.55	-7.570542e-04
        1.555	-7.570535e-04
         1.56	-7.570529e-04
        1.565	-7.570522e-04
         1.57	-7.570516e-04
        1.575	-7.570509e-04
         1.58	-7.570503e-04
        1.585	-7.570497e-04
         1.59	-7.570491e-04
        1.595	-7.570485e-04
          1.6	-7.570479e-04
        1.605	-7.570474e-04
         1.61	-7.570468e-04
        1.615	-7.570463e-04
         1.62	-7.570457e-04
        1.625	-7.570452e-04
         1.63	-7.570447e-04
        1.635	-7.570442e-04
         1.64	-7.570437e-04
        1.645	-7.570432e-04
         1.65	-7.570427e-04
        1.655	-7.570422e-04
         1.66	-7.570417e-04
        1.665	-7.570413e-04
         1.67	-7.570408e-04
        1.675	-7.570404e-04
         1.68	-7.570399e-04
        1.685	-7.570395e-04
         1.69	-7.570391e-04
        1.695	-7.570387e-04
          1.7	-7.570383e-04
        1.705	-7.570379e-04
         1.71	-7.570375e-04
        1.715	-7.570371e-04
         1.72	-7.570367e-04
        1.725	-7.570363e-04
         1.73	-7.570360e-04
        1.735	-7.570356e-04
         1.74	-7.570353e-04
        1.745	-7.570349e-04
         1.75	-7.570346e-04
        1.755	-7.570342e-04
         1.76	-7.570339e-04
        1.765	-7.570336e-04
         1.77	-7.570333e-04
        1.775	-7.570329e-04
         1.78	-7.570326e-04
        1.785	-7.570323e-04
         1.79	-7.570320e-04
        1.795	-7.570318e-04
          1.8	-7.570315e-04
        1.805	-7.570312e-04
         1.81	-7.570309e-04
        1.815	-7.570306e-04
         1.82	-7.570304e-04
        1.825	-7.570301e-04
         1.83	-7.570299e-04
        1.835	-7.570296e-04
         1.84	-7.570294e-04
        1.845	-7.570291e-04
         1.85	-7.570289e-04
        1.855	-7.570286e-04
         1.86	-7.570284e-04
        1.865	-7.570282e-04
         1.87	-7.570280e-04
        1.875	-7.570277e-04
         1.88	-7.570275e-04
        1.885	-7.570273e-04
         1.89	-7.570271e-04
        1.895	-7.570269e-04
          1.9	-7.570267e-04
        1.905	-7.570265e-04
         1.91	-7.570263e-04
        1.915	-7.570261e-04
         1.92	-7.570260e-04
        1.925	-7.570258e-04
         1.93	-7.570256e-04
        1.935	-7.570254e-04
         1.94	-7.570252e-04
        1.945	-7.570251e-04
         1.95	-7.570249e-04
        1.955	-7.570247e-04
         1.96	-7.570246e-04
        1.965	-7.570244e-04
         1.97	-7.570243e-04
        1.975	-7.570241e-04
         1.98	-7.570240e-04
        1.985	-7.570238e-04
         1.99	-7.570237e-04
        1.995	-7.570235e-04
            2	-7.570234e-04
        2.005	-7.570232e-04
         2.01	-7.570231e-04
        2.015	-7.570230e-04
         2.02	-7.570228e-04
        2.025	-7.570227e-04
         2.03	-7.570226e-04
        2.035	-7.570225e-04
         2.04	-7.570224e-04
        2.045	-7.570222e-04
         2.05	-7.570221e-04
        2.055	-7.570220e-04
         2.06	-7.570219e-04
        2.065	-7.570218e-04
         2.07	-7.570217e-04
        2.075	-7.570216e-04
         2.08	-7.570215e-04
        2.085	-7.570214e-04
         2.09	-7.570213e-04
        2.095	-7.570212e-04
          2.1	-7.570211e-04
        2.105	-7.570210e-04
         2.11	-7.570209e-04
        2.115	-7.570208e-04
         2.12	-7.570207e-04
        2.125	-7.570206e-04
         2.13	-7.570205e-04
        2.135	-7.570204e-04
         2.14	-7.570203e-04
        2.145	-7.570202e-04
         2.15	-7.570202e-04
        2.155	-7.570201e-04
         2.16	-7.570200e-04
        2.165	-7.570199e-04
         2.17	-7.570198e-04
        2.175	-7.570198e-04
         2.18	-7.570197e-04
        2.185	-7.570196e-04
         2.19	-7.570196e-04
        2.195	-7.570195e-04
          2.2	-7.570194e-04
        2.205	-7.570193e-04
         2.21	-7.570193e-04
        2.215	-7.570192e-04
         2.22	-7.570192e-04
        2.225	-7.570191e-04
         2.23	-7.570190e-04
        2.235	-7.570190e-04
         2.24	-7.570189e-04
        2.245	-7.570189e-04
         2.25	-7.570188e-04
        2.255	-7.570187e-04
         2.26	-7.570187e-04
        2.265	-7.570186e-04
         2.27	-7.570186e-04
        2.275	-7.570185e-04
         2.28	-7.570185e-04
        2.285	-7.570184e-04
         2.29	-7.570184e-04
        2.295	-7.570183e-04
          2.3	-7.570183e-04
        2.305	-7.570182e-04
         2.31	-7.570182e-04
        2.315	-7.570181e-04
         2.32	-7.570181e-04
        2.325	-7.570180e-04
         2.33	-7.570180e-04
        2.335	-7.570180e-04
         2.34	-7.570179e-04
        2.345	-7.570179e-04
         2.35	-7.570178e-04
        2.355	-7.570178e-04
         2.36	-7.570178e-04
        2.365	-7.570177e-04
         2.37	-7.570177e-04
        2.375	-7.570176e-04
         2.38	-7.570176e-04
        2.385	-7.570176e-04
         2.39	-7.570175e-04
        2.395	-7.570175e-04
          2.4	-7.570175e-04
        2.405	-7.570174e-04
         2.41	-7.570174e-04
        2.415	-7.570174e-04
         2.42	-7.570173e-04
        2.425	-7.570173e-04
         2.43	-7.570173e-04
        2.435	-7.570172e-04
         2.44	-7.570172e-04
        2.445	-7.570172e-04
         2.45	-7.570172e-04
        2.455	-7.570171e-04
         2.46	-7.570171e-04
        2.465	-7.570171e-04
         2.47	-7.570170e-04
        2.475	-7.570170e-04
         2.48	-7.570170e-04
        2.485	-7.570170e-04
         2.49	-7.570169e-04
        2.495	-7.570169e-04
          2.5	-7.570169e-04
        2.505	-7.570169e-04
         2.51	-7.570169e-04
        2.515	-7.570168e-04
         2.52	-7.570168e-04
        2.525	-7.570168e-04
         2.53	-7.570168e-04
        2.535	-7.570167e-04
         2.54	-7.570167e-04
        2.545	-7.570167e-04
         2.55	-7.570167e-04
        2.555	-7.570167e-04
         2.56	-7.570166e-04
        2.565	-7.570166e-04
         2.57	-7.570166e-04
        2.575	-7.570166e-04
         2.58	-7.570166e-04
        2.585	-7.570166e-04
         2.59	-7.570165e-04
        2.595	-7.570165e-04
          2.6	-7.570165e-04
        2.605	-7.570165e-04
         2.61	-7.570165e-04
        2.615	-7.570165e-04
         2.62	-7.570164e-04
        2.625	-7.570164e-04
         2.63	-7.570164e-04
        2.635	-7.570164e-04
         2.64	-7.570164e-04
        2.645	-7.570164e-04
         2.65	-7.570164e-04
        2.655	-7.570163e-04
         2.66	-7.570163e-04
        2.665	-7.570163e-04
         2.67	-7.570163e-04
        2.675	-7.570163e-04
         2.68	-7.570163e-04
        2.685	-7.570163e-04
         2.69	-7.570162e-04
        2.695	-7.570162e-04
          2.7	-7.570162e-04
        2.705	-7.570162e-04
         2.71	-7.570162e-04
        2.715	-7.570162e-04
         2.72	-7.570162e-04
        2.725	-7.570162e-04
         2.73	-7.570162e-04
        2.735	-7.570161e-04
         2.74	-7.570161e-04
        2.745	-7.570161e-04
         2.75	-7.570161e-04
        2.755	-7.570161e-04
         2.76	-7.570161e-04
        2.765	-7.570161e-04
         2.77	-7.570161e-04
        2.775	-7.570161e-04
         2.78	-7.570161e-04
        2.785	-7.570161e-04
         2.79	-7.570161e-04
        2.795	-7.570160e-04
          2.8	-7.570160e-04
        2.805	-7.570160e-04
         2.81	-7.570160e-04
        2.815	-7.570160e-04
         2.82	-7.570160e-04
        2.825	-7.570160e-04
         2.83	-7.570160e-04
        2.835	-7.570160e-04
         2.84	-7.570160e-04
        2.845	-7.570160e-04
         2.85	-7.570160e-04
        2.855	-7.570159e-04
         2.86	-7.570159e-04
        2.865	-7.570159e-04
         2.87	-7.570159e-04
        2.875	-7.570159e-04
         2.88	-7.570159e-04
        2.885	-7.570159e-04
         2.89	-7.570159e-04
        2.895	-7.570159e-04
          2.9	-7.570159e-04
        2.905	-7.570159e-04
         2.91	-7.570159e-04
        2.915	-7.570159e-04
         2.92	-7.570159e-04
        2.925	-7.570159e-04
         2.93	-7.570159e-04
        2.935	-7.570159e-04
         2.94	-7.570159e-04
        2.945	-7.570159e-04
         2.95	-7.570159e-04
        2.955	-7.570159e-04
         2.96	-7.570158e-04
        2.965	-7.570158e-04
         2.97	-7.570158e-04
        2.975	-7.570158e-04
         2.98	-7.570158e-04
        2.985	-7.570158e-04
         2.99	-7.570158e-04
        2.995	-7.570158e-04
            3	-7.570158e-04
        3.005	-7.570158e-04
         3.01	-7.570158e-04
        3.015	-7.570158e-04
         3.02	-7.570158e-04
        3.025	-7.570158e-04
         3.03	-7.570158e-04
        3.035	-7.570158e-04
         3.04	-7.570158e-04
        3.045	-7.570158e-04
         3.05	-7.570158e-04
        3.055	-7.570158e-04
         3.06	-7.570158e-04
        3.065	-7.570158e-04
         3.07	-7.570158e-04
        3.075	-7.570158e-04
         3.08	-7.570158e-04
        3.085	-7.570158e-04
         3.09	-7.570158e-04
        3.095	-7.570157e-04
          3.1	-7.570157e-04
        3.105	-7.570157e-04
         3.11	-7.570157e-04
        3.115	-7.570157e-04
         3.12	-7.570157e-04
        3.125	-7.570157e-04
         3.13	-7.570157e-04
        3.135	-7.570157e-04
         3.14	-7.570157e-04
        3.145	-7.570157e-04
         3.15	-7.570157e-04
        3.155	-7.570157e-04
         3.16	-7.570157e-04
        3.165	-7.570157e-04
         3.17	-7.570157e-04
        3.175	-7.570157e-04
         3.18	-7.570157e-04
        3.185	-7.570157e-04
         3.19	-7.570157e-04
        3.195	-7.570157e-04
          3.2	-7.570157e-04
        3.205	-7.570157e-04
         3.21	-7.570157e-04
        3.215	-7.570157e-04
         3.22	-7.570157e-04
        3.225	-7.570157e-04
         3.23	-7.570157e-04
        3.235	-7.570157e-04
         3.24	-7.570157e-04
        3.245	-7.570157e-04
         3.25	-7.570157e-04
        3.255	-7.570157e-04
         3.26	-7.570157e-04
        3.265	-7.570157e-04
         3.27	-7.570157e-04
        3.275	-7.570157e-04
         3.28	-7.570157e-04
        3.285	-7.570157e-04
         3.29	-7.570157e-04
        3.295	-7.570157e-04
          3.3	-7.570157e-04
        3.305	-7.570157e-04
         3.31	-7.570157e-04
        3.315	-7.570157e-04
         3.32	-7.570157e-04
        3.325	-7.570157e-04
         3.33	-7.570157e-04
        3.335	-7.570157e-04
         3.34	-7.570157e-04
        3.345	-7.570157e-04
         3.35	-7.570157e-04
        3.355	-7.570157e-04
         3.36	-7.570157e-04
        3.365	-7.570157e-04
         3.37	-7.570157e-04
        3.375	-7.570157e-04
         3.38	-7.570157e-04
        3.385	-7.570157e-04
         3.39	-7.570157e-04
        3.395	-7.570156e-04
          3.4	-7.570156e-04
        3.405	-7.570156e-04
         3.41	-7.570156e-04
        3.415	-7.570156e-04
         3.42	-7.570156e-04
        3.425	-7.570156e-04
         3.43	-7.570156e-04
        3.435	-7.570156e-04
         3.44	-7.570156e-04
        3.445	-7.570156e-04
         3.45	-7.570156e-04
        3.455	-7.570156e-04
         3.46	-7.570156e-04
        3.465	-7.570156e-04
         3.47	-7.570156e-04
        3.475	-7.570156e-04
         3.48	-7.570156e-04
        3.485	-7.570156e-04
         3.49	-7.570156e-04
        3.495	-7.570156e-04
          3.5	-7.570156e-04
        3.505	-7.570156e-04
         3.51	-7.570156e-04
        3.515	-7.570156e-04
         3.52	-7.570156e-04
        3.525	-7.570156e-04
         3.53	-7.570156e-04
        3.535	-7.570156e-04
         3.54	-7.570156e-04
        3.545	-7.570156e-04
         3.55	-7.570156e-04
        3.555	-7.570156e-04
         3.56	-7.570156e-04
        3.565	-7.570156e-04
         3.57	-7.570156e-04
        3.575	-7.570156e-04
         3.58	-7.570156e-04
        3.585	-7.570156e-04
         3.59	-7.570156e-04
        3.595	-7.570156e-04
          3.6	-7.570156e-04
        3.605	-7.570156e-04
         3.61	-7.570156e-04
        3.615	-7.570156e-04
         3.62	-7.570156e-04
        3.625	-7.570156e-04
         3.63	-7.570156e-04
        3.635	-7.570156e-04
         3.64	-7.570156e-04
        3.645	-7.570156e-04
         3.65	-7.570156e-04
        3.655	-7.570156e-04
         3.66	-7.570156e-04
        3.665	-7.570156e-04
         3.67	-7.570156e-04
        3.675	-7.570156e-04
         3.68	-7.570156e-04
        3.685	-7.570156e-04
         3.69	-7.570156e-04
        3.695	-7.570156e-04
          3.7	-7.570156e-04
        3.705	-7.570156e-04
         3.71	-7.570156e-04
        3.715	-7.570156e-04
         3.72	-7.570156e-04
        3.725	-7.570156e-04
         3.73	-7.570156e-04
        3.735	-7.570156e-04
         3.74	-7.570156e-04
        3.745	-7.570156e-04
         3.75	-7.570156e-04
        3.755	-7.570156e-04
         3.76	-7.570156e-04
        3.765	-7.570156e-04
         3.77	-7.570156e-04
        3.775	-7.570156e-04
         3.78	-7.570156e-04
        3.785	-7.570156e-04
         3.79	-7.570156e-04
        3.795	-7.570156e-04
          3.8	-7.570156e-04
        3.805	-7.570156e-04
         3.81	-7.570156e-04
        3.815	-7.570156e-04
         3.82	-7.570156e-04
        3.825	-7.570156e-04
         3.83	-7.570156e-04
        3.835	-7.570156e-04
         3.84	-7.570156e-04
        3.845	-7.570156e-04
         3.85	-7.570156e-04
        3.855	-7.570156e-04
         3.86	-7.570156e-04
        3.865	-7.570156e-04
         3.87	-7.570156e-04
        3.875	-7.570156e-04
         3.88	-7.570156e-04
        3.885	-7.570156e-04
         3.89	-7.570156e-04
        3.895	-7.570156e-04
          3.9	-7.570156e-04
        3.905	-7.570156e-04
         3.91	-7.570156e-04
        3.915	-7.570156e-04
         3.92	-7.570156e-04
        3.925	-7.570156e-04
         3.93	-7.570156e-04
        3.935	-7.570156e-04
         3.94	-7.570156e-04
        3.945	-7.570156e-04
         3.95	-7.570156e-04
        3.955	-7.570156e-04
         3.96	-7.570156e-04
        3.965	-7.570156e-04
         3.97	-7.570156e-04
        3.975	-7.570156e-04
         3.98	-7.570156e-04
        3.985	-7.570156e-04
         3.99	-7.570156e-04
        3.995	-7.570156e-04
            4	-7.570156e-04
        4.005	-7.570156e-04
         4.01	-7.570156e-04
        4.015	-7.570156e-04
         4.02	-7.570156e-04
        4.025	-7.570156e-04
         4.03	-7.570156e-04
        4.035	-7.570156e-04
         4.04	-7.570156e-04
        4.045	-7.570156e-04
         4.05	-7.570156e-04
        4.055	-7.570156e-04
         4.06	-7.570156e-04
        4.065	-7.570156e-04
         4.07	-7.570156e-04
        4.075	-7.570156e-04
         4.08	-7.570156e-04
        4.085	-7.570156e-04
         4.09	-7.570156e-04
        4.095	-7.570156e-04
          4.1	-7.570156e-04
        4.105	-7.570156e-04
         4.11	-7.570156e-04
        4.115	-7.570156e-04
         4.12	-7.570156e-04
        4.125	-7.570156e-04
         4.13	-7.570156e-04
        4.135	-7.570156e-04
         4.14	-7.570156e-04
        4.145	-7.570156e-04
         4.15	-7.570156e-04
        4.155	-7.570156e-04
         4.16	-7.570156e-04
        4.165	-7.570156e-04
         4.17	-7.570156e-04
        4.175	-7.570156e-04
         4.18	-7.570156e-04
        4.185	-7.570156e-04
         4.19	-7.570156e-04
        4.195	-7.570156e-04
          4.2	-7.570156e-04
        4.205	-7.570156e-04
         4.21	-7.570156e-04
        4.215	-7.570156e-04
         4.22	-7.570156e-04
        4.225	-7.570156e-04
         4.23	-7.570156e-04
        4.235	-7.570156e-04
         4.24	-7.570156e-04
        4.245	-7.570156e-04
         4.25	-7.570156e-04
        4.255	-7.570156e-04
         4.26	-7.570156e-04
        4.265	-7.570156e-04
         4.27	-7.570156e-04
        4.275	-7.570156e-04
         4.28	-7.570156e-04
        4.285	-7.570156e-04
         4.29	-7.570156e-04
        4.295	-7.570156e-04
          4.3	-7.570156e-04
        4.305	-7.570156e-04
         4.31	-7.570156e-04
        4.315	-7.570156e-04
         4.32	-7.570156e-04
        4.325	-7.570156e-04
         4.33	-7.570156e-04
        4.335	-7.570156e-04
         4.34	-7.570156e-04
        4.345	-7.570156e-04
         4.35	-7.570156e-04
        4.355	-7.570156e-04
         4.36	-7.570156e-04
        4.365	-7.570156e-04
         4.37	-7.570156e-04
        4.375	-7.570156e-04
         4.38	-7.570156e-04
        4.385	-7.570156e-04
         4.39	-7.570156e-04
        4.395	-7.570156e-04
          4.4	-7.570156e-04
        4.405	-7.570156e-04
         4.41	-7.570156e-04
        4.415	-7.570156e-04
         4.42	-7.570156e-04
        4.425	-7.570156e-04
         4.43	-7.570156e-04
        4.435	-7.570156e-04
         4.44	-7.570156e-04
        4.445	-7.570156e-04
         4.45	-7.570156e-04
        4.455	-7.570156e-04
         4.46	-7.570156e-04
        4.465	-7.570156e-04
         4.47	-7.570156e-04
        4.475	-7.570156e-04
         4.48	-7.570156e-04
        4.485	-7.570156e-04
         4.49	-7.570156e-04
        4.495	-7.570156e-04
          4.5	-7.570156e-04
        4.505	-7.570156e-04
         4.51	-7.570156e-04
        4.515	-7.570156e-04
         4.52	-7.570156e-04
        4.525	-7.570156e-04
         4.53	-7.570156e-04
        4.535	-7.570156e-04
         4.54	-7.570156e-04
        4.545	-7.570156e-04
         4.55	-7.570156e-04
        4.555	-7.570156e-04
         4.56	-7.570156e-04
        4.565	-7.570156e-04
         4.57	-7.570156e-04
        4.575	-7.570156e-04
         4.58	-7.570156e-04
        4.585	-7.570156e-04
         4.59	-7.570156e-04
        4.595	-7.570156e-04
          4.6	-7.570156e-04
        4.605	-7.570156e-04
         4.61	-7.570156e-04
        4.615	-7.570156e-04
         4.62	-7.570156e-04
        4.625	-7.570156e-04
         4.63	-7.570156e-04
        4.635	-7.570156e-04
         4.64	-7.570156e-04
        4.645	-7.570156e-04
         4.65	-7.570156e-04
        4.655	-7.570156e-04
         4.66	-7.570156e-04
        4.665	-7.570156e-04
         4.67	-7.570156e-04
        4.675	-7.570156e-04
         4.68	-7.570156e-04
        4.685	-7.570156e-04
         4.69	-7.570156e-04
        4.695	-7.570156e-04
          4.7	-7.570156e-04
        4.705	-7.570156e-04
         4.71	-7.570156e-04
        4.715	-7.570156e-04
         4.72	-7.570156e-04
        4.725	-7.570156e-04
         4.73	-7.570156e-04
        4.735	-7.570156e-04
         4.74	-7.570156e-04
        4.745	-7.570156e-04
         4.75	-7.570156e-04
        4.755	-7.570156e-04
         4.76	-7.570156e-04
        4.765	-7.570156e-04
         4.77	-7.570156e-04
        4.775	-7.570156e-04
         4.78	-7.570156e-04
        4.785	-7.570156e-04
         4.79	-7.570156e-04
        4.795	-7.570156e-04
          4.8	-7.570156e-04
        4.805	-7.570156e-04
         4.81	-7.570156e-04
        4.815	-7.570156e-04
         4.82	-7.570156e-04
        4.825	-7.570156e-04
         4.83	-7.570156e-04
        4.835	-7.570156e-04
         4.84	-7.570156e-04
        4.845	-7.570156e-04
         4.85	-7.570156e-04
        4.855	-7.570156e-04
         4.86	-7.570156e-04
        4.865	-7.570156e-04
         4.87	-7.570156e-04
        4.875	-7.570156e-04
         4.88	-7.570156e-04
        4.885	-7.570156e-04
         4.89	-7.570156e-04
        4.895	-7.570156e-04
          4.9	-7.570156e-04
        4.905	-7.570156e-04
         4.91	-7.570156e-04
        4.915	-7.570156e-04
         4.92	-7.570156e-04
        4.925	-7.570156e-04
         4.93	-7.570156e-04
        4.935	-7.570156e-04
         4.94	-7.570156e-04
        4.945	-7.570156e-04
         4.95	-7.570156e-04
        4.955	-7.570156e-04
         4.96	-7.570156e-04
        4.965	-7.570156e-04
         4.97	-7.570156e-04
        4.975	-7.570156e-04
         4.98	-7.570156e-04
        4.985	-7.570156e-04
         4.99	-7.570156e-04
        4.995	-7.570156e-04
            5	-7.570156e-04
