/*--------------------------------*- C++ -*----------------------------------*\
| =========                 |                                                 |
| \\      /  F ield         | OpenFOAM: The Open Source CFD Toolbox           |
|  \\    /   O peration     | Version:  4.1                                   |
|   \\  /    A nd           | Web:      www.OpenFOAM.org                      |
|    \\/     M anipulation  |                                                 |
\*---------------------------------------------------------------------------*/
FoamFile
{
    version     2.0;
    format      ascii;
    class       volScalarField;
    location    "4.6";
    object      p;
}
// * * * * * * * * * * * * * * * * * * * * * * * * * * * * * * * * * * * * * //

dimensions      [0 2 -2 0 0 0 0];

internalField   nonuniform List<scalar> 
400
(
9.81663e-13
1.09277e-12
9.31053e-13
9.92513e-13
8.70882e-13
9.05143e-13
8.12324e-13
8.22993e-13
7.53976e-13
7.45718e-13
6.915e-13
6.69439e-13
6.43054e-13
6.05828e-13
5.87781e-13
5.37153e-13
5.27558e-13
4.59295e-13
4.708e-13
4.42123e-13
9.78131e-13
1.08914e-12
9.30773e-13
9.92448e-13
8.70886e-13
9.05118e-13
8.12345e-13
8.22985e-13
7.53968e-13
7.45702e-13
6.91539e-13
6.69454e-13
6.43035e-13
6.05807e-13
5.8775e-13
5.37165e-13
5.27528e-13
4.59318e-13
4.6837e-13
4.39562e-13
9.76116e-13
1.08655e-12
9.30435e-13
9.92442e-13
8.7084e-13
9.05144e-13
8.12326e-13
8.22996e-13
7.53946e-13
7.45698e-13
6.91561e-13
6.69468e-13
6.43022e-13
6.05783e-13
5.87727e-13
5.37174e-13
5.27523e-13
4.59279e-13
4.66445e-13
4.37791e-13
9.75487e-13
1.08534e-12
9.30121e-13
9.92448e-13
8.70786e-13
9.05181e-13
8.12295e-13
8.23012e-13
7.53926e-13
7.45689e-13
6.91578e-13
6.69465e-13
6.43014e-13
6.05776e-13
5.87701e-13
5.37187e-13
5.27534e-13
4.59197e-13
4.65332e-13
4.36894e-13
9.757e-13
1.0851e-12
9.29824e-13
9.92441e-13
8.70741e-13
9.0521e-13
8.12273e-13
8.23018e-13
7.53932e-13
7.45676e-13
6.91581e-13
6.69461e-13
6.43003e-13
6.05773e-13
5.87671e-13
5.37205e-13
5.27555e-13
4.59099e-13
4.64858e-13
4.36591e-13
9.76452e-13
1.0855e-12
9.29538e-13
9.92426e-13
8.70703e-13
9.05247e-13
8.12238e-13
8.23007e-13
7.53959e-13
7.45659e-13
6.9158e-13
6.69448e-13
6.43001e-13
6.0578e-13
5.87621e-13
5.3723e-13
5.27601e-13
4.58992e-13
4.64874e-13
4.36745e-13
9.77598e-13
1.08635e-12
9.29252e-13
9.92387e-13
8.70662e-13
9.05298e-13
8.12202e-13
8.23e-13
7.54013e-13
7.45643e-13
6.91555e-13
6.69441e-13
6.43006e-13
6.05775e-13
5.87561e-13
5.37272e-13
5.27646e-13
4.58891e-13
4.65313e-13
4.37298e-13
9.7894e-13
1.08745e-12
9.28957e-13
9.9234e-13
8.70628e-13
9.05371e-13
8.12142e-13
8.22995e-13
7.54091e-13
7.45609e-13
6.91542e-13
6.69436e-13
6.43011e-13
6.05781e-13
5.87487e-13
5.37313e-13
5.2769e-13
4.58808e-13
4.66075e-13
4.38116e-13
9.80303e-13
1.0886e-12
9.28664e-13
9.92297e-13
8.70585e-13
9.0547e-13
8.12074e-13
8.22984e-13
7.54192e-13
7.4557e-13
6.91514e-13
6.69456e-13
6.4304e-13
6.05794e-13
5.87415e-13
5.37371e-13
5.2773e-13
4.58706e-13
4.67064e-13
4.39101e-13
9.81525e-13
1.08966e-12
9.28355e-13
9.92246e-13
8.70552e-13
9.05556e-13
8.11992e-13
8.22995e-13
7.54301e-13
7.45511e-13
6.91457e-13
6.69501e-13
6.43076e-13
6.05784e-13
5.87353e-13
5.37444e-13
5.2777e-13
4.58623e-13
4.68132e-13
4.40105e-13
9.82427e-13
1.09044e-12
9.28046e-13
9.92188e-13
8.70494e-13
9.05656e-13
8.11939e-13
8.22981e-13
7.54386e-13
7.45474e-13
6.91406e-13
6.69535e-13
6.43095e-13
6.0578e-13
5.87303e-13
5.37512e-13
5.27813e-13
4.58553e-13
4.69132e-13
4.41012e-13
9.82898e-13
1.09081e-12
9.27758e-13
9.9212e-13
8.70443e-13
9.05731e-13
8.11895e-13
8.22973e-13
7.54465e-13
7.45414e-13
6.91382e-13
6.69558e-13
6.43111e-13
6.05803e-13
5.87237e-13
5.3758e-13
5.2785e-13
4.58552e-13
4.69936e-13
4.41692e-13
9.8289e-13
1.09073e-12
9.27507e-13
9.92026e-13
8.70404e-13
9.05793e-13
8.11816e-13
8.22941e-13
7.54604e-13
7.45331e-13
6.91374e-13
6.69609e-13
6.43109e-13
6.05783e-13
5.87231e-13
5.37644e-13
5.27871e-13
4.58573e-13
4.70468e-13
4.42009e-13
9.82356e-13
1.09026e-12
9.27271e-13
9.91899e-13
8.70365e-13
9.05815e-13
8.1177e-13
8.22929e-13
7.5474e-13
7.45273e-13
6.91351e-13
6.69662e-13
6.43111e-13
6.05729e-13
5.87241e-13
5.37708e-13
5.27862e-13
4.58589e-13
4.70661e-13
4.41981e-13
9.81326e-13
1.08936e-12
9.27041e-13
9.91816e-13
8.70337e-13
9.05786e-13
8.1174e-13
8.22916e-13
7.54876e-13
7.45217e-13
6.91327e-13
6.6972e-13
6.43129e-13
6.05728e-13
5.87216e-13
5.37769e-13
5.27813e-13
4.5858e-13
4.70467e-13
4.41574e-13
9.79966e-13
1.08811e-12
9.26786e-13
9.9175e-13
8.70294e-13
9.05754e-13
8.11724e-13
8.22899e-13
7.55017e-13
7.45183e-13
6.91315e-13
6.69717e-13
6.43158e-13
6.05743e-13
5.87149e-13
5.37836e-13
5.27764e-13
4.58586e-13
4.69907e-13
4.40817e-13
9.78304e-13
1.08672e-12
9.2655e-13
9.91644e-13
8.70286e-13
9.05741e-13
8.11754e-13
8.2286e-13
7.55079e-13
7.45166e-13
6.91317e-13
6.69741e-13
6.43158e-13
6.05755e-13
5.8707e-13
5.37863e-13
5.2772e-13
4.5866e-13
4.69006e-13
4.39705e-13
9.76671e-13
1.08537e-12
9.26347e-13
9.9159e-13
8.703e-13
9.05654e-13
8.11846e-13
8.22835e-13
7.55116e-13
7.45131e-13
6.9133e-13
6.69755e-13
6.43184e-13
6.05766e-13
5.8698e-13
5.37928e-13
5.27652e-13
4.58755e-13
4.67855e-13
4.38301e-13
9.75429e-13
1.08432e-12
9.26205e-13
9.91585e-13
8.70315e-13
9.05532e-13
8.11877e-13
8.22846e-13
7.55125e-13
7.45089e-13
6.91295e-13
6.69808e-13
6.43215e-13
6.05776e-13
5.86927e-13
5.38003e-13
5.27559e-13
4.58765e-13
4.66565e-13
4.368e-13
9.75179e-13
1.08384e-12
9.26076e-13
9.91631e-13
8.70285e-13
9.05461e-13
8.11936e-13
8.22801e-13
7.55087e-13
7.45116e-13
6.91284e-13
6.69836e-13
6.43271e-13
6.05776e-13
5.86904e-13
5.38004e-13
5.27477e-13
4.58763e-13
4.65381e-13
4.35601e-13
)
;

boundaryField
{
    top
    {
        type            zeroGradient;
    }
    bottom
    {
        type            zeroGradient;
    }
    inlet
    {
        type            fixedValue;
        value           uniform 0;
    }
    outlet
    {
        type            fixedValue;
        value           uniform 0;
    }
    frontAndBack
    {
        type            empty;
    }
}


// ************************************************************************* //
