/*--------------------------------*- C++ -*----------------------------------*\
| =========                 |                                                 |
| \\      /  F ield         | OpenFOAM: The Open Source CFD Toolbox           |
|  \\    /   O peration     | Version:  4.1                                   |
|   \\  /    A nd           | Web:      www.OpenFOAM.org                      |
|    \\/     M anipulation  |                                                 |
\*---------------------------------------------------------------------------*/
FoamFile
{
    version     2.0;
    format      ascii;
    class       surfaceScalarField;
    location    "4.6";
    object      phi;
}
// * * * * * * * * * * * * * * * * * * * * * * * * * * * * * * * * * * * * * //

dimensions      [0 3 -1 0 0 0 0];

internalField   nonuniform List<scalar> 
760
(
1.25e-06
-1.52525e-18
1.25e-06
-1.04662e-18
1.25e-06
1.01351e-20
1.25e-06
-7.20728e-20
1.25e-06
5.00905e-20
1.25e-06
-4.59561e-20
1.25e-06
3.79659e-20
1.25e-06
-2.50301e-20
1.25e-06
1.61632e-20
1.25e-06
-1.80857e-20
1.25e-06
1.86681e-20
1.25e-06
3.75255e-21
1.25e-06
-7.46621e-21
1.25e-06
-1.48539e-22
1.25e-06
-1.60666e-20
1.25e-06
1.52696e-20
1.25e-06
-2.70636e-20
1.25e-06
3.90355e-20
1.25e-06
-6.30339e-19
-9.26862e-19
3.75e-06
-4.60887e-18
3.75e-06
-3.66417e-18
3.75e-06
-8.50847e-20
3.75e-06
-1.71231e-19
3.75e-06
1.04982e-19
3.75e-06
-1.06573e-19
3.75e-06
8.78589e-20
3.75e-06
-5.14518e-20
3.75e-06
2.74726e-20
3.75e-06
-4.25671e-20
3.75e-06
5.37293e-20
3.75e-06
1.46622e-20
3.75e-06
-2.11274e-20
3.75e-06
-8.83791e-21
3.75e-06
-4.27579e-20
3.75e-06
3.35746e-20
3.75e-06
-7.1048e-20
3.75e-06
1.02749e-19
3.75e-06
-2.31946e-18
-2.9912e-18
6.25e-06
-8.33651e-18
6.25e-06
-7.22809e-18
6.25e-06
-3.00583e-19
6.25e-06
-2.55758e-19
6.25e-06
1.34536e-19
6.25e-06
-1.5332e-19
6.25e-06
1.2827e-19
6.25e-06
-6.56599e-20
6.25e-06
2.29708e-20
6.25e-06
-6.35905e-20
6.25e-06
9.29901e-20
6.25e-06
3.48113e-20
6.25e-06
-3.6631e-20
6.25e-06
-2.96829e-20
6.25e-06
-7.09617e-20
6.25e-06
4.92131e-20
6.25e-06
-1.19011e-19
6.25e-06
1.69091e-19
6.25e-06
-4.75985e-18
-5.71838e-18
8.75e-06
-1.21483e-17
8.75e-06
-1.11232e-17
8.75e-06
-5.943e-19
8.75e-06
-3.21655e-19
8.75e-06
1.41087e-19
8.75e-06
-1.86131e-19
8.75e-06
1.57824e-19
8.75e-06
-6.4991e-20
8.75e-06
3.30455e-22
8.75e-06
-8.37677e-20
8.75e-06
1.39588e-19
8.75e-06
5.44724e-20
8.75e-06
-4.96675e-20
8.75e-06
-5.3443e-20
8.75e-06
-1.00731e-19
8.75e-06
6.34841e-20
8.75e-06
-1.68567e-19
8.75e-06
2.33095e-19
8.75e-06
-7.5946e-18
-8.74855e-18
1.125e-05
-1.55532e-17
1.125e-05
-1.48075e-17
1.125e-05
-9.29788e-19
1.125e-05
-3.66624e-19
1.125e-05
1.27675e-19
1.125e-05
-2.08329e-19
1.125e-05
1.83275e-19
1.125e-05
-4.96477e-20
1.125e-05
-3.3411e-20
1.125e-05
-1.03223e-19
1.125e-05
1.84674e-19
1.125e-05
7.65553e-20
1.125e-05
-6.06686e-20
1.125e-05
-8.13652e-20
1.125e-05
-1.27073e-19
1.125e-05
7.42584e-20
1.125e-05
-2.18162e-19
1.125e-05
2.90449e-19
1.125e-05
-1.04731e-17
-1.17364e-17
1.375e-05
-1.81879e-17
1.375e-05
-1.78566e-17
1.375e-05
-1.26022e-18
1.375e-05
-3.8232e-19
1.375e-05
1.00762e-19
1.375e-05
-2.19973e-19
1.375e-05
1.97665e-19
1.375e-05
-2.90478e-20
1.375e-05
-7.67759e-20
1.375e-05
-1.21202e-19
1.375e-05
2.33029e-19
1.375e-05
9.35818e-20
1.375e-05
-6.43956e-20
1.375e-05
-1.0528e-19
1.375e-05
-1.55048e-19
1.375e-05
7.81533e-20
1.375e-05
-2.53853e-19
1.375e-05
3.38075e-19
1.375e-05
-1.30933e-17
-1.43815e-17
1.625e-05
-1.97876e-17
1.625e-05
-1.99534e-17
1.625e-05
-1.54742e-18
1.625e-05
-3.75823e-19
1.625e-05
5.90789e-20
1.625e-05
-2.19646e-19
1.625e-05
2.08066e-19
1.625e-05
-1.22989e-21
1.625e-05
-1.26145e-19
1.625e-05
-1.31277e-19
1.625e-05
2.68388e-19
1.625e-05
1.0767e-19
1.625e-05
-6.05219e-20
1.625e-05
-1.28406e-19
1.625e-05
-1.80377e-19
1.625e-05
7.95767e-20
1.625e-05
-2.75629e-19
1.625e-05
3.72733e-19
1.625e-05
-1.51954e-17
-1.6422e-17
1.875e-05
-2.02312e-17
1.875e-05
-2.09155e-17
1.875e-05
-1.76503e-18
1.875e-05
-3.4723e-19
1.875e-05
1.37335e-20
1.875e-05
-2.07182e-19
1.875e-05
2.06203e-19
1.875e-05
2.89898e-20
1.875e-05
-1.75225e-19
1.875e-05
-1.38132e-19
1.875e-05
3.03035e-19
1.875e-05
1.10674e-19
1.875e-05
-5.72756e-20
1.875e-05
-1.4423e-19
1.875e-05
-2.04363e-19
1.875e-05
6.97016e-20
1.875e-05
-2.82398e-19
1.875e-05
4.03496e-19
1.875e-05
-1.65954e-17
-1.76872e-17
2.125e-05
-1.95174e-17
2.125e-05
-2.07083e-17
2.125e-05
-1.88311e-18
2.125e-05
-2.93943e-19
2.125e-05
-3.86882e-20
2.125e-05
-1.75328e-19
2.125e-05
1.97868e-19
2.125e-05
5.05615e-20
2.125e-05
-2.20534e-19
2.125e-05
-1.36851e-19
2.125e-05
3.29956e-19
2.125e-05
1.08953e-19
2.125e-05
-4.83727e-20
2.125e-05
-1.45768e-19
2.125e-05
-2.21682e-19
2.125e-05
5.25453e-20
2.125e-05
-2.7471e-19
2.125e-05
4.11424e-19
2.125e-05
-1.71731e-17
-1.80635e-17
2.375e-05
-1.77474e-17
2.375e-05
-1.93847e-17
2.375e-05
-1.89941e-18
2.375e-05
-2.21286e-19
2.375e-05
-8.46686e-20
2.375e-05
-1.38957e-19
2.375e-05
1.73541e-19
2.375e-05
7.99613e-20
2.375e-05
-2.52671e-19
2.375e-05
-1.42846e-19
2.375e-05
3.35634e-19
2.375e-05
1.1079e-19
2.375e-05
-3.63201e-20
2.375e-05
-1.47747e-19
2.375e-05
-2.26813e-19
2.375e-05
3.59824e-20
2.375e-05
-2.54438e-19
2.375e-05
4.01474e-19
2.375e-05
-1.68981e-17
-1.75409e-17
2.625e-05
-1.51383e-17
2.625e-05
-1.71367e-17
2.625e-05
-1.8175e-18
2.625e-05
-1.35454e-19
2.625e-05
-1.33813e-19
2.625e-05
-8.75725e-20
2.625e-05
1.50966e-19
2.625e-05
9.85579e-20
2.625e-05
-2.78636e-19
2.625e-05
-1.3707e-19
2.625e-05
3.21112e-19
2.625e-05
1.09563e-19
2.625e-05
-2.62212e-20
2.625e-05
-1.52529e-19
2.625e-05
-2.12455e-19
2.625e-05
1.67188e-20
2.625e-05
-2.21259e-19
2.625e-05
3.62058e-19
2.625e-05
-1.58214e-17
-1.61806e-17
2.875e-05
-1.19798e-17
2.875e-05
-1.42366e-17
2.875e-05
-1.65522e-18
2.875e-05
-4.19034e-20
2.875e-05
-1.7904e-19
2.875e-05
-3.53039e-20
2.875e-05
1.32168e-19
2.875e-05
1.1784e-19
2.875e-05
-3.04655e-19
2.875e-05
-1.29023e-19
2.875e-05
2.95243e-19
2.875e-05
9.79732e-20
2.875e-05
-1.5419e-20
2.875e-05
-1.40834e-19
2.875e-05
-1.98745e-19
2.875e-05
-4.17369e-22
2.875e-05
-1.7942e-19
2.875e-05
3.14941e-19
2.875e-05
-1.40748e-17
-1.4126e-17
3.125e-05
-8.59071e-18
3.125e-05
-1.10162e-17
3.125e-05
-1.42882e-18
3.125e-05
5.45402e-20
3.125e-05
-2.11988e-19
3.125e-05
1.78434e-20
3.125e-05
9.53761e-20
3.125e-05
1.22602e-19
3.125e-05
-2.96343e-19
3.125e-05
-1.27856e-19
3.125e-05
2.61539e-19
3.125e-05
8.91525e-20
3.125e-05
-1.17054e-20
3.125e-05
-1.29064e-19
3.125e-05
-1.63504e-19
3.125e-05
-1.33654e-20
3.125e-05
-1.35669e-19
3.125e-05
2.66651e-19
3.125e-05
-1.18357e-17
-1.16103e-17
3.375e-05
-5.32706e-18
3.375e-05
-7.78541e-18
3.375e-05
-1.16742e-18
3.375e-05
1.22292e-19
3.375e-05
-2.32445e-19
3.375e-05
6.65168e-20
3.375e-05
5.49009e-20
3.375e-05
1.25413e-19
3.375e-05
-2.75573e-19
3.375e-05
-1.12122e-19
3.375e-05
2.17143e-19
3.375e-05
7.5151e-20
3.375e-05
-1.26589e-20
3.375e-05
-1.28756e-19
3.375e-05
-1.12372e-19
3.375e-05
-2.66728e-20
3.375e-05
-8.87966e-20
3.375e-05
2.13638e-19
3.375e-05
-9.32213e-18
-8.86313e-18
3.625e-05
-2.53253e-18
3.625e-05
-4.87597e-18
3.625e-05
-8.91147e-19
3.625e-05
1.743e-19
3.625e-05
-2.27702e-19
3.625e-05
9.71191e-20
3.625e-05
1.10313e-20
3.625e-05
1.18871e-19
3.625e-05
-2.42064e-19
3.625e-05
-9.22087e-20
3.625e-05
1.63305e-19
3.625e-05
7.40483e-20
3.625e-05
-1.57543e-20
3.625e-05
-1.12356e-19
3.625e-05
-5.78599e-20
3.625e-05
-4.00354e-20
3.625e-05
-5.36925e-20
3.625e-05
1.50727e-19
3.625e-05
-6.77816e-18
-6.15113e-18
3.875e-05
-4.30967e-19
3.875e-05
-2.56755e-18
3.875e-05
-6.35783e-19
3.875e-05
2.04762e-19
3.875e-05
-2.1812e-19
3.875e-05
1.11142e-19
3.875e-05
-3.23803e-20
3.875e-05
1.06232e-19
3.875e-05
-1.82185e-19
3.875e-05
-6.27791e-20
3.875e-05
1.0663e-19
3.875e-05
5.23489e-20
3.875e-05
-1.11494e-20
3.875e-05
-8.83951e-20
3.875e-05
-1.53968e-20
3.875e-05
-4.11656e-20
3.875e-05
-2.65039e-20
3.875e-05
7.94545e-20
3.875e-05
-4.42812e-18
-3.71415e-18
4.125e-05
7.6626e-19
4.125e-05
-9.87979e-19
4.125e-05
-4.16389e-19
4.125e-05
1.78758e-19
4.125e-05
-1.84368e-19
4.125e-05
1.27612e-19
4.125e-05
-6.19423e-20
4.125e-05
7.67521e-20
4.125e-05
-1.32572e-19
4.125e-05
-2.52344e-20
4.125e-05
5.63037e-20
4.125e-05
3.99929e-20
4.125e-05
-1.21925e-20
4.125e-05
-6.08685e-20
4.125e-05
1.40871e-20
4.125e-05
-5.37412e-20
4.125e-05
-2.01759e-22
4.125e-05
2.50103e-20
4.125e-05
-2.47594e-18
-1.78071e-18
4.375e-05
1.07101e-18
4.375e-05
-1.56237e-19
4.375e-05
-2.40635e-19
4.375e-05
1.2788e-19
4.375e-05
-1.34752e-19
4.375e-05
1.15563e-19
4.375e-05
-4.74109e-20
4.375e-05
4.02635e-20
4.375e-05
-8.01329e-20
4.375e-05
-1.39119e-21
4.375e-05
3.37759e-20
4.375e-05
1.50453e-20
4.375e-05
-1.05428e-20
4.375e-05
-3.36631e-20
4.375e-05
1.63034e-20
4.375e-05
-4.77645e-20
4.375e-05
1.81215e-20
4.375e-05
1.3107e-20
4.375e-05
-1.07024e-18
-5.2292e-19
4.625e-05
6.11894e-19
4.625e-05
5.5999e-20
4.625e-05
-9.71964e-20
4.625e-05
5.69281e-20
4.625e-05
-6.03885e-20
4.625e-05
6.18311e-20
4.625e-05
-3.52709e-20
4.625e-05
2.64354e-20
4.625e-05
-2.7289e-20
4.625e-05
-6.58272e-21
4.625e-05
9.5365e-21
4.625e-05
7.38275e-21
4.625e-05
-1.16361e-20
4.625e-05
-1.30415e-20
4.625e-05
9.23125e-21
4.625e-05
-1.61816e-20
4.625e-05
1.66965e-20
4.625e-05
2.37919e-21
4.625e-05
-2.62634e-19
1.07727e-20
4.875e-05
4.875e-05
4.875e-05
4.875e-05
4.875e-05
4.875e-05
4.875e-05
4.875e-05
4.875e-05
4.875e-05
4.875e-05
4.875e-05
4.875e-05
4.875e-05
4.875e-05
4.875e-05
4.875e-05
4.875e-05
4.875e-05
)
;

boundaryField
{
    top
    {
        type            calculated;
        value           uniform 0;
    }
    bottom
    {
        type            calculated;
        value           uniform 0;
    }
    inlet
    {
        type            calculated;
        value           nonuniform List<scalar> 
20
(
-1.25e-06
-3.75e-06
-6.25e-06
-8.75e-06
-1.125e-05
-1.375e-05
-1.625e-05
-1.875e-05
-2.125e-05
-2.375e-05
-2.625e-05
-2.875e-05
-3.125e-05
-3.375e-05
-3.625e-05
-3.875e-05
-4.125e-05
-4.375e-05
-4.625e-05
-4.875e-05
)
;
    }
    outlet
    {
        type            calculated;
        value           nonuniform List<scalar> 
20
(
1.25e-06
3.75e-06
6.25e-06
8.75e-06
1.125e-05
1.375e-05
1.625e-05
1.875e-05
2.125e-05
2.375e-05
2.625e-05
2.875e-05
3.125e-05
3.375e-05
3.625e-05
3.875e-05
4.125e-05
4.375e-05
4.625e-05
4.875e-05
)
;
    }
    frontAndBack
    {
        type            empty;
        value           nonuniform 0();
    }
}


// ************************************************************************* //
