/*--------------------------------*- C++ -*----------------------------------*\
| =========                 |                                                 |
| \\      /  F ield         | OpenFOAM: The Open Source CFD Toolbox           |
|  \\    /   O peration     | Version:  4.1                                   |
|   \\  /    A nd           | Web:      www.OpenFOAM.org                      |
|    \\/     M anipulation  |                                                 |
\*---------------------------------------------------------------------------*/
FoamFile
{
    version     2.0;
    format      ascii;
    class       volVectorField;
    location    "4.6";
    object      U;
}
// * * * * * * * * * * * * * * * * * * * * * * * * * * * * * * * * * * * * * //

dimensions      [0 1 -1 0 0 0 0];

internalField   nonuniform List<vector> 
400
(
(0.025 -6.79893e-16 0)
(0.025 -4.23234e-16 0)
(0.025 1.43607e-17 0)
(0.025 -3.61763e-17 0)
(0.025 2.64001e-17 0)
(0.025 -2.33037e-17 0)
(0.025 1.92239e-17 0)
(0.025 -1.33054e-17 0)
(0.025 9.07668e-18 0)
(0.025 -9.14903e-18 0)
(0.025 8.35289e-18 0)
(0.025 1.3384e-18 0)
(0.025 -3.38596e-18 0)
(0.025 8.33929e-19 0)
(0.025 -7.8063e-18 0)
(0.025 7.58383e-18 0)
(0.025 -1.28541e-17 0)
(0.025 1.73542e-17 0)
(0.025 -2.4002e-16 0)
(0.025 -3.89932e-16 0)
(0.075 -2.85971e-15 0)
(0.075 -2.10803e-15 0)
(0.075 -1.10745e-17 0)
(0.075 -1.21004e-16 0)
(0.075 8.04018e-17 0)
(0.075 -7.68928e-17 0)
(0.075 6.3154e-17 0)
(0.075 -3.98042e-17 0)
(0.075 2.43801e-17 0)
(0.075 -2.9938e-17 0)
(0.075 3.44862e-17 0)
(0.075 7.66375e-18 0)
(0.075 -1.39197e-17 0)
(0.075 -2.64158e-18 0)
(0.075 -2.79689e-17 0)
(0.075 2.45525e-17 0)
(0.075 -4.69474e-17 0)
(0.075 7.00096e-17 0)
(0.075 -1.29157e-15 0)
(0.075 -1.78068e-15 0)
(0.125 -6.34144e-15 0)
(0.125 -5.26413e-15 0)
(0.125 -1.69334e-16 0)
(0.125 -2.15228e-16 0)
(0.125 1.2393e-16 0)
(0.125 -1.31365e-16 0)
(0.125 1.08969e-16 0)
(0.125 -6.11294e-17 0)
(0.125 2.84602e-17 0)
(0.125 -5.31036e-17 0)
(0.125 7.12779e-17 0)
(0.125 2.35941e-17 0)
(0.125 -2.84135e-17 0)
(0.125 -1.73397e-17 0)
(0.125 -5.61947e-17 0)
(0.125 4.14958e-17 0)
(0.125 -9.36756e-17 0)
(0.125 1.33336e-16 0)
(0.125 -3.38591e-15 0)
(0.125 -4.21206e-15 0)
(0.175 -1.02636e-14 0)
(0.175 -9.13966e-15 0)
(0.175 -4.31043e-16 0)
(0.175 -2.93484e-16 0)
(0.175 1.43189e-16 0)
(0.175 -1.72892e-16 0)
(0.175 1.45242e-16 0)
(0.175 -6.87333e-17 0)
(0.175 1.50645e-17 0)
(0.175 -7.38991e-17 0)
(0.175 1.15799e-16 0)
(0.175 4.39913e-17 0)
(0.175 -4.39804e-17 0)
(0.175 -4.04623e-17 0)
(0.175 -8.56443e-17 0)
(0.175 5.7156e-17 0)
(0.175 -1.43909e-16 0)
(0.175 2.01604e-16 0)
(0.175 -6.11196e-15 0)
(0.175 -7.19007e-15 0)
(0.225 -1.3995e-14 0)
(0.225 -1.30654e-14 0)
(0.225 -7.57112e-16 0)
(0.225 -3.50418e-16 0)
(0.225 1.38874e-16 0)
(0.225 -2.00707e-16 0)
(0.225 1.72762e-16 0)
(0.225 -6.01511e-17 0)
(0.225 -1.40486e-17 0)
(0.225 -9.40788e-17 0)
(0.225 1.62269e-16 0)
(0.225 6.58638e-17 0)
(0.225 -5.66739e-17 0)
(0.225 -6.69622e-17 0)
(0.225 -1.13955e-16 0)
(0.225 6.96682e-17 0)
(0.225 -1.9486e-16 0)
(0.225 2.6326e-16 0)
(0.225 -9.0586e-15 0)
(0.225 -1.02893e-14 0)
(0.275 -1.70934e-14 0)
(0.275 -1.65271e-14 0)
(0.275 -1.10063e-15 0)
(0.275 -3.80803e-16 0)
(0.275 1.17781e-16 0)
(0.275 -2.17284e-16 0)
(0.275 1.92606e-16 0)
(0.275 -4.14717e-17 0)
(0.275 -5.3193e-17 0)
(0.275 -1.13009e-16 0)
(0.275 2.09572e-16 0)
(0.275 8.57812e-17 0)
(0.275 -6.41213e-17 0)
(0.275 -9.39862e-17 0)
(0.275 -1.41468e-16 0)
(0.275 7.75949e-17 0)
(0.275 -2.38772e-16 0)
(0.275 3.16252e-16 0)
(0.275 -1.18793e-14 0)
(0.275 -1.31756e-14 0)
(0.325 -1.92572e-14 0)
(0.325 -1.91611e-14 0)
(0.325 -1.41852e-15 0)
(0.325 -3.85576e-16 0)
(0.325 8.241e-17 0)
(0.325 -2.22913e-16 0)
(0.325 2.05058e-16 0)
(0.325 -1.5892e-17 0)
(0.325 -1.00722e-16 0)
(0.325 -1.27318e-16 0)
(0.325 2.51933e-16 0)
(0.325 1.02054e-16 0)
(0.325 -6.37428e-17 0)
(0.325 -1.18545e-16 0)
(0.325 -1.68394e-16 0)
(0.325 8.08453e-17 0)
(0.325 -2.6844e-16 0)
(0.325 3.58167e-16 0)
(0.325 -1.42948e-14 0)
(0.325 -1.55718e-14 0)
(0.375 -2.02953e-14 0)
(0.375 -2.07194e-14 0)
(0.375 -1.67818e-15 0)
(0.375 -3.67423e-16 0)
(0.375 3.76585e-17 0)
(0.375 -2.16623e-16 0)
(0.375 2.09307e-16 0)
(0.375 1.38492e-17 0)
(0.375 -1.51008e-16 0)
(0.375 -1.35971e-16 0)
(0.375 2.88188e-16 0)
(0.375 1.10555e-16 0)
(0.375 -5.99802e-17 0)
(0.375 -1.37954e-16 0)
(0.375 -1.93839e-16 0)
(0.375 7.60837e-17 0)
(0.375 -2.82651e-16 0)
(0.375 3.91278e-16 0)
(0.375 -1.60831e-14 0)
(0.375 -1.72596e-14 0)
(0.425 -2.01472e-14 0)
(0.425 -2.1095e-14 0)
(0.425 -1.84979e-15 0)
(0.425 -3.25838e-16 0)
(0.425 -1.18676e-17 0)
(0.425 -1.94195e-16 0)
(0.425 2.03935e-16 0)
(0.425 4.05118e-17 0)
(0.425 -1.98545e-16 0)
(0.425 -1.38476e-16 0)
(0.425 3.19523e-16 0)
(0.425 1.10647e-16 0)
(0.425 -5.26067e-17 0)
(0.425 -1.46756e-16 0)
(0.425 -2.16016e-16 0)
(0.425 6.29582e-17 0)
(0.425 -2.82481e-16 0)
(0.425 4.1187e-16 0)
(0.425 -1.70897e-14 0)
(0.425 -1.80961e-14 0)
(0.475 -1.88657e-14 0)
(0.475 -2.02976e-14 0)
(0.475 -1.91786e-15 0)
(0.475 -2.61796e-16 0)
(0.475 -6.19614e-17 0)
(0.475 -1.58988e-16 0)
(0.475 1.86723e-16 0)
(0.475 6.63083e-17 0)
(0.475 -2.3843e-16 0)
(0.475 -1.40753e-16 0)
(0.475 3.36329e-16 0)
(0.475 1.10962e-16 0)
(0.475 -4.21646e-17 0)
(0.475 -1.47853e-16 0)
(0.475 -2.27153e-16 0)
(0.475 4.50674e-17 0)
(0.475 -2.67812e-16 0)
(0.475 4.11201e-16 0)
(0.475 -1.72384e-14 0)
(0.475 -1.80167e-14 0)
(0.525 -1.66152e-14 0)
(0.525 -1.84567e-14 0)
(0.525 -1.88287e-15 0)
(0.525 -1.80055e-16 0)
(0.525 -1.10551e-16 0)
(0.525 -1.14809e-16 0)
(0.525 1.63427e-16 0)
(0.525 9.02113e-17 0)
(0.525 -2.69238e-16 0)
(0.525 -1.3997e-16 0)
(0.525 3.32508e-16 0)
(0.525 1.1082e-16 0)
(0.525 -3.10819e-17 0)
(0.525 -1.5043e-16 0)
(0.525 -2.23618e-16 0)
(0.525 2.57747e-17 0)
(0.525 -2.39722e-16 0)
(0.525 3.86125e-16 0)
(0.525 -1.65413e-14 0)
(0.525 -1.70486e-14 0)
(0.575 -1.36555e-14 0)
(0.575 -1.58106e-14 0)
(0.575 -1.75403e-15 0)
(0.575 -8.99236e-17 0)
(0.575 -1.58255e-16 0)
(0.575 -6.13818e-17 0)
(0.575 1.4262e-16 0)
(0.575 1.09653e-16 0)
(0.575 -2.9553e-16 0)
(0.575 -1.33808e-16 0)
(0.575 3.10938e-16 0)
(0.575 1.04589e-16 0)
(0.575 -1.97622e-17 0)
(0.575 -1.47278e-16 0)
(0.575 -2.08867e-16 0)
(0.575 7.90331e-18 0)
(0.575 -2.01317e-16 0)
(0.575 3.41795e-16 0)
(0.575 -1.50921e-14 0)
(0.575 -1.52972e-14 0)
(0.625 -1.02973e-14 0)
(0.625 -1.26684e-14 0)
(0.625 -1.55466e-15 0)
(0.625 8.00006e-18 0)
(0.625 -1.9837e-16 0)
(0.625 -7.0049e-18 0)
(0.625 1.15204e-16 0)
(0.625 1.21599e-16 0)
(0.625 -3.04761e-16 0)
(0.625 -1.30252e-16 0)
(0.625 2.81664e-16 0)
(0.625 9.43679e-17 0)
(0.625 -1.33918e-17 0)
(0.625 -1.36026e-16 0)
(0.625 -1.83573e-16 0)
(0.625 -7.6305e-18 0)
(0.625 -1.57514e-16 0)
(0.625 2.93098e-16 0)
(0.625 -1.30491e-14 0)
(0.625 -1.29553e-14 0)
(0.675 -6.8881e-15 0)
(0.675 -9.36042e-15 0)
(0.675 -1.3033e-15 0)
(0.675 9.2826e-17 0)
(0.675 -2.26771e-16 0)
(0.675 4.37061e-17 0)
(0.675 7.64597e-17 0)
(0.675 1.26112e-16 0)
(0.675 -2.89908e-16 0)
(0.675 -1.21716e-16 0)
(0.675 2.41121e-16 0)
(0.675 8.26377e-17 0)
(0.675 -1.12624e-17 0)
(0.675 -1.30509e-16 0)
(0.675 -1.39404e-16 0)
(0.675 -2.05741e-17 0)
(0.675 -1.11497e-16 0)
(0.675 2.41593e-16 0)
(0.675 -1.06165e-14 0)
(0.675 -1.02614e-14 0)
(0.725 -3.78652e-15 0)
(0.725 -6.21981e-15 0)
(0.725 -1.02792e-15 0)
(0.725 1.5492e-16 0)
(0.725 -2.34194e-16 0)
(0.725 8.41399e-17 0)
(0.725 3.28945e-17 0)
(0.725 1.25025e-16 0)
(0.725 -2.61367e-16 0)
(0.725 -1.05079e-16 0)
(0.725 1.91105e-16 0)
(0.725 7.50701e-17 0)
(0.725 -1.39932e-17 0)
(0.725 -1.2207e-16 0)
(0.725 -8.42656e-17 0)
(0.725 -3.32885e-17 0)
(0.725 -7.02785e-17 0)
(0.725 1.82004e-16 0)
(0.725 -8.03025e-15 0)
(0.725 -7.46809e-15 0)
(0.775 -1.28318e-15 0)
(0.775 -3.55961e-15 0)
(0.775 -7.58211e-16 0)
(0.775 1.9834e-16 0)
(0.775 -2.27545e-16 0)
(0.775 1.08325e-16 0)
(0.775 -1.40919e-17 0)
(0.775 1.14951e-16 0)
(0.775 -2.13335e-16 0)
(0.775 -7.87411e-17 0)
(0.775 1.34464e-16 0)
(0.775 6.37041e-17 0)
(0.775 -1.40766e-17 0)
(0.775 -1.01924e-16 0)
(0.775 -3.41765e-17 0)
(0.775 -4.17955e-17 0)
(0.775 -3.86493e-17 0)
(0.775 1.13481e-16 0)
(0.775 -5.52978e-15 0)
(0.775 -4.83387e-15 0)
(0.825 3.81781e-16 0)
(0.825 -1.59867e-15 0)
(0.825 -5.16376e-16 0)
(0.825 2.00478e-16 0)
(0.825 -2.06132e-16 0)
(0.825 1.23776e-16 0)
(0.825 -5.11013e-17 0)
(0.825 9.27585e-17 0)
(0.825 -1.58262e-16 0)
(0.825 -4.23445e-17 0)
(0.825 7.87809e-17 0)
(0.825 4.60957e-17 0)
(0.825 -1.19974e-17 0)
(0.825 -7.49693e-17 0)
(0.825 3.29439e-18 0)
(0.825 -4.95434e-17 0)
(0.825 -1.10972e-17 0)
(0.825 4.87142e-17 0)
(0.825 -3.33657e-15 0)
(0.825 -2.60246e-15 0)
(0.875 1.1032e-15 0)
(0.875 -4.0922e-16 0)
(0.875 -3.18217e-16 0)
(0.875 1.59012e-16 0)
(0.875 -1.62412e-16 0)
(0.875 1.26829e-16 0)
(0.875 -5.90545e-17 0)
(0.875 5.83427e-17 0)
(0.875 -1.05888e-16 0)
(0.875 -1.01009e-17 0)
(0.875 4.1594e-17 0)
(0.875 2.65614e-17 0)
(0.875 -1.08575e-17 0)
(0.875 -4.53653e-17 0)
(0.875 1.91534e-17 0)
(0.875 -5.35866e-17 0)
(0.875 1.11374e-17 0)
(0.875 1.36242e-17 0)
(0.875 -1.6299e-15 0)
(0.875 -9.84032e-16 0)
(0.925 9.6203e-16 0)
(0.925 6.20641e-17 0)
(0.925 -1.57402e-16 0)
(0.925 9.42511e-17 0)
(0.925 -9.86038e-17 0)
(0.925 9.37066e-17 0)
(0.925 -4.59684e-17 0)
(0.925 3.25926e-17 0)
(0.925 -5.08254e-17 0)
(0.925 -2.29985e-18 0)
(0.925 1.86284e-17 0)
(0.925 1.11648e-17 0)
(0.925 -1.27848e-17 0)
(0.925 -2.26057e-17 0)
(0.925 1.46109e-17 0)
(0.925 -3.22864e-17 0)
(0.925 2.09171e-17 0)
(0.925 5.13692e-18 0)
(0.925 -5.40097e-16 0)
(0.925 -1.12391e-16 0)
(0.975 3.61469e-16 0)
(0.975 7.83721e-17 0)
(0.975 -4.64996e-17 0)
(0.975 3.0166e-17 0)
(0.975 -3.20701e-17 0)
(0.975 3.2025e-17 0)
(0.975 -1.73895e-17 0)
(0.975 1.14337e-17 0)
(0.975 -1.40265e-17 0)
(0.975 2.97749e-19 0)
(0.975 2.62747e-18 0)
(0.975 2.487e-18 0)
(0.975 -3.37168e-18 0)
(0.975 -4.29639e-18 0)
(0.975 5.98108e-18 0)
(0.975 -1.01389e-17 0)
(0.975 7.72463e-18 0)
(0.975 -1.71374e-18 0)
(0.975 -7.54975e-17 0)
(0.975 6.8905e-17 0)
)
;

boundaryField
{
    top
    {
        type            fixedValue;
        value           uniform (1 0 0);
    }
    bottom
    {
        type            fixedValue;
        value           uniform (0 0 0);
    }
    inlet
    {
        type            zeroGradient;
    }
    outlet
    {
        type            zeroGradient;
    }
    frontAndBack
    {
        type            empty;
    }
}


// ************************************************************************* //
