/*--------------------------------*- C++ -*----------------------------------*\
| =========                 |                                                 |
| \\      /  F ield         | OpenFOAM: The Open Source CFD Toolbox           |
|  \\    /   O peration     | Version:  4.1                                   |
|   \\  /    A nd           | Web:      www.OpenFOAM.org                      |
|    \\/     M anipulation  |                                                 |
\*---------------------------------------------------------------------------*/
FoamFile
{
    version     2.0;
    format      ascii;
    class       surfaceScalarField;
    location    "3.2";
    object      phi;
}
// * * * * * * * * * * * * * * * * * * * * * * * * * * * * * * * * * * * * * //

dimensions      [0 3 -1 0 0 0 0];

internalField   nonuniform List<scalar> 
760
(
-1.91641e-05
1.91784e-17
-1.91641e-05
-8.44634e-13
-1.91641e-05
-2.8855e-12
-1.91641e-05
-1.84072e-12
-1.91641e-05
-6.17099e-12
-1.91641e-05
-3.3816e-12
-1.91641e-05
-8.56583e-12
-1.91641e-05
-4.09596e-12
-1.91641e-05
-1.00375e-11
-1.91641e-05
-4.53035e-12
-1.91641e-05
-1.03878e-11
-1.91641e-05
-4.51588e-12
-1.91641e-05
-9.63461e-12
-1.91641e-05
-4.52699e-12
-1.91641e-05
-7.9028e-12
-1.91641e-05
-3.62969e-12
-1.91641e-05
-6.02126e-12
-1.91641e-05
-3.48671e-12
-1.91641e-05
-2.55733e-12
-1.74874e-12
-5.11594e-05
-2.02222e-12
-5.11594e-05
-4.16068e-12
-5.11594e-05
-1.07019e-11
-5.11594e-05
-8.21669e-12
-5.11594e-05
-1.92901e-11
-5.11594e-05
-1.248e-11
-5.11594e-05
-2.5258e-11
-5.11594e-05
-1.45162e-11
-5.11594e-05
-2.85127e-11
-5.11594e-05
-1.53812e-11
-5.11594e-05
-2.87209e-11
-5.11594e-05
-1.48519e-11
-5.11594e-05
-2.60099e-11
-5.11594e-05
-1.38795e-11
-5.11594e-05
-2.08971e-11
-5.11594e-05
-1.08621e-11
-5.11594e-05
-1.49615e-11
-5.11594e-05
-9.08843e-12
-5.11594e-05
-6.24318e-12
-3.79215e-12
-7.68219e-05
-5.40259e-12
-7.68219e-05
-8.75391e-12
-7.68219e-05
-2.13152e-11
-7.68219e-05
-1.67728e-11
-7.68219e-05
-3.61522e-11
-7.68219e-05
-2.41691e-11
-7.68219e-05
-4.61816e-11
-7.68219e-05
-2.77213e-11
-7.68219e-05
-5.12487e-11
-7.68219e-05
-2.89544e-11
-7.68219e-05
-5.09469e-11
-7.68219e-05
-2.76619e-11
-7.68219e-05
-4.55456e-11
-7.68219e-05
-2.5238e-11
-7.68219e-05
-3.61602e-11
-7.68219e-05
-1.95726e-11
-7.68219e-05
-2.49612e-11
-7.68219e-05
-1.55406e-11
-7.68219e-05
-1.01848e-11
-5.81209e-12
-9.61516e-05
-9.39603e-12
-9.61516e-05
-1.42263e-11
-9.61516e-05
-3.31407e-11
-9.61516e-05
-2.73307e-11
-9.61516e-05
-5.45175e-11
-9.61516e-05
-3.85356e-11
-9.61516e-05
-6.87077e-11
-9.61516e-05
-4.40603e-11
-9.61516e-05
-7.54929e-11
-9.61516e-05
-4.5785e-11
-9.61516e-05
-7.44863e-11
-9.61516e-05
-4.35656e-11
-9.61516e-05
-6.61075e-11
-9.61516e-05
-3.91726e-11
-9.61516e-05
-5.22195e-11
-9.61516e-05
-3.02269e-11
-9.61516e-05
-3.52673e-11
-9.61516e-05
-2.30755e-11
-9.61516e-05
-1.44349e-11
-8.17886e-12
-0.000109148
-1.30535e-11
-0.000109148
-1.91031e-11
-0.000109148
-4.36089e-11
-0.000109148
-3.69699e-11
-0.000109148
-7.04283e-11
-0.000109148
-5.16884e-11
-0.000109148
-8.79978e-11
-0.000109148
-5.91181e-11
-0.000109148
-9.60315e-11
-0.000109148
-6.13721e-11
-0.000109148
-9.42532e-11
-0.000109148
-5.8364e-11
-0.000109148
-8.31857e-11
-0.000109148
-5.212e-11
-0.000109148
-6.54903e-11
-0.000109148
-4.01313e-11
-0.000109148
-4.3496e-11
-0.000109148
-3.00398e-11
-0.000109148
-1.78557e-11
-1.02781e-11
-0.000115812
-1.61406e-11
-0.000115812
-2.32701e-11
-0.000115812
-5.2127e-11
-0.000115812
-4.5625e-11
-0.000115812
-8.30387e-11
-0.000115812
-6.36381e-11
-0.000115812
-1.03059e-10
-0.000115812
-7.29798e-11
-0.000115812
-1.11828e-10
-0.000115812
-7.58515e-11
-0.000115812
-1.09276e-10
-0.000115812
-7.22135e-11
-0.000115812
-9.59815e-11
-0.000115812
-6.42123e-11
-0.000115812
-7.54135e-11
-0.000115812
-4.93946e-11
-0.000115812
-4.93799e-11
-0.000115812
-3.64225e-11
-0.000115812
-2.04742e-11
-1.21897e-11
-0.000116144
-1.85872e-11
-0.000116144
-2.66401e-11
-0.000116144
-5.84459e-11
-0.000116144
-5.30273e-11
-0.000116144
-9.19552e-11
-0.000116144
-7.39915e-11
-0.000116144
-1.13425e-10
-0.000116144
-8.51729e-11
-0.000116144
-1.22396e-10
-0.000116144
-8.87141e-11
-0.000116144
-1.19096e-10
-0.000116144
-8.46147e-11
-0.000116144
-1.04111e-10
-0.000116144
-7.49965e-11
-0.000116144
-8.16872e-11
-0.000116144
-5.76695e-11
-0.000116144
-5.27596e-11
-0.000116144
-4.1935e-11
-0.000116144
-2.22242e-11
-1.3809e-11
-0.000110142
-2.04327e-11
-0.000110142
-2.92583e-11
-0.000110142
-6.26358e-11
-0.000110142
-5.91461e-11
-0.000110142
-9.73158e-11
-0.000110142
-8.26443e-11
-0.000110142
-1.19296e-10
-0.000110142
-9.55278e-11
-0.000110142
-1.27993e-10
-0.000110142
-9.97394e-11
-0.000110142
-1.23991e-10
-0.000110142
-9.53224e-11
-0.000110142
-1.07861e-10
-0.000110142
-8.42293e-11
-0.000110142
-8.45394e-11
-0.000110142
-6.47678e-11
-0.000110142
-5.38397e-11
-0.000110142
-4.63882e-11
-0.000110142
-2.31783e-11
-1.50718e-11
-9.78078e-05
-2.17243e-11
-9.78078e-05
-3.11649e-11
-9.78078e-05
-6.48293e-11
-9.78078e-05
-6.39271e-11
-9.78078e-05
-9.93969e-11
-9.78078e-05
-8.94452e-11
-9.78078e-05
-1.21065e-10
-9.78078e-05
-1.03806e-10
-9.78078e-05
-1.29103e-10
-9.78078e-05
-1.08623e-10
-9.78078e-05
-1.24479e-10
-9.78078e-05
-1.04004e-10
-9.78078e-05
-1.07737e-10
-9.78078e-05
-9.15965e-11
-9.78078e-05
-8.43668e-11
-9.78078e-05
-7.0446e-11
-9.78078e-05
-5.29551e-11
-9.78078e-05
-4.95799e-11
-9.78078e-05
-2.34413e-11
-1.59151e-11
-7.91406e-05
-2.24846e-11
-7.91406e-05
-3.23584e-11
-7.91406e-05
-6.51446e-11
-7.91406e-05
-6.72354e-11
-7.91406e-05
-9.85023e-11
-7.91406e-05
-9.41367e-11
-7.91406e-05
-1.19172e-10
-7.91406e-05
-1.0964e-10
-7.91406e-05
-1.26277e-10
-7.91406e-05
-1.1493e-10
-7.91406e-05
-1.2115e-10
-7.91406e-05
-1.10201e-10
-7.91406e-05
-1.0432e-10
-7.91406e-05
-9.669e-11
-7.91406e-05
-8.16259e-11
-7.91406e-05
-7.43871e-11
-7.91406e-05
-5.04894e-11
-7.91406e-05
-5.13001e-11
-7.91406e-05
-2.31143e-11
-1.62789e-11
-5.41406e-05
-2.27094e-11
-5.41406e-05
-3.2805e-11
-5.41406e-05
-6.36754e-11
-5.41406e-05
-6.88821e-11
-5.41406e-05
-9.4925e-11
-5.41406e-05
-9.64041e-11
-5.41406e-05
-1.14054e-10
-5.41406e-05
-1.12606e-10
-5.41406e-05
-1.20068e-10
-5.41406e-05
-1.18171e-10
-5.41406e-05
-1.14603e-10
-5.41406e-05
-1.13412e-10
-5.41406e-05
-9.81945e-11
-5.41406e-05
-9.90804e-11
-5.41406e-05
-7.67777e-11
-5.41406e-05
-7.62531e-11
-5.41406e-05
-4.68289e-11
-5.41406e-05
-5.13739e-11
-5.41406e-05
-2.22846e-11
-1.61209e-11
-2.28078e-05
-2.23754e-11
-2.28078e-05
-3.24501e-11
-2.28078e-05
-6.05039e-11
-2.28078e-05
-6.86466e-11
-2.28078e-05
-8.89423e-11
-2.28078e-05
-9.59131e-11
-2.28078e-05
-1.06123e-10
-2.28078e-05
-1.12265e-10
-2.28078e-05
-1.10997e-10
-2.28078e-05
-1.17856e-10
-2.28078e-05
-1.05401e-10
-2.28078e-05
-1.13143e-10
-2.28078e-05
-8.99021e-11
-2.28078e-05
-9.83666e-11
-2.28078e-05
-7.02469e-11
-2.28078e-05
-7.57228e-11
-2.28078e-05
-4.23176e-11
-2.28078e-05
-4.96892e-11
-2.28078e-05
-2.10112e-11
-1.54202e-11
1.48578e-05
-2.14543e-11
1.48578e-05
-3.123e-11
1.48578e-05
-5.57193e-11
1.48578e-05
-6.63011e-11
1.48578e-05
-8.08145e-11
1.48578e-05
-9.23446e-11
1.48578e-05
-9.57573e-11
1.48578e-05
-1.08207e-10
1.48578e-05
-9.95287e-11
1.48578e-05
-1.13545e-10
1.48578e-05
-9.40342e-11
1.48578e-05
-1.08958e-10
1.48578e-05
-7.98982e-11
1.48578e-05
-9.42142e-11
1.48578e-05
-6.23882e-11
1.48578e-05
-7.25223e-11
1.48578e-05
-3.72157e-11
1.48578e-05
-4.62097e-11
1.48578e-05
-1.93151e-11
-1.41768e-11
5.88563e-05
-1.99152e-11
5.88563e-05
-2.90651e-11
5.88563e-05
-4.94204e-11
5.88563e-05
-6.16233e-11
5.88563e-05
-7.07615e-11
5.88563e-05
-8.54141e-11
5.88563e-05
-8.32597e-11
5.88563e-05
-1.00085e-10
5.88563e-05
-8.6016e-11
5.88563e-05
-1.04877e-10
5.88563e-05
-8.08653e-11
5.88563e-05
-1.00518e-10
5.88563e-05
-6.84919e-11
5.88563e-05
-8.63863e-11
5.88563e-05
-5.34356e-11
5.88563e-05
-6.64543e-11
5.88563e-05
-3.16524e-11
5.88563e-05
-4.09763e-11
5.88563e-05
-1.71682e-11
-1.24064e-11
0.000109188
-1.77482e-11
0.000109188
-2.59145e-11
0.000109188
-4.17541e-11
0.000109188
-5.44672e-11
0.000109188
-5.90086e-11
0.000109188
-7.496e-11
0.000109188
-6.89101e-11
0.000109188
-8.77051e-11
0.000109188
-7.07524e-11
0.000109188
-9.16704e-11
0.000109188
-6.6172e-11
0.000109188
-8.76646e-11
0.000109188
-5.58877e-11
0.000109188
-7.48046e-11
0.000109188
-4.35371e-11
0.000109188
-5.74519e-11
0.000109188
-2.56494e-11
0.000109188
-3.41198e-11
0.000109188
-1.45127e-11
-1.01415e-11
0.000165852
-1.50322e-11
0.000165852
-2.18283e-11
0.000165852
-3.30787e-11
0.000165852
-4.50074e-11
0.000165852
-4.60444e-11
0.000165852
-6.12779e-11
0.000165852
-5.32835e-11
0.000165852
-7.14294e-11
0.000165852
-5.43184e-11
0.000165852
-7.43331e-11
0.000165852
-5.04887e-11
0.000165852
-7.08165e-11
0.000165852
-4.24943e-11
0.000165852
-5.98851e-11
0.000165852
-3.30003e-11
0.000165852
-4.58323e-11
0.000165852
-1.92996e-11
0.000165852
-2.5994e-11
0.000165852
-1.13517e-11
-7.4766e-12
0.000228848
-1.16091e-11
0.000228848
-1.65798e-11
0.000228848
-2.33067e-11
0.000228848
-3.30994e-11
0.000228848
-3.16751e-11
0.000228848
-4.43446e-11
0.000228848
-3.61191e-11
0.000228848
-5.13544e-11
0.000228848
-3.63826e-11
0.000228848
-5.30807e-11
0.000228848
-3.34568e-11
0.000228848
-5.02826e-11
0.000228848
-2.79358e-11
0.000228848
-4.19811e-11
0.000228848
-2.15387e-11
0.000228848
-3.1932e-11
0.000228848
-1.23357e-11
0.000228848
-1.69469e-11
0.000228848
-7.62477e-12
-4.539e-12
0.000298178
-8.23173e-12
0.000298178
-1.14172e-11
0.000298178
-1.46745e-11
0.000298178
-2.1468e-11
0.000298178
-1.93202e-11
0.000298178
-2.80002e-11
0.000298178
-2.15983e-11
0.000298178
-3.19819e-11
0.000298178
-2.14059e-11
0.000298178
-3.26405e-11
0.000298178
-1.93872e-11
0.000298178
-3.05742e-11
0.000298178
-1.59927e-11
0.000298178
-2.50217e-11
0.000298178
-1.2153e-11
0.000298178
-1.87632e-11
0.000298178
-6.69822e-12
0.000298178
-8.97475e-12
0.000298178
-4.28005e-12
-2.00544e-12
0.000373841
-4.3482e-12
0.000373841
-5.60182e-12
0.000373841
-6.29646e-12
0.000373841
-9.55056e-12
0.000373841
-7.68656e-12
0.000373841
-1.18457e-11
0.000373841
-8.187e-12
0.000373841
-1.31579e-11
0.000373841
-7.77965e-12
0.000373841
-1.30853e-11
0.000373841
-6.76362e-12
0.000373841
-1.19753e-11
0.000373841
-5.34598e-12
0.000373841
-9.36352e-12
0.000373841
-3.88819e-12
0.000373841
-6.7741e-12
0.000373841
-1.7805e-12
0.000373841
-2.39482e-12
0.000373841
-1.33135e-12
-1.03851e-13
0.000455836
0.000455836
0.000455836
0.000455836
0.000455836
0.000455836
0.000455836
0.000455836
0.000455836
0.000455836
0.000455836
0.000455836
0.000455836
0.000455836
0.000455836
0.000455836
0.000455836
0.000455836
0.000455836
)
;

boundaryField
{
    top
    {
        type            calculated;
        value           uniform 0;
    }
    bottom
    {
        type            calculated;
        value           uniform 0;
    }
    inlet
    {
        type            calculated;
        value           nonuniform List<scalar> 
20
(
1.91641e-05
5.11594e-05
7.68219e-05
9.61516e-05
0.000109148
0.000115812
0.000116144
0.000110142
9.78078e-05
7.91406e-05
5.41406e-05
2.28078e-05
-1.48578e-05
-5.88563e-05
-0.000109188
-0.000165852
-0.000228848
-0.000298178
-0.000373841
-0.000455836
)
;
    }
    outlet
    {
        type            calculated;
        value           nonuniform List<scalar> 
20
(
-1.91641e-05
-5.11594e-05
-7.68219e-05
-9.61516e-05
-0.000109148
-0.000115812
-0.000116144
-0.000110142
-9.78078e-05
-7.91406e-05
-5.41406e-05
-2.28078e-05
1.48578e-05
5.88563e-05
0.000109188
0.000165852
0.000228848
0.000298178
0.000373841
0.000455836
)
;
    }
    frontAndBack
    {
        type            empty;
        value           nonuniform 0();
    }
}


// ************************************************************************* //
