/*--------------------------------*- C++ -*----------------------------------*\
| =========                 |                                                 |
| \\      /  F ield         | OpenFOAM: The Open Source CFD Toolbox           |
|  \\    /   O peration     | Version:  4.1                                   |
|   \\  /    A nd           | Web:      www.OpenFOAM.org                      |
|    \\/     M anipulation  |                                                 |
\*---------------------------------------------------------------------------*/
FoamFile
{
    version     2.0;
    format      ascii;
    class       volVectorField;
    location    "3.2";
    object      U;
}
// * * * * * * * * * * * * * * * * * * * * * * * * * * * * * * * * * * * * * //

dimensions      [0 1 -1 0 0 0 0];

internalField   nonuniform List<vector> 
400
(
(-0.383281 8.2677e-11 0)
(-0.383281 -3.52652e-10 0)
(-0.383281 -1.26135e-09 0)
(-0.383281 -8.08056e-10 0)
(-0.383281 -2.85112e-09 0)
(-0.383281 -1.57378e-09 0)
(-0.383281 -4.02458e-09 0)
(-0.383281 -1.93424e-09 0)
(-0.383281 -4.76321e-09 0)
(-0.383281 -2.16417e-09 0)
(-0.383281 -4.96532e-09 0)
(-0.383281 -2.17358e-09 0)
(-0.383281 -4.6376e-09 0)
(-0.383281 -2.20258e-09 0)
(-0.383281 -3.83139e-09 0)
(-0.383281 -1.77447e-09 0)
(-0.383281 -2.96394e-09 0)
(-0.383281 -1.72629e-09 0)
(-0.383281 -1.28692e-09 0)
(-0.383281 -9.05945e-10 0)
(-1.02319 -7.41342e-10 0)
(-1.02319 -2.15828e-09 0)
(-1.02319 -6.13823e-09 0)
(-1.02319 -4.36294e-09 0)
(-1.02319 -1.18327e-08 0)
(-1.02319 -7.09294e-09 0)
(-1.02319 -1.58779e-08 0)
(-1.02319 -8.3729e-09 0)
(-1.02319 -1.82148e-08 0)
(-1.02319 -9.02074e-09 0)
(-1.02319 -1.85652e-08 0)
(-1.02319 -8.82202e-09 0)
(-1.02319 -1.69909e-08 0)
(-1.02319 -8.49684e-09 0)
(-1.02319 -1.37744e-08 0)
(-1.02319 -6.72167e-09 0)
(-1.02319 -1.01436e-08 0)
(-1.02319 -5.99222e-09 0)
(-1.02319 -4.26255e-09 0)
(-1.02319 -2.7264e-09 0)
(-1.53644 -3.5393e-09 0)
(-1.53644 -6.27763e-09 0)
(-1.53644 -1.56409e-08 0)
(-1.53644 -1.21529e-08 0)
(-1.53644 -2.72782e-08 0)
(-1.53644 -1.7914e-08 0)
(-1.53644 -3.52465e-08 0)
(-1.53644 -2.06662e-08 0)
(-1.53644 -3.94299e-08 0)
(-1.53644 -2.17187e-08 0)
(-1.53644 -3.9443e-08 0)
(-1.53644 -2.0845e-08 0)
(-1.53644 -3.54804e-08 0)
(-1.53644 -1.92321e-08 0)
(-1.53644 -2.8326e-08 0)
(-1.53644 -1.49803e-08 0)
(-1.53644 -1.99039e-08 0)
(-1.53644 -1.21889e-08 0)
(-1.53644 -8.21034e-09 0)
(-1.53644 -4.81288e-09 0)
(-1.92303 -7.3419e-09 0)
(-1.92303 -1.14359e-08 0)
(-1.92303 -2.71709e-08 0)
(-1.92303 -2.1904e-08 0)
(-1.92303 -4.53301e-08 0)
(-1.92303 -3.11647e-08 0)
(-1.92303 -5.74901e-08 0)
(-1.92303 -3.56648e-08 0)
(-1.92303 -6.34665e-08 0)
(-1.92303 -3.71316e-08 0)
(-1.92303 -6.28444e-08 0)
(-1.92303 -3.53847e-08 0)
(-1.92303 -5.59719e-08 0)
(-1.92303 -3.20251e-08 0)
(-1.92303 -4.43156e-08 0)
(-1.92303 -2.47673e-08 0)
(-1.92303 -3.02504e-08 0)
(-1.92303 -1.92493e-08 0)
(-1.92303 -1.23572e-08 0)
(-1.92303 -6.99364e-09 0)
(-2.18297 -1.12744e-08 0)
(-2.18297 -1.67364e-08 0)
(-2.18297 -3.85959e-08 0)
(-2.18297 -3.22236e-08 0)
(-2.18297 -6.28791e-08 0)
(-2.18297 -4.51952e-08 0)
(-2.18297 -7.88901e-08 0)
(-2.18297 -5.16563e-08 0)
(-2.18297 -8.63799e-08 0)
(-2.18297 -5.36286e-08 0)
(-2.18297 -8.49979e-08 0)
(-2.18297 -5.09966e-08 0)
(-2.18297 -7.52239e-08 0)
(-2.18297 -4.56816e-08 0)
(-2.18297 -5.93093e-08 0)
(-2.18297 -3.52049e-08 0)
(-2.18297 -3.9717e-08 0)
(-2.18297 -2.66008e-08 0)
(-2.18297 -1.62573e-08 0)
(-2.18297 -9.24517e-09 0)
(-2.31625 -1.4707e-08 0)
(-2.31625 -2.13398e-08 0)
(-2.31625 -4.82589e-08 0)
(-2.31625 -4.15339e-08 0)
(-2.31625 -7.73948e-08 0)
(-2.31625 -5.79606e-08 0)
(-2.31625 -9.63718e-08 0)
(-2.31625 -6.63571e-08 0)
(-2.31625 -1.04872e-07 0)
(-2.31625 -6.89072e-08 0)
(-2.31625 -1.02705e-07 0)
(-2.31625 -6.55497e-08 0)
(-2.31625 -9.04307e-08 0)
(-2.31625 -5.83979e-08 0)
(-2.31625 -7.11152e-08 0)
(-2.31625 -4.49356e-08 0)
(-2.31625 -4.6901e-08 0)
(-2.31625 -3.33752e-08 0)
(-2.31625 -1.93261e-08 0)
(-2.31625 -1.12824e-08 0)
(-2.32287 -1.74833e-08 0)
(-2.32287 -2.51173e-08 0)
(-2.32287 -5.57138e-08 0)
(-2.32287 -4.95918e-08 0)
(-2.32287 -8.82063e-08 0)
(-2.32287 -6.9155e-08 0)
(-2.32287 -1.09136e-07 0)
(-2.32287 -7.94365e-08 0)
(-2.32287 -1.18101e-07 0)
(-2.32287 -8.26354e-08 0)
(-2.32287 -1.15165e-07 0)
(-2.32287 -7.87323e-08 0)
(-2.32287 -1.0092e-07 0)
(-2.32287 -6.989e-08 0)
(-2.32287 -7.92306e-08 0)
(-2.32287 -5.37448e-08 0)
(-2.32287 -5.15308e-08 0)
(-2.32287 -3.93623e-08 0)
(-2.32287 -2.15036e-08 0)
(-2.32287 -1.30579e-08 0)
(-2.20284 -1.96228e-08 0)
(-2.20284 -2.81058e-08 0)
(-2.20284 -6.09582e-08 0)
(-2.20284 -5.63656e-08 0)
(-2.20284 -9.53176e-08 0)
(-2.20284 -7.86884e-08 0)
(-2.20284 -1.17212e-07 0)
(-2.20284 -9.07554e-08 0)
(-2.20284 -1.26127e-07 0)
(-2.20284 -9.46349e-08 0)
(-2.20284 -1.2246e-07 0)
(-2.20284 -9.03467e-08 0)
(-2.20284 -1.06794e-07 0)
(-2.20284 -7.99558e-08 0)
(-2.20284 -8.3741e-08 0)
(-2.20284 -6.14753e-08 0)
(-2.20284 -5.37126e-08 0)
(-2.20284 -4.43854e-08 0)
(-2.20284 -2.28382e-08 0)
(-2.20284 -1.45111e-08 0)
(-1.95616 -2.11842e-08 0)
(-1.95616 -3.03627e-08 0)
(-1.95616 -6.41282e-08 0)
(-1.95616 -6.18321e-08 0)
(-1.95616 -9.89859e-08 0)
(-1.95616 -8.6453e-08 0)
(-1.95616 -1.20956e-07 0)
(-1.95616 -1.00128e-07 0)
(-1.95616 -1.29384e-07 0)
(-1.95616 -1.04659e-07 0)
(-1.95616 -1.25048e-07 0)
(-1.95616 -1.00116e-07 0)
(-1.95616 -1.08505e-07 0)
(-1.95616 -8.83249e-08 0)
(-1.95616 -8.5e-08 0)
(-1.95616 -6.79173e-08 0)
(-1.95616 -5.37411e-08 0)
(-1.95616 -4.82492e-08 0)
(-1.95616 -2.34263e-08 0)
(-1.95616 -1.5576e-08 0)
(-1.58281 -2.22073e-08 0)
(-1.58281 -3.19122e-08 0)
(-1.58281 -6.53617e-08 0)
(-1.58281 -6.59031e-08 0)
(-1.58281 -9.95216e-08 0)
(-1.58281 -9.22491e-08 0)
(-1.58281 -1.2081e-07 0)
(-1.58281 -1.07255e-07 0)
(-1.58281 -1.28421e-07 0)
(-1.58281 -1.12339e-07 0)
(-1.58281 -1.23514e-07 0)
(-1.58281 -1.07644e-07 0)
(-1.58281 -1.06622e-07 0)
(-1.58281 -9.46337e-08 0)
(-1.58281 -8.34554e-08 0)
(-1.58281 -7.27889e-08 0)
(-1.58281 -5.19913e-08 0)
(-1.58281 -5.07434e-08 0)
(-1.58281 -2.33764e-08 0)
(-1.58281 -1.61895e-08 0)
(-1.08281 -2.27014e-08 0)
(-1.08281 -3.27366e-08 0)
(-1.08281 -6.47657e-08 0)
(-1.08281 -6.84157e-08 0)
(-1.08281 -9.72291e-08 0)
(-1.08281 -9.57874e-08 0)
(-1.08281 -1.17221e-07 0)
(-1.08281 -1.11736e-07 0)
(-1.08281 -1.238e-07 0)
(-1.08281 -1.17205e-07 0)
(-1.08281 -1.18465e-07 0)
(-1.08281 -1.12444e-07 0)
(-1.08281 -1.01743e-07 0)
(-1.08281 -9.84558e-08 0)
(-1.08281 -7.95771e-08 0)
(-1.08281 -7.57571e-08 0)
(-1.08281 -4.88586e-08 0)
(-1.08281 -5.16703e-08 0)
(-1.08281 -2.27862e-08 0)
(-1.08281 -1.62991e-08 0)
(-0.456156 -2.26512e-08 0)
(-0.456156 -3.27903e-08 0)
(-0.456156 -6.2426e-08 0)
(-0.456156 -6.91612e-08 0)
(-0.456156 -9.23956e-08 0)
(-0.456156 -9.67365e-08 0)
(-0.456156 -1.10621e-07 0)
(-0.456156 -1.13129e-07 0)
(-0.456156 -1.16066e-07 0)
(-0.456156 -1.18758e-07 0)
(-0.456156 -1.10491e-07 0)
(-0.456156 -1.14005e-07 0)
(-0.456156 -9.44413e-08 0)
(-0.456156 -9.93666e-08 0)
(-0.456156 -7.38163e-08 0)
(-0.456156 -7.64849e-08 0)
(-0.456156 -4.47176e-08 0)
(-0.456156 -5.08817e-08 0)
(-0.456156 -2.17313e-08 0)
(-0.456156 -1.58729e-08 0)
(0.297156 -2.20283e-08 0)
(0.297156 -3.20117e-08 0)
(0.297156 -5.84239e-08 0)
(0.297156 -6.79094e-08 0)
(0.297156 -8.5289e-08 0)
(0.297156 -9.47614e-08 0)
(0.297156 -1.01403e-07 0)
(0.297156 -1.11e-07 0)
(0.297156 -1.05716e-07 0)
(0.297156 -1.16521e-07 0)
(0.297156 -1.00124e-07 0)
(0.297156 -1.11853e-07 0)
(0.297156 -8.52208e-08 0)
(0.297156 -9.69899e-08 0)
(0.297156 -6.65676e-08 0)
(0.297156 -7.46674e-08 0)
(0.297156 -3.98768e-08 0)
(0.297156 -4.8301e-08 0)
(0.297156 -2.02524e-08 0)
(0.297156 -1.49007e-08 0)
(1.17713 -2.08005e-08 0)
(1.17713 -3.03292e-08 0)
(1.17713 -5.28494e-08 0)
(1.17713 -6.44255e-08 0)
(1.17713 -7.61466e-08 0)
(1.17713 -8.95468e-08 0)
(1.17713 -8.99073e-08 0)
(1.17713 -1.04955e-07 0)
(1.17713 -9.31563e-08 0)
(1.17713 -1.10077e-07 0)
(1.17713 -8.779e-08 0)
(1.17713 -1.05584e-07 0)
(1.17713 -7.44645e-08 0)
(1.17713 -9.10266e-08 0)
(1.17713 -5.81256e-08 0)
(1.17713 -7.00576e-08 0)
(1.17713 -3.45324e-08 0)
(1.17713 -4.39271e-08 0)
(1.17713 -1.83439e-08 0)
(1.17713 -1.33901e-08 0)
(2.18375 -1.89483e-08 0)
(2.18375 -2.76765e-08 0)
(2.18375 -4.58234e-08 0)
(2.18375 -5.85118e-08 0)
(2.18375 -6.51867e-08 0)
(2.18375 -8.08482e-08 0)
(2.18375 -7.64186e-08 0)
(2.18375 -9.46938e-08 0)
(2.18375 -7.8705e-08 0)
(2.18375 -9.91235e-08 0)
(2.18375 -7.38032e-08 0)
(2.18375 -9.49156e-08 0)
(2.18375 -6.24224e-08 0)
(2.18375 -8.12915e-08 0)
(2.18375 -4.86748e-08 0)
(2.18375 -6.24998e-08 0)
(2.18375 -2.87534e-08 0)
(2.18375 -3.78355e-08 0)
(2.18375 -1.5955e-08 0)
(2.18375 -1.13607e-08 0)
(3.31703 -1.64724e-08 0)
(3.31703 -2.40059e-08 0)
(3.31703 -3.75175e-08 0)
(3.31703 -5.0077e-08 0)
(3.31703 -5.26355e-08 0)
(3.31703 -6.85904e-08 0)
(3.31703 -6.12006e-08 0)
(3.31703 -8.01389e-08 0)
(3.31703 -6.26183e-08 0)
(3.31703 -8.36058e-08 0)
(3.31703 -5.83905e-08 0)
(3.31703 -7.9824e-08 0)
(3.31703 -4.92383e-08 0)
(3.31703 -6.78227e-08 0)
(3.31703 -3.83125e-08 0)
(3.31703 -5.20208e-08 0)
(3.31703 -2.25037e-08 0)
(3.31703 -3.02102e-08 0)
(3.31703 -1.3015e-08 0)
(3.31703 -8.85549e-09 0)
(4.57697 -1.33865e-08 0)
(4.57697 -1.93067e-08 0)
(4.57697 -2.81778e-08 0)
(4.57697 -3.92476e-08 0)
(4.57697 -3.87938e-08 0)
(4.57697 -5.30462e-08 0)
(4.57697 -4.45901e-08 0)
(4.57697 -6.16632e-08 0)
(4.57697 -4.5207e-08 0)
(4.57697 -6.39745e-08 0)
(4.57697 -4.18146e-08 0)
(4.57697 -6.07933e-08 0)
(4.57697 -3.50745e-08 0)
(4.57697 -5.11025e-08 0)
(4.57697 -2.71574e-08 0)
(4.57697 -3.90129e-08 0)
(4.57697 -1.57459e-08 0)
(4.57697 -2.14427e-08 0)
(4.57697 -9.50954e-09 0)
(4.57697 -5.98867e-09 0)
(5.96356 -1.00388e-08 0)
(5.96356 -1.41234e-08 0)
(5.96356 -1.89231e-08 0)
(5.96356 -2.73661e-08 0)
(5.96356 -2.53253e-08 0)
(5.96356 -3.61835e-08 0)
(5.96356 -2.86066e-08 0)
(5.96356 -4.16284e-08 0)
(5.96356 -2.86045e-08 0)
(5.96356 -4.27629e-08 0)
(5.96356 -2.61252e-08 0)
(5.96356 -4.02888e-08 0)
(5.96356 -2.1699e-08 0)
(5.96356 -3.33109e-08 0)
(5.96356 -1.66216e-08 0)
(5.96356 -2.51725e-08 0)
(5.96356 -9.35614e-09 0)
(5.96356 -1.27091e-08 0)
(5.96356 -5.89726e-09 0)
(5.96356 -3.15879e-09 0)
(7.47681 -6.35246e-09 0)
(7.47681 -8.51999e-09 0)
(7.47681 -1.01938e-08 0)
(7.47681 -1.52795e-08 0)
(7.47681 -1.29709e-08 0)
(7.47681 -1.94702e-08 0)
(7.47681 -1.41898e-08 0)
(7.47681 -2.1969e-08 0)
(7.47681 -1.38116e-08 0)
(7.47681 -2.2166e-08 0)
(7.47681 -1.2295e-08 0)
(7.47681 -2.05544e-08 0)
(7.47681 -9.96888e-09 0)
(7.47681 -1.64961e-08 0)
(7.47681 -7.44351e-09 0)
(7.47681 -1.21963e-08 0)
(7.47681 -3.83462e-09 0)
(7.47681 -5.18041e-09 0)
(7.47681 -2.61558e-09 0)
(7.47681 -8.54626e-10 0)
(9.11672 -2.26962e-09 0)
(9.11672 -2.91129e-09 0)
(9.11672 -3.18134e-09 0)
(9.11672 -4.84884e-09 0)
(9.11672 -3.86152e-09 0)
(9.11672 -5.95082e-09 0)
(9.11672 -4.09399e-09 0)
(9.11672 -6.56608e-09 0)
(9.11672 -3.87862e-09 0)
(9.11672 -6.48909e-09 0)
(9.11672 -3.3604e-09 0)
(9.11672 -5.90194e-09 0)
(9.11672 -2.65079e-09 0)
(9.11672 -4.57492e-09 0)
(9.11672 -1.91378e-09 0)
(9.11672 -3.28228e-09 0)
(9.11672 -8.68872e-10 0)
(9.11672 -1.07462e-09 0)
(9.11672 -6.38197e-10 0)
(9.11672 4.8836e-12 0)
)
;

boundaryField
{
    top
    {
        type            fixedValue;
        value           uniform (10 0 0);
    }
    bottom
    {
        type            fixedValue;
        value           uniform (0 0 0);
    }
    inlet
    {
        type            zeroGradient;
    }
    outlet
    {
        type            zeroGradient;
    }
    frontAndBack
    {
        type            empty;
    }
}


// ************************************************************************* //
