/*--------------------------------*- C++ -*----------------------------------*\
| =========                 |                                                 |
| \\      /  F ield         | OpenFOAM: The Open Source CFD Toolbox           |
|  \\    /   O peration     | Version:  4.1                                   |
|   \\  /    A nd           | Web:      www.OpenFOAM.org                      |
|    \\/     M anipulation  |                                                 |
\*---------------------------------------------------------------------------*/
FoamFile
{
    version     2.0;
    format      ascii;
    class       volScalarField;
    location    "5";
    object      p;
}
// * * * * * * * * * * * * * * * * * * * * * * * * * * * * * * * * * * * * * //

dimensions      [0 2 -2 0 0 0 0];

internalField   nonuniform List<scalar> 
400
(
2.36471e-13
2.65589e-13
2.25082e-13
2.40716e-13
2.13449e-13
2.26884e-13
2.03298e-13
2.11642e-13
1.9803e-13
1.95337e-13
1.81479e-13
1.76766e-13
1.75421e-13
1.65776e-13
1.6071e-13
1.43315e-13
1.38244e-13
1.21456e-13
1.23256e-13
1.09529e-13
2.35626e-13
2.64713e-13
2.25006e-13
2.407e-13
2.13458e-13
2.26863e-13
2.03316e-13
2.11641e-13
1.98021e-13
1.95332e-13
1.81492e-13
1.76792e-13
1.75413e-13
1.65752e-13
1.60676e-13
1.43328e-13
1.38239e-13
1.21464e-13
1.22667e-13
1.08903e-13
2.35147e-13
2.64091e-13
2.24912e-13
2.4069e-13
2.13457e-13
2.26857e-13
2.0332e-13
2.11645e-13
1.98015e-13
1.9533e-13
1.81498e-13
1.76812e-13
1.75409e-13
1.6574e-13
1.60642e-13
1.43341e-13
1.38232e-13
1.21467e-13
1.22207e-13
1.08463e-13
2.35e-13
2.638e-13
2.24823e-13
2.4068e-13
2.1346e-13
2.26853e-13
2.03319e-13
2.11645e-13
1.9802e-13
1.95329e-13
1.81486e-13
1.76832e-13
1.75405e-13
1.65741e-13
1.60609e-13
1.43361e-13
1.38221e-13
1.21464e-13
1.21942e-13
1.08226e-13
2.35058e-13
2.63729e-13
2.24751e-13
2.40643e-13
2.13464e-13
2.26848e-13
2.03332e-13
2.1165e-13
1.98034e-13
1.9533e-13
1.81466e-13
1.76853e-13
1.75389e-13
1.65753e-13
1.60575e-13
1.43389e-13
1.38196e-13
1.21456e-13
1.21843e-13
1.08139e-13
2.35237e-13
2.6381e-13
2.2469e-13
2.40589e-13
2.1348e-13
2.26851e-13
2.03336e-13
2.11653e-13
1.98071e-13
1.9534e-13
1.81411e-13
1.76884e-13
1.75379e-13
1.65779e-13
1.60525e-13
1.43413e-13
1.38188e-13
1.21465e-13
1.21864e-13
1.08159e-13
2.35514e-13
2.64009e-13
2.24615e-13
2.40527e-13
2.135e-13
2.2685e-13
2.03374e-13
2.1164e-13
1.981e-13
1.9539e-13
1.81341e-13
1.76916e-13
1.7535e-13
1.65812e-13
1.60481e-13
1.43442e-13
1.38179e-13
1.21477e-13
1.21988e-13
1.08262e-13
2.3583e-13
2.64246e-13
2.24549e-13
2.40457e-13
2.13514e-13
2.26865e-13
2.03397e-13
2.11648e-13
1.98129e-13
1.95458e-13
1.81271e-13
1.76944e-13
1.7532e-13
1.65857e-13
1.60431e-13
1.43483e-13
1.3817e-13
1.21491e-13
1.22191e-13
1.08447e-13
2.36155e-13
2.64486e-13
2.24495e-13
2.40388e-13
2.1351e-13
2.26894e-13
2.03404e-13
2.11664e-13
1.98162e-13
1.95533e-13
1.81195e-13
1.76962e-13
1.75282e-13
1.6592e-13
1.60387e-13
1.43514e-13
1.3815e-13
1.21527e-13
1.22453e-13
1.08647e-13
2.36455e-13
2.64706e-13
2.24448e-13
2.40269e-13
2.13524e-13
2.26935e-13
2.03387e-13
2.11695e-13
1.98221e-13
1.95605e-13
1.81094e-13
1.76978e-13
1.75275e-13
1.65967e-13
1.60332e-13
1.43558e-13
1.38119e-13
1.21556e-13
1.2274e-13
1.0888e-13
2.36683e-13
2.64848e-13
2.24368e-13
2.40131e-13
2.13563e-13
2.26982e-13
2.03363e-13
2.11717e-13
1.98271e-13
1.95711e-13
1.80995e-13
1.76987e-13
1.75253e-13
1.66001e-13
1.60292e-13
1.43607e-13
1.38087e-13
1.21596e-13
1.23014e-13
1.09061e-13
2.36841e-13
2.64874e-13
2.24289e-13
2.39984e-13
2.13609e-13
2.27037e-13
2.03333e-13
2.1177e-13
1.98309e-13
1.95791e-13
1.80878e-13
1.77039e-13
1.7524e-13
1.66011e-13
1.60283e-13
1.43604e-13
1.38063e-13
1.21662e-13
1.23247e-13
1.0921e-13
2.36861e-13
2.64802e-13
2.2419e-13
2.39872e-13
2.1365e-13
2.27087e-13
2.03303e-13
2.11817e-13
1.98374e-13
1.9586e-13
1.80762e-13
1.77091e-13
1.75202e-13
1.66007e-13
1.60265e-13
1.43623e-13
1.38043e-13
1.21732e-13
1.23441e-13
1.09274e-13
2.36745e-13
2.64597e-13
2.24064e-13
2.39786e-13
2.13749e-13
2.2712e-13
2.03284e-13
2.11813e-13
1.98418e-13
1.95978e-13
1.80664e-13
1.77078e-13
1.75172e-13
1.6604e-13
1.60186e-13
1.43644e-13
1.38048e-13
1.21784e-13
1.23542e-13
1.0927e-13
2.36458e-13
2.64302e-13
2.23984e-13
2.39707e-13
2.13849e-13
2.27076e-13
2.03257e-13
2.11816e-13
1.98466e-13
1.96071e-13
1.80589e-13
1.77124e-13
1.75147e-13
1.66096e-13
1.60065e-13
1.43653e-13
1.38059e-13
1.21843e-13
1.23519e-13
1.09199e-13
2.36102e-13
2.63889e-13
2.23892e-13
2.39643e-13
2.1393e-13
2.27041e-13
2.03274e-13
2.11786e-13
1.98464e-13
1.96207e-13
1.805e-13
1.77176e-13
1.7512e-13
1.66131e-13
1.59947e-13
1.43686e-13
1.38085e-13
1.21886e-13
1.23418e-13
1.09059e-13
2.35607e-13
2.6347e-13
2.23809e-13
2.39623e-13
2.14014e-13
2.2695e-13
2.03275e-13
2.11814e-13
1.98472e-13
1.96282e-13
1.80417e-13
1.77253e-13
1.75126e-13
1.66157e-13
1.59806e-13
1.43693e-13
1.38142e-13
1.21922e-13
1.23214e-13
1.08815e-13
2.35141e-13
2.63048e-13
2.23745e-13
2.39678e-13
2.14098e-13
2.26838e-13
2.03291e-13
2.11817e-13
1.98472e-13
1.96345e-13
1.80368e-13
1.77313e-13
1.75133e-13
1.66156e-13
1.59705e-13
1.43725e-13
1.38217e-13
1.21944e-13
1.22941e-13
1.08501e-13
2.34834e-13
2.62709e-13
2.237e-13
2.39724e-13
2.14131e-13
2.26754e-13
2.03278e-13
2.11837e-13
1.98485e-13
1.96368e-13
1.80321e-13
1.77347e-13
1.7512e-13
1.66141e-13
1.59641e-13
1.43775e-13
1.38276e-13
1.21931e-13
1.22617e-13
1.08148e-13
2.34742e-13
2.6257e-13
2.23656e-13
2.39756e-13
2.14171e-13
2.26719e-13
2.03265e-13
2.11831e-13
1.98469e-13
1.96417e-13
1.80269e-13
1.77388e-13
1.75106e-13
1.66107e-13
1.59661e-13
1.43797e-13
1.38293e-13
1.21965e-13
1.22309e-13
1.07847e-13
)
;

boundaryField
{
    top
    {
        type            zeroGradient;
    }
    bottom
    {
        type            zeroGradient;
    }
    inlet
    {
        type            fixedValue;
        value           uniform 0;
    }
    outlet
    {
        type            fixedValue;
        value           uniform 0;
    }
    frontAndBack
    {
        type            empty;
    }
}


// ************************************************************************* //
