/*--------------------------------*- C++ -*----------------------------------*\
| =========                 |                                                 |
| \\      /  F ield         | OpenFOAM: The Open Source CFD Toolbox           |
|  \\    /   O peration     | Version:  4.1                                   |
|   \\  /    A nd           | Web:      www.OpenFOAM.org                      |
|    \\/     M anipulation  |                                                 |
\*---------------------------------------------------------------------------*/
FoamFile
{
    version     2.0;
    format      ascii;
    class       surfaceScalarField;
    location    "5";
    object      phi;
}
// * * * * * * * * * * * * * * * * * * * * * * * * * * * * * * * * * * * * * //

dimensions      [0 3 -1 0 0 0 0];

internalField   nonuniform List<scalar> 
760
(
1.25e-06
-3.66445e-19
1.25e-06
-2.54381e-19
1.25e-06
1.81091e-21
1.25e-06
-1.50884e-20
1.25e-06
1.34568e-20
1.25e-06
-1.61677e-20
1.25e-06
1.51994e-20
1.25e-06
-6.34822e-21
1.25e-06
-7.64562e-22
1.25e-06
-5.88767e-21
1.25e-06
8.55554e-21
1.25e-06
6.49495e-21
1.25e-06
-4.23053e-21
1.25e-06
-6.41377e-21
1.25e-06
-1.09614e-20
1.25e-06
6.51256e-21
1.25e-06
-3.75494e-21
1.25e-06
8.95831e-21
1.25e-06
-1.56946e-19
-2.24773e-19
3.75e-06
-1.10663e-18
3.75e-06
-8.89423e-19
3.75e-06
-2.33916e-20
3.75e-06
-3.25741e-20
3.75e-06
2.8635e-20
3.75e-06
-4.14894e-20
3.75e-06
3.98163e-20
3.75e-06
-1.24534e-20
3.75e-06
-9.43999e-21
3.75e-06
-1.52372e-20
3.75e-06
2.67854e-20
3.75e-06
2.30832e-20
3.75e-06
-1.0883e-20
3.75e-06
-2.70965e-20
3.75e-06
-3.29806e-20
3.75e-06
1.74533e-20
3.75e-06
-8.31279e-21
3.75e-06
2.19766e-20
3.75e-06
-5.74053e-19
-7.25099e-19
6.25e-06
-2.0001e-18
6.25e-06
-1.75215e-18
6.25e-06
-8.00528e-20
6.25e-06
-4.40615e-20
6.25e-06
3.81443e-20
6.25e-06
-6.63711e-20
6.25e-06
6.52042e-20
6.25e-06
-1.33474e-20
6.25e-06
-2.81879e-20
6.25e-06
-2.63894e-20
6.25e-06
5.34595e-20
6.25e-06
4.49834e-20
6.25e-06
-1.69116e-20
6.25e-06
-5.79282e-20
6.25e-06
-6.35682e-20
6.25e-06
3.06212e-20
6.25e-06
-1.21532e-20
6.25e-06
3.53705e-20
6.25e-06
-1.17334e-18
-1.38575e-18
8.75e-06
-2.9124e-18
8.75e-06
-2.69463e-18
8.75e-06
-1.59776e-19
8.75e-06
-4.32049e-20
8.75e-06
4.34853e-20
8.75e-06
-9.21534e-20
8.75e-06
8.89327e-20
8.75e-06
-1.09502e-20
8.75e-06
-5.6425e-20
8.75e-06
-3.93354e-20
8.75e-06
8.31405e-20
8.75e-06
7.05169e-20
8.75e-06
-1.85526e-20
8.75e-06
-9.46025e-20
8.75e-06
-9.78142e-20
8.75e-06
4.60479e-20
8.75e-06
-1.38075e-20
8.75e-06
4.8082e-20
8.75e-06
-1.87347e-18
-2.1233e-18
1.125e-05
-3.72363e-18
1.125e-05
-3.58905e-18
1.125e-05
-2.49586e-19
1.125e-05
-3.60454e-20
1.125e-05
4.29983e-20
1.125e-05
-1.19074e-19
1.125e-05
1.18303e-19
1.125e-05
-1.89722e-21
1.125e-05
-9.40755e-20
1.125e-05
-5.65944e-20
1.125e-05
1.20429e-19
1.125e-05
9.55536e-20
1.125e-05
-1.94633e-20
1.125e-05
-1.34042e-19
1.125e-05
-1.29597e-19
1.125e-05
6.31601e-20
1.125e-05
-2.0999e-20
1.125e-05
5.41383e-20
1.125e-05
-2.58422e-18
-2.84834e-18
1.375e-05
-4.351e-18
1.375e-05
-4.33263e-18
1.375e-05
-3.33031e-19
1.375e-05
-2.43742e-20
1.375e-05
3.91856e-20
1.375e-05
-1.39177e-19
1.375e-05
1.38632e-19
1.375e-05
1.3851e-20
1.375e-05
-1.30715e-19
1.375e-05
-8.03862e-20
1.375e-05
1.52963e-19
1.375e-05
1.19126e-19
1.375e-05
-1.05382e-20
1.375e-05
-1.68858e-19
1.375e-05
-1.65292e-19
1.375e-05
7.57014e-20
1.375e-05
-2.10782e-20
1.375e-05
5.9427e-20
1.375e-05
-3.23507e-18
-3.48834e-18
1.625e-05
-4.72661e-18
1.625e-05
-4.84067e-18
1.625e-05
-4.11514e-19
1.625e-05
-5.54554e-21
1.625e-05
3.30814e-20
1.625e-05
-1.57269e-19
1.625e-05
1.67544e-19
1.625e-05
2.23812e-20
1.625e-05
-1.73053e-19
1.625e-05
-9.69256e-20
1.625e-05
1.81246e-19
1.625e-05
1.37222e-19
1.625e-05
-1.50051e-21
1.625e-05
-1.97668e-19
1.625e-05
-1.93681e-19
1.625e-05
8.13606e-20
1.625e-05
-1.74393e-20
1.625e-05
6.36294e-20
1.625e-05
-3.76228e-18
-3.98904e-18
1.875e-05
-4.82864e-18
1.875e-05
-5.07886e-18
1.875e-05
-4.70681e-19
1.875e-05
1.29539e-20
1.875e-05
2.73509e-20
1.875e-05
-1.66969e-19
1.875e-05
1.90823e-19
1.875e-05
3.15319e-20
1.875e-05
-2.13948e-19
1.875e-05
-1.07476e-19
1.875e-05
2.05367e-19
1.875e-05
1.48338e-19
1.875e-05
1.21729e-20
1.875e-05
-2.17012e-19
1.875e-05
-2.19217e-19
1.875e-05
8.23151e-20
1.875e-05
-7.35688e-21
1.875e-05
6.3488e-20
1.875e-05
-4.12026e-18
-4.29278e-18
2.125e-05
-4.65397e-18
2.125e-05
-5.03883e-18
2.125e-05
-5.03501e-19
2.125e-05
4.31059e-20
2.125e-05
1.09026e-20
2.125e-05
-1.66434e-19
2.125e-05
2.07518e-19
2.125e-05
3.68258e-20
2.125e-05
-2.5512e-19
2.125e-05
-1.12282e-19
2.125e-05
2.30163e-19
2.125e-05
1.46723e-19
2.125e-05
1.73346e-20
2.125e-05
-2.17351e-19
2.125e-05
-2.30834e-19
2.125e-05
7.06734e-20
2.125e-05
5.14301e-21
2.125e-05
6.94304e-20
2.125e-05
-4.27444e-18
-4.39089e-18
2.375e-05
-4.2261e-18
2.375e-05
-4.72658e-18
2.375e-05
-4.97812e-19
2.375e-05
6.35084e-20
2.375e-05
-6.6553e-21
2.375e-05
-1.55385e-19
2.375e-05
2.12589e-19
2.375e-05
4.38796e-20
2.375e-05
-2.77551e-19
2.375e-05
-1.25327e-19
2.375e-05
2.38834e-19
2.375e-05
1.40228e-19
2.375e-05
3.48384e-20
2.375e-05
-2.1095e-19
2.375e-05
-2.38436e-19
2.375e-05
5.78547e-20
2.375e-05
1.41716e-20
2.375e-05
7.08627e-20
2.375e-05
-4.21518e-18
-4.25957e-18
2.625e-05
-3.60425e-18
2.625e-05
-4.18267e-18
2.625e-05
-4.71054e-19
2.625e-05
8.09746e-20
2.625e-05
-2.49462e-20
2.625e-05
-1.36272e-19
2.625e-05
2.13741e-19
2.625e-05
3.89516e-20
2.625e-05
-2.89155e-19
2.625e-05
-1.21996e-19
2.625e-05
2.42001e-19
2.625e-05
1.1799e-19
2.625e-05
4.13704e-20
2.625e-05
-1.94774e-19
2.625e-05
-2.34679e-19
2.625e-05
5.34082e-20
2.625e-05
1.78393e-20
2.625e-05
7.2038e-20
2.625e-05
-3.95544e-18
-3.93143e-18
2.875e-05
-2.83945e-18
2.875e-05
-3.48181e-18
2.875e-05
-4.20283e-19
2.875e-05
8.63357e-20
2.875e-05
-4.01671e-20
2.875e-05
-1.07535e-19
2.875e-05
2.04914e-19
2.875e-05
4.27843e-20
2.875e-05
-2.93499e-19
2.875e-05
-1.2386e-19
2.875e-05
2.32196e-19
2.875e-05
1.02358e-19
2.875e-05
4.97415e-20
2.875e-05
-1.76429e-19
2.875e-05
-2.13665e-19
2.875e-05
3.66008e-20
2.875e-05
1.98465e-20
2.875e-05
7.38162e-20
2.875e-05
-3.53055e-18
-3.42868e-18
3.125e-05
-2.02412e-18
3.125e-05
-2.68971e-18
3.125e-05
-3.52046e-19
3.125e-05
9.61864e-20
3.125e-05
-6.96597e-20
3.125e-05
-7.60014e-20
3.125e-05
1.84914e-19
3.125e-05
5.42016e-20
3.125e-05
-2.71759e-19
3.125e-05
-1.35261e-19
3.125e-05
2.11759e-19
3.125e-05
9.90537e-20
3.125e-05
4.45697e-20
3.125e-05
-1.66768e-19
3.125e-05
-1.71324e-19
3.125e-05
2.88442e-20
3.125e-05
1.21497e-20
3.125e-05
7.62911e-20
3.125e-05
-2.97382e-18
-2.81885e-18
3.375e-05
-1.22818e-18
3.375e-05
-1.90414e-18
3.375e-05
-2.92249e-19
3.375e-05
1.04891e-19
3.375e-05
-8.15464e-20
3.375e-05
-3.19164e-20
3.375e-05
1.55448e-19
3.375e-05
5.07827e-20
3.375e-05
-2.40474e-19
3.375e-05
-1.24873e-19
3.375e-05
1.81244e-19
3.375e-05
7.12029e-20
3.375e-05
3.62101e-20
3.375e-05
-1.54017e-19
3.375e-05
-1.25085e-19
3.375e-05
2.84821e-20
3.375e-05
7.24064e-21
3.375e-05
6.63752e-20
3.375e-05
-2.34572e-18
-2.15688e-18
3.625e-05
-5.61608e-19
3.625e-05
-1.18807e-18
3.625e-05
-2.20409e-19
3.625e-05
1.03483e-19
3.625e-05
-8.17467e-20
3.625e-05
-9.67741e-21
3.625e-05
1.09618e-19
3.625e-05
4.95953e-20
3.625e-05
-1.87067e-19
3.625e-05
-1.20007e-19
3.625e-05
1.49847e-19
3.625e-05
5.25698e-20
3.625e-05
2.85816e-20
3.625e-05
-1.24942e-19
3.625e-05
-8.27513e-20
3.625e-05
1.71842e-20
3.625e-05
-6.71572e-22
3.625e-05
5.80156e-20
3.625e-05
-1.71782e-18
-1.50367e-18
3.875e-05
-4.90644e-20
3.875e-05
-6.29005e-19
3.875e-05
-1.57148e-19
3.875e-05
8.69475e-20
3.875e-05
-7.80561e-20
3.875e-05
2.2413e-20
3.875e-05
7.36595e-20
3.875e-05
2.21704e-20
3.875e-05
-1.43224e-19
3.875e-05
-8.11762e-20
3.875e-05
1.11939e-19
3.875e-05
3.08613e-20
3.875e-05
1.54922e-20
3.875e-05
-1.0037e-19
3.875e-05
-3.55923e-20
3.875e-05
1.89589e-20
3.875e-05
-1.05113e-20
3.875e-05
4.11163e-20
3.875e-05
-1.12614e-18
-9.13699e-19
4.125e-05
2.24004e-19
4.125e-05
-2.3481e-19
4.125e-05
-1.04826e-19
4.125e-05
5.09641e-20
4.125e-05
-6.52521e-20
4.125e-05
4.0631e-20
4.125e-05
3.61951e-20
4.125e-05
1.04777e-20
4.125e-05
-9.75632e-20
4.125e-05
-4.89372e-20
4.125e-05
7.04314e-20
4.125e-05
1.89249e-20
4.125e-05
8.93715e-21
4.125e-05
-6.49484e-20
4.125e-05
-1.05766e-20
4.125e-05
3.85063e-21
4.125e-05
-1.67112e-20
4.125e-05
2.84641e-20
4.125e-05
-6.31242e-19
-4.48287e-19
4.375e-05
2.72914e-19
4.375e-05
-3.06971e-20
4.375e-05
-6.11682e-20
4.375e-05
2.93312e-20
4.375e-05
-3.83522e-20
4.375e-05
3.80435e-20
4.375e-05
1.96099e-20
4.375e-05
-4.57229e-21
4.375e-05
-6.2112e-20
4.375e-05
-1.93914e-20
4.375e-05
4.32051e-20
4.375e-05
8.85029e-21
4.375e-05
8.66609e-21
4.375e-05
-3.23331e-20
4.375e-05
1.90999e-21
4.375e-05
-7.87557e-21
4.375e-05
-1.36532e-20
4.375e-05
2.46638e-20
4.375e-05
-2.71554e-19
-1.38164e-19
4.625e-05
1.60348e-19
4.625e-05
1.39961e-20
4.625e-05
-2.45882e-20
4.625e-05
1.06191e-20
4.625e-05
-2.14974e-20
4.625e-05
1.91507e-20
4.625e-05
5.11638e-21
4.625e-05
-1.46082e-21
4.625e-05
-2.41004e-20
4.625e-05
-1.15665e-20
4.625e-05
2.27589e-20
4.625e-05
3.12308e-22
4.625e-05
6.03141e-21
4.625e-05
-9.34032e-21
4.625e-05
-5.47424e-21
4.625e-05
-4.86673e-21
4.625e-05
-3.50725e-21
4.625e-05
4.38845e-21
4.625e-05
-6.4888e-20
-1.29591e-21
4.875e-05
4.875e-05
4.875e-05
4.875e-05
4.875e-05
4.875e-05
4.875e-05
4.875e-05
4.875e-05
4.875e-05
4.875e-05
4.875e-05
4.875e-05
4.875e-05
4.875e-05
4.875e-05
4.875e-05
4.875e-05
4.875e-05
)
;

boundaryField
{
    top
    {
        type            calculated;
        value           uniform 0;
    }
    bottom
    {
        type            calculated;
        value           uniform 0;
    }
    inlet
    {
        type            calculated;
        value           nonuniform List<scalar> 
20
(
-1.25e-06
-3.75e-06
-6.25e-06
-8.75e-06
-1.125e-05
-1.375e-05
-1.625e-05
-1.875e-05
-2.125e-05
-2.375e-05
-2.625e-05
-2.875e-05
-3.125e-05
-3.375e-05
-3.625e-05
-3.875e-05
-4.125e-05
-4.375e-05
-4.625e-05
-4.875e-05
)
;
    }
    outlet
    {
        type            calculated;
        value           nonuniform List<scalar> 
20
(
1.25e-06
3.75e-06
6.25e-06
8.75e-06
1.125e-05
1.375e-05
1.625e-05
1.875e-05
2.125e-05
2.375e-05
2.625e-05
2.875e-05
3.125e-05
3.375e-05
3.625e-05
3.875e-05
4.125e-05
4.375e-05
4.625e-05
4.875e-05
)
;
    }
    frontAndBack
    {
        type            empty;
        value           nonuniform 0();
    }
}


// ************************************************************************* //
