/*--------------------------------*- C++ -*----------------------------------*\
| =========                 |                                                 |
| \\      /  F ield         | OpenFOAM: The Open Source CFD Toolbox           |
|  \\    /   O peration     | Version:  4.1                                   |
|   \\  /    A nd           | Web:      www.OpenFOAM.org                      |
|    \\/     M anipulation  |                                                 |
\*---------------------------------------------------------------------------*/
FoamFile
{
    version     2.0;
    format      ascii;
    class       volVectorField;
    location    "5";
    object      U;
}
// * * * * * * * * * * * * * * * * * * * * * * * * * * * * * * * * * * * * * //

dimensions      [0 1 -1 0 0 0 0];

internalField   nonuniform List<vector> 
400
(
(0.025 -1.63442e-16 0)
(0.025 -1.02891e-16 0)
(0.025 3.3873e-18 0)
(0.025 -7.86043e-18 0)
(0.025 7.16088e-18 0)
(0.025 -7.7648e-18 0)
(0.025 7.22531e-18 0)
(0.025 -3.61277e-18 0)
(0.025 3.95437e-19 0)
(0.025 -2.78522e-18 0)
(0.025 3.6346e-18 0)
(0.025 2.49842e-18 0)
(0.025 -2.16921e-18 0)
(0.025 -1.93857e-18 0)
(0.025 -4.705e-18 0)
(0.025 3.06388e-18 0)
(0.025 -1.88352e-18 0)
(0.025 4.00054e-18 0)
(0.025 -5.98892e-17 0)
(0.025 -9.46342e-17 0)
(0.075 -6.86875e-16 0)
(0.075 -5.12172e-16 0)
(0.075 -4.10061e-18 0)
(0.075 -2.4642e-17 0)
(0.075 2.15357e-17 0)
(0.075 -2.81892e-17 0)
(0.075 2.66668e-17 0)
(0.075 -9.70675e-18 0)
(0.075 -3.17665e-18 0)
(0.075 -1.00084e-17 0)
(0.075 1.57736e-17 0)
(0.075 1.3311e-17 0)
(0.075 -7.34549e-18 0)
(0.075 -1.43516e-17 0)
(0.075 -2.00545e-17 0)
(0.075 1.10498e-17 0)
(0.075 -6.00873e-18 0)
(0.075 1.54285e-17 0)
(0.075 -3.20519e-16 0)
(0.075 -4.31488e-16 0)
(0.125 -1.52225e-15 0)
(0.125 -1.27652e-15 0)
(0.125 -4.54593e-17 0)
(0.125 -3.96384e-17 0)
(0.125 3.41347e-17 0)
(0.125 -5.30348e-17 0)
(0.125 5.16068e-17 0)
(0.125 -1.42723e-17 0)
(0.125 -1.6441e-17 0)
(0.125 -2.01759e-17 0)
(0.125 3.8705e-17 0)
(0.125 3.24285e-17 0)
(0.125 -1.41058e-17 0)
(0.125 -4.02875e-17 0)
(0.125 -4.64532e-17 0)
(0.125 2.32484e-17 0)
(0.125 -1.01305e-17 0)
(0.125 2.83635e-17 0)
(0.125 -8.35877e-16 0)
(0.125 -1.02086e-15 0)
(0.175 -2.46166e-15 0)
(0.175 -2.21436e-15 0)
(0.175 -1.15884e-16 0)
(0.175 -4.56795e-17 0)
(0.175 4.22127e-17 0)
(0.175 -7.93279e-17 0)
(0.175 7.68652e-17 0)
(0.175 -1.33537e-17 0)
(0.175 -4.03005e-17 0)
(0.175 -3.21412e-17 0)
(0.175 6.72488e-17 0)
(0.175 5.7145e-17 0)
(0.175 -1.85104e-17 0)
(0.175 -7.51122e-17 0)
(0.175 -8.00405e-17 0)
(0.175 3.7998e-17 0)
(0.175 -1.31194e-17 0)
(0.175 4.22554e-17 0)
(0.175 -1.50708e-15 0)
(0.175 -1.74389e-15 0)
(0.225 -3.35311e-15 0)
(0.225 -3.16604e-15 0)
(0.225 -2.03295e-16 0)
(0.225 -4.14634e-17 0)
(0.225 4.41501e-17 0)
(0.225 -1.06422e-16 0)
(0.225 1.03468e-16 0)
(0.225 -7.54734e-18 0)
(0.225 -7.34495e-17 0)
(0.225 -4.78043e-17 0)
(0.225 1.01886e-16 0)
(0.225 8.32988e-17 0)
(0.225 -2.0438e-17 0)
(0.225 -1.14388e-16 0)
(0.225 -1.13803e-16 0)
(0.225 5.51259e-17 0)
(0.225 -1.81307e-17 0)
(0.225 5.18157e-17 0)
(0.225 -2.2341e-15 0)
(0.225 -2.49728e-15 0)
(0.275 -4.09107e-15 0)
(0.275 -4.00756e-15 0)
(0.275 -2.92567e-16 0)
(0.275 -3.19341e-17 0)
(0.275 4.22998e-17 0)
(0.275 -1.30287e-16 0)
(0.275 1.28669e-16 0)
(0.275 5.24956e-18 0)
(0.275 -1.11347e-16 0)
(0.275 -6.88367e-17 0)
(0.275 1.36818e-16 0)
(0.275 1.08514e-16 0)
(0.275 -1.57828e-17 0)
(0.275 -1.52772e-16 0)
(0.275 -1.48301e-16 0)
(0.275 7.05401e-17 0)
(0.275 -2.19275e-17 0)
(0.275 5.73473e-17 0)
(0.275 -2.93229e-15 0)
(0.275 -3.1966e-15 0)
(0.325 -4.60325e-15 0)
(0.325 -4.64796e-15 0)
(0.325 -3.76358e-16 0)
(0.325 -1.60505e-17 0)
(0.325 3.707e-17 0)
(0.325 -1.49847e-16 0)
(0.325 1.53995e-16 0)
(0.325 1.82288e-17 0)
(0.325 -1.51595e-16 0)
(0.325 -8.92879e-17 0)
(0.325 1.67683e-16 0)
(0.325 1.30057e-16 0)
(0.325 -7.13734e-18 0)
(0.325 -1.8552e-16 0)
(0.325 -1.80517e-16 0)
(0.325 8.03663e-17 0)
(0.325 -2.04971e-17 0)
(0.325 6.18502e-17 0)
(0.325 -3.53506e-15 0)
(0.325 -3.77985e-15 0)
(0.375 -4.84633e-15 0)
(0.375 -5.02838e-15 0)
(0.375 -4.4697e-16 0)
(0.375 3.43088e-18 0)
(0.375 3.09221e-17 0)
(0.375 -1.64555e-16 0)
(0.375 1.81019e-16 0)
(0.375 2.75651e-17 0)
(0.375 -1.94577e-16 0)
(0.375 -1.03217e-16 0)
(0.375 1.94797e-16 0)
(0.375 1.45321e-16 0)
(0.375 4.92203e-18 0)
(0.375 -2.10282e-16 0)
(0.375 -2.08516e-16 0)
(0.375 8.37388e-17 0)
(0.375 -1.29865e-17 0)
(0.375 6.33526e-17 0)
(0.375 -3.98719e-15 0)
(0.375 -4.19071e-15 0)
(0.425 -4.80648e-15 0)
(0.425 -5.12694e-15 0)
(0.425 -4.94139e-16 0)
(0.425 2.80945e-17 0)
(0.425 1.9392e-17 0)
(0.425 -1.68989e-16 0)
(0.425 2.01054e-16 0)
(0.425 3.49329e-17 0)
(0.425 -2.36454e-16 0)
(0.425 -1.10146e-16 0)
(0.425 2.19307e-16 0)
(0.425 1.49498e-16 0)
(0.425 1.4915e-17 0)
(0.425 -2.1969e-16 0)
(0.425 -2.27499e-16 0)
(0.425 7.79375e-17 0)
(0.425 -1.36894e-18 0)
(0.425 6.66469e-17 0)
(0.425 -4.24856e-15 0)
(0.425 -4.39552e-15 0)
(0.475 -4.49542e-15 0)
(0.475 -4.94428e-15 0)
(0.475 -5.08008e-16 0)
(0.475 5.39534e-17 0)
(0.475 2.46781e-18 0)
(0.475 -1.63248e-16 0)
(0.475 2.11683e-16 0)
(0.475 4.14842e-17 0)
(0.475 -2.68841e-16 0)
(0.475 -1.19613e-16 0)
(0.475 2.36995e-16 0)
(0.475 1.45162e-16 0)
(0.475 2.62059e-17 0)
(0.475 -2.16309e-16 0)
(0.475 -2.37383e-16 0)
(0.475 6.52932e-17 0)
(0.475 1.02234e-17 0)
(0.475 6.96942e-17 0)
(0.475 -4.29586e-15 0)
(0.475 -4.37761e-15 0)
(0.525 -3.9569e-15 0)
(0.525 -4.50333e-15 0)
(0.525 -4.91101e-16 0)
(0.525 7.28154e-17 0)
(0.525 -1.5306e-17 0)
(0.525 -1.47715e-16 0)
(0.525 2.14994e-16 0)
(0.525 4.15118e-17 0)
(0.525 -2.86744e-16 0)
(0.525 -1.23231e-16 0)
(0.525 2.42765e-16 0)
(0.525 1.29883e-16 0)
(0.525 3.95682e-17 0)
(0.525 -2.03943e-16 0)
(0.525 -2.39939e-16 0)
(0.525 5.54614e-17 0)
(0.525 1.72156e-17 0)
(0.525 7.15347e-17 0)
(0.525 -4.13098e-15 0)
(0.525 -4.14184e-15 0)
(0.575 -3.24452e-15 0)
(0.575 -3.86334e-15 0)
(0.575 -4.49835e-16 0)
(0.575 8.39648e-17 0)
(0.575 -3.25721e-17 0)
(0.575 -1.22815e-16 0)
(0.575 2.11093e-16 0)
(0.575 4.10279e-17 0)
(0.575 -2.95383e-16 0)
(0.575 -1.23126e-16 0)
(0.575 2.39401e-16 0)
(0.575 1.10639e-16 0)
(0.575 4.70455e-17 0)
(0.575 -1.86629e-16 0)
(0.575 -2.26491e-16 0)
(0.575 4.43936e-17 0)
(0.575 1.95724e-17 0)
(0.575 7.40034e-17 0)
(0.575 -3.77932e-15 0)
(0.575 -3.71481e-15 0)
(0.625 -2.43462e-15 0)
(0.625 -3.09685e-15 0)
(0.625 -3.89103e-16 0)
(0.625 9.15862e-17 0)
(0.625 -5.53413e-17 0)
(0.625 -9.2049e-17 0)
(0.625 1.97694e-16 0)
(0.625 4.92682e-17 0)
(0.625 -2.86074e-16 0)
(0.625 -1.31198e-16 0)
(0.625 2.24112e-16 0)
(0.625 1.00604e-16 0)
(0.625 4.84322e-17 0)
(0.625 -1.71422e-16 0)
(0.625 -1.95471e-16 0)
(0.625 3.15861e-17 0)
(0.625 1.68603e-17 0)
(0.625 7.65407e-17 0)
(0.625 -3.27573e-15 0)
(0.625 -3.14452e-15 0)
(0.675 -1.60897e-15 0)
(0.675 -2.2873e-15 0)
(0.675 -3.23073e-16 0)
(0.675 1.01992e-16 0)
(0.675 -7.70956e-17 0)
(0.675 -5.32052e-17 0)
(0.675 1.72744e-16 0)
(0.675 5.33235e-17 0)
(0.675 -2.60213e-16 0)
(0.675 -1.31635e-16 0)
(0.675 1.98584e-16 0)
(0.675 8.53645e-17 0)
(0.675 4.1368e-17 0)
(0.675 -1.61535e-16 0)
(0.675 -1.49546e-16 0)
(0.675 2.80224e-17 0)
(0.675 1.04492e-17 0)
(0.675 7.29014e-17 0)
(0.675 -2.66916e-15 0)
(0.675 -2.49328e-15 0)
(0.725 -8.59153e-16 0)
(0.725 -1.51893e-15 0)
(0.725 -2.55465e-16 0)
(0.725 1.06832e-16 0)
(0.725 -8.3744e-17 0)
(0.725 -2.01515e-17 0)
(0.725 1.33649e-16 0)
(0.725 5.24927e-17 0)
(0.725 -2.15596e-16 0)
(0.725 -1.25797e-16 0)
(0.725 1.67299e-16 0)
(0.725 6.20418e-17 0)
(0.725 3.22885e-17 0)
(0.725 -1.40618e-16 0)
(0.725 -1.04089e-16 0)
(0.725 2.29693e-17 0)
(0.725 3.00429e-18 0)
(0.725 6.34064e-17 0)
(0.725 -2.02744e-15 0)
(0.725 -1.82022e-15 0)
(0.775 -2.57206e-16 0)
(0.775 -8.69856e-16 0)
(0.775 -1.87093e-16 0)
(0.775 9.78688e-17 0)
(0.775 -8.2131e-17 0)
(0.775 7.89345e-18 0)
(0.775 9.10133e-17 0)
(0.775 3.63829e-17 0)
(0.775 -1.64375e-16 0)
(0.775 -1.02599e-16 0)
(0.775 1.30585e-16 0)
(0.775 4.15056e-17 0)
(0.775 2.13665e-17 0)
(0.775 -1.13225e-16 0)
(0.775 -5.8307e-17 0)
(0.775 1.94477e-17 0)
(0.775 -6.27511e-18 0)
(0.775 4.951e-17 0)
(0.775 -1.40469e-15 0)
(0.775 -1.18445e-15 0)
(0.825 1.4001e-16 0)
(0.825 -3.88237e-16 0)
(0.825 -1.28826e-16 0)
(0.825 7.12279e-17 0)
(0.825 -7.33466e-17 0)
(0.825 3.40088e-17 0)
(0.825 5.35721e-17 0)
(0.825 1.57367e-17 0)
(0.825 -1.20495e-16 0)
(0.825 -6.41861e-17 0)
(0.825 9.01961e-17 0)
(0.825 2.48468e-17 0)
(0.825 1.24278e-17 0)
(0.825 -8.36437e-17 0)
(0.825 -1.94592e-17 0)
(0.825 1.12115e-17 0)
(0.825 -1.40556e-17 0)
(0.825 3.41836e-17 0)
(0.825 -8.50665e-16 0)
(0.825 -6.46288e-16 0)
(0.875 2.92156e-16 0)
(0.875 -9.3292e-17 0)
(0.875 -8.02891e-17 0)
(0.875 4.00281e-17 0)
(0.875 -5.20977e-17 0)
(0.875 4.20719e-17 0)
(0.875 2.4081e-17 0)
(0.875 1.24121e-18 0)
(0.875 -7.68219e-17 0)
(0.875 -3.20565e-17 0)
(0.875 5.45158e-17 0)
(0.875 1.24346e-17 0)
(0.875 7.46547e-18 0)
(0.875 -4.66554e-17 0)
(0.875 -1.86172e-18 0)
(0.875 -3.11424e-18 0)
(0.875 -1.53548e-17 0)
(0.875 2.61e-17 0)
(0.875 -4.15422e-16 0)
(0.875 -2.53619e-16 0)
(0.925 2.46104e-16 0)
(0.925 1.9431e-17 0)
(0.925 -4.02636e-17 0)
(0.925 1.84241e-17 0)
(0.925 -3.04405e-17 0)
(0.925 3.05673e-17 0)
(0.925 1.06717e-17 0)
(0.925 -4.62345e-18 0)
(0.925 -4.19307e-17 0)
(0.925 -1.35844e-17 0)
(0.925 3.18854e-17 0)
(0.925 3.71058e-18 0)
(0.925 8.24278e-18 0)
(0.925 -1.9177e-17 0)
(0.925 3.87005e-19 0)
(0.925 -6.99901e-18 0)
(0.925 -9.3528e-18 0)
(0.925 1.37353e-17 0)
(0.925 -1.36414e-16 0)
(0.925 -3.50476e-17 0)
(0.975 9.21789e-17 0)
(0.975 1.9269e-17 0)
(0.975 -1.20951e-17 0)
(0.975 4.45301e-18 0)
(0.975 -9.59767e-18 0)
(0.975 1.11509e-17 0)
(0.975 2.59073e-19 0)
(0.975 -1.91008e-18 0)
(0.975 -1.14918e-17 0)
(0.975 -2.98895e-18 0)
(0.975 9.78727e-18 0)
(0.975 -4.76877e-19 0)
(0.975 1.94634e-18 0)
(0.975 -3.28777e-18 0)
(0.975 -1.50696e-18 0)
(0.975 -4.59078e-18 0)
(0.975 -5.28051e-19 0)
(0.975 2.69132e-18 0)
(0.975 -1.72461e-17 0)
(0.975 1.34087e-17 0)
)
;

boundaryField
{
    top
    {
        type            fixedValue;
        value           uniform (1 0 0);
    }
    bottom
    {
        type            fixedValue;
        value           uniform (0 0 0);
    }
    inlet
    {
        type            zeroGradient;
    }
    outlet
    {
        type            zeroGradient;
    }
    frontAndBack
    {
        type            empty;
    }
}


// ************************************************************************* //
