/*--------------------------------*- C++ -*----------------------------------*\
| =========                 |                                                 |
| \\      /  F ield         | OpenFOAM: The Open Source CFD Toolbox           |
|  \\    /   O peration     | Version:  4.1                                   |
|   \\  /    A nd           | Web:      www.OpenFOAM.org                      |
|    \\/     M anipulation  |                                                 |
\*---------------------------------------------------------------------------*/
FoamFile
{
    version     2.0;
    format      ascii;
    class       surfaceScalarField;
    location    "2.5";
    object      phi;
}
// * * * * * * * * * * * * * * * * * * * * * * * * * * * * * * * * * * * * * //

dimensions      [0 3 -1 0 0 0 0];

internalField   nonuniform List<scalar> 
760
(
-1.91641e-05
8.00189e-13
-1.91641e-05
1.82366e-13
-1.91641e-05
1.03263e-12
-1.91641e-05
-2.09739e-13
-1.91641e-05
1.29387e-12
-1.91641e-05
-5.01899e-13
-1.91641e-05
1.47126e-12
-1.91641e-05
-7.09339e-13
-1.91641e-05
1.51106e-12
-1.91641e-05
-8.34989e-13
-1.91641e-05
1.39342e-12
-1.91641e-05
-8.41783e-13
-1.91641e-05
1.13417e-12
-1.91641e-05
-7.47516e-13
-1.91641e-05
7.72121e-13
-1.91641e-05
-5.63115e-13
-1.91641e-05
3.59202e-13
-1.91641e-05
-3.63468e-13
-1.91641e-05
-5.72607e-14
2.75162e-14
-5.11593e-05
1.01501e-12
-5.11593e-05
-3.71298e-13
-5.11594e-05
-5.09016e-14
-5.11593e-05
-2.07247e-12
-5.11594e-05
-4.97984e-13
-5.11593e-05
-3.17511e-12
-5.11594e-05
-7.33804e-13
-5.11593e-05
-3.83735e-12
-5.11594e-05
-8.38665e-13
-5.11593e-05
-4.10839e-12
-5.11594e-05
-8.86155e-13
-5.11594e-05
-3.93839e-12
-5.11594e-05
-8.84098e-13
-5.11594e-05
-3.40836e-12
-5.11594e-05
-8.37574e-13
-5.11594e-05
-2.58545e-12
-5.11594e-05
-7.17419e-13
-5.11594e-05
-1.69015e-12
-5.11594e-05
-6.53711e-13
1.47417e-14
-7.68218e-05
1.11233e-12
-7.68218e-05
-7.70586e-13
-7.68218e-05
-1.71994e-12
-7.68218e-05
-3.87019e-12
-7.68218e-05
-3.07488e-12
-7.68218e-05
-5.74609e-12
-7.68218e-05
-3.83114e-12
-7.68218e-05
-6.80898e-12
-7.68218e-05
-4.08875e-12
-7.68218e-05
-7.19521e-12
-7.68218e-05
-3.98694e-12
-7.68218e-05
-6.84785e-12
-7.68218e-05
-3.56189e-12
-7.68218e-05
-5.91587e-12
-7.68218e-05
-2.89262e-12
-7.68218e-05
-4.5095e-12
-7.68218e-05
-1.9732e-12
-7.68218e-05
-3.02263e-12
-7.68218e-05
-1.22518e-12
2.30084e-13
-9.61515e-05
1.39964e-12
-9.61515e-05
-7.85344e-13
-9.61515e-05
-3.18853e-12
-9.61515e-05
-5.21611e-12
-9.61515e-05
-5.35221e-12
-9.61515e-05
-7.77316e-12
-9.61515e-05
-6.56257e-12
-9.61515e-05
-9.18353e-12
-9.61515e-05
-6.94365e-12
-9.61515e-05
-9.68955e-12
-9.61515e-05
-6.70151e-12
-9.61515e-05
-9.22208e-12
-9.61515e-05
-5.89111e-12
-9.61515e-05
-7.99261e-12
-9.61515e-05
-4.66875e-12
-9.61515e-05
-6.12991e-12
-9.61515e-05
-3.01656e-12
-9.61515e-05
-4.23116e-12
-9.61515e-05
-1.67546e-12
5.90272e-13
-0.000109148
1.81856e-12
-0.000109148
-5.42235e-13
-0.000109148
-4.40673e-12
-0.000109148
-6.16802e-12
-0.000109148
-7.24706e-12
-0.000109148
-9.28596e-12
-0.000109148
-8.82723e-12
-0.000109148
-1.0972e-11
-0.000109148
-9.29941e-12
-0.000109148
-1.15833e-11
-0.000109148
-8.93223e-12
-0.000109148
-1.10368e-11
-0.000109148
-7.79045e-12
-0.000109148
-9.59853e-12
-0.000109148
-6.10846e-12
-0.000109148
-7.39628e-12
-0.000109148
-3.81984e-12
-0.000109148
-5.2471e-12
-0.000109148
-1.99398e-12
1.06017e-12
-0.000115812
2.27404e-12
-0.000115812
-2.06603e-13
-0.000115812
-5.43091e-12
-0.000115812
-6.87186e-12
-0.000115812
-8.84496e-12
-0.000115812
-1.0438e-11
-0.000115812
-1.07341e-11
-0.000115812
-1.2332e-11
-0.000115812
-1.12789e-11
-0.000115812
-1.30228e-11
-0.000115812
-1.0803e-11
-0.000115812
-1.24169e-11
-0.000115812
-9.37487e-12
-0.000115812
-1.0825e-11
-0.000115812
-7.30774e-12
-0.000115812
-8.36524e-12
-0.000115812
-4.45775e-12
-0.000115812
-6.07224e-12
-0.000115812
-2.22399e-12
1.55617e-12
-0.000116144
2.69448e-12
-0.000116144
1.05664e-13
-0.000116144
-6.27743e-12
-0.000116144
-7.40431e-12
-0.000116144
-1.01702e-11
-0.000116144
-1.12996e-11
-0.000116144
-1.2316e-11
-0.000116144
-1.33321e-11
-0.000116144
-1.29204e-11
-0.000116144
-1.4069e-11
-0.000116144
-1.23534e-11
-0.000116144
-1.34115e-11
-0.000116144
-1.06832e-11
-0.000116144
-1.17042e-11
-0.000116144
-8.29919e-12
-0.000116144
-9.05478e-12
-0.000116144
-4.96111e-12
-0.000116144
-6.68994e-12
-0.000116144
-2.38687e-12
2.00381e-12
-0.000110142
3.02906e-12
-0.000110142
3.25248e-13
-0.000110142
-6.94142e-12
-0.000110142
-7.79094e-12
-0.000110142
-1.12123e-11
-0.000110142
-1.18865e-11
-0.000110142
-1.35609e-11
-0.000110142
-1.39866e-11
-0.000110142
-1.42129e-11
-0.000110142
-1.47333e-11
-0.000110142
-1.35733e-11
-0.000110142
-1.40291e-11
-0.000110142
-1.17085e-11
-0.000110142
-1.22393e-11
-0.000110142
-9.07671e-12
-0.000110142
-9.46694e-12
-0.000110142
-5.33433e-12
-0.000110142
-7.08214e-12
-0.000110142
-2.48755e-12
2.34391e-12
-9.78077e-05
3.24215e-12
-9.78077e-05
4.1479e-13
-9.78077e-05
-7.41802e-12
-9.78077e-05
-8.03235e-12
-9.78077e-05
-1.19559e-11
-9.78077e-05
-1.21938e-11
-9.78077e-05
-1.44482e-11
-9.78077e-05
-1.42922e-11
-9.78077e-05
-1.51329e-11
-9.78077e-05
-1.50146e-11
-9.78077e-05
-1.44386e-11
-9.78077e-05
-1.42705e-11
-9.78077e-05
-1.243e-11
-9.78077e-05
-1.2432e-11
-9.78077e-05
-9.62076e-12
-9.78077e-05
-9.60653e-12
-9.78077e-05
-5.57223e-12
-9.78077e-05
-7.24117e-12
-9.78077e-05
-2.52097e-12
2.53458e-12
-7.91405e-05
3.30944e-12
-7.91405e-05
3.60915e-13
-7.91405e-05
-7.70961e-12
-7.91405e-05
-8.11849e-12
-7.91405e-05
-1.23899e-11
-7.91405e-05
-1.22117e-11
-7.91405e-05
-1.49586e-11
-7.91405e-05
-1.42434e-11
-7.91405e-05
-1.56562e-11
-7.91405e-05
-1.49124e-11
-7.91405e-05
-1.49225e-11
-7.91405e-05
-1.4139e-11
-7.91405e-05
-1.28227e-11
-7.91405e-05
-1.22889e-11
-7.91405e-05
-9.90614e-12
-7.91405e-05
-9.48253e-12
-7.91405e-05
-5.6647e-12
-7.91405e-05
-7.16941e-12
-7.91405e-05
-2.47533e-12
2.55865e-12
-5.41405e-05
3.21683e-12
-5.41405e-05
1.69793e-13
-5.41405e-05
-7.82577e-12
-5.41405e-05
-8.03875e-12
-5.41405e-05
-1.25111e-11
-5.41405e-05
-1.19362e-11
-5.41405e-05
-1.50808e-11
-5.41405e-05
-1.38432e-11
-5.41405e-05
-1.57658e-11
-5.41405e-05
-1.44357e-11
-5.41405e-05
-1.5005e-11
-5.41405e-05
-1.36468e-11
-5.41405e-05
-1.28665e-11
-5.41405e-05
-1.18254e-11
-5.41405e-05
-9.91162e-12
-5.41405e-05
-9.10926e-12
-5.41405e-05
-5.6032e-12
-5.41405e-05
-6.87908e-12
-5.41405e-05
-2.33944e-12
2.42481e-12
-2.28077e-05
2.96179e-12
-2.28077e-05
-1.34508e-13
-2.28077e-05
-7.77663e-12
-2.28077e-05
-7.78682e-12
-2.28077e-05
-1.23214e-11
-2.28077e-05
-1.13742e-11
-2.28077e-05
-1.48111e-11
-2.28077e-05
-1.31071e-11
-2.28077e-05
-1.54545e-11
-2.28077e-05
-1.3606e-11
-2.28077e-05
-1.4677e-11
-2.28077e-05
-1.28174e-11
-2.28077e-05
-1.25523e-11
-2.28077e-05
-1.10667e-11
-2.28077e-05
-9.62703e-12
-2.28077e-05
-8.50604e-12
-2.28077e-05
-5.38586e-12
-2.28077e-05
-6.3907e-12
-2.28077e-05
-2.11124e-12
2.16461e-12
1.48579e-05
2.55637e-12
1.48579e-05
-5.10214e-13
1.48579e-05
-7.56265e-12
1.48579e-05
-7.36056e-12
1.48579e-05
-1.18205e-11
1.48579e-05
-1.05418e-11
1.48579e-05
-1.41488e-11
1.48579e-05
-1.20612e-11
1.48579e-05
-1.47224e-11
1.48579e-05
-1.24553e-11
1.48579e-05
-1.39408e-11
1.48579e-05
-1.16837e-11
1.48579e-05
-1.18836e-11
1.48579e-05
-1.00449e-11
1.48579e-05
-9.05768e-12
1.48579e-05
-7.69585e-12
1.48579e-05
-5.0207e-12
1.48579e-05
-5.73064e-12
1.48579e-05
-1.80503e-12
1.82503e-12
5.88563e-05
2.03199e-12
5.88563e-05
-8.97827e-13
5.88563e-05
-7.16317e-12
5.88563e-05
-6.75665e-12
5.88563e-05
-1.09966e-11
5.88563e-05
-9.45816e-12
5.88563e-05
-1.30886e-11
5.88563e-05
-1.07344e-11
5.88563e-05
-1.35714e-11
5.88563e-05
-1.10178e-11
5.88563e-05
-1.28059e-11
5.88563e-05
-1.02806e-11
5.88563e-05
-1.08751e-11
5.88563e-05
-8.7936e-12
5.88563e-05
-8.22496e-12
5.88563e-05
-6.70285e-12
5.88563e-05
-4.52658e-12
5.88563e-05
-4.92773e-12
5.88563e-05
-1.45479e-12
1.45827e-12
0.000109188
1.43852e-12
0.000109188
-1.22616e-12
0.000109188
-6.53563e-12
0.000109188
-5.96798e-12
0.000109188
-9.82485e-12
0.000109188
-8.13907e-12
0.000109188
-1.16178e-11
0.000109188
-9.15092e-12
0.000109188
-1.20016e-11
0.000109188
-9.3221e-12
0.000109188
-1.12847e-11
0.000109188
-8.63825e-12
0.000109188
-9.54771e-12
0.000109188
-7.34094e-12
0.000109188
-7.16101e-12
0.000109188
-5.54878e-12
0.000109188
-3.92792e-12
0.000109188
-4.00851e-12
0.000109188
-1.10805e-12
1.11327e-12
0.000165852
8.51011e-13
0.000165852
-1.41045e-12
0.000165852
-5.60918e-12
0.000165852
-4.96326e-12
0.000165852
-8.24982e-12
0.000165852
-6.5668e-12
0.000165852
-9.69191e-12
0.000165852
-7.29365e-12
0.000165852
-9.98096e-12
0.000165852
-7.35348e-12
0.000165852
-9.35935e-12
0.000165852
-6.74592e-12
0.000165852
-7.89643e-12
0.000165852
-5.67851e-12
0.000165852
-5.87905e-12
0.000165852
-4.2313e-12
0.000165852
-3.23212e-12
0.000165852
-2.98222e-12
0.000165852
-8.03791e-13
8.31669e-13
0.000228848
3.61191e-13
0.000228848
-1.35751e-12
0.000228848
-4.2946e-12
0.000228848
-3.6664e-12
0.000228848
-6.18068e-12
0.000228848
-4.65544e-12
0.000228848
-7.21602e-12
0.000228848
-5.06194e-12
0.000228848
-7.4152e-12
0.000228848
-5.00879e-12
0.000228848
-6.9434e-12
0.000228848
-4.50882e-12
0.000228848
-5.84813e-12
0.000228848
-3.72454e-12
0.000228848
-4.32928e-12
0.000228848
-2.69537e-12
0.000228848
-2.39226e-12
0.000228848
-1.82319e-12
0.000228848
-5.34088e-13
6.54699e-13
0.000298178
-1.02015e-14
0.000298178
-1.08527e-12
0.000298178
-2.67713e-12
0.000298178
-2.16499e-12
0.000298178
-3.73514e-12
0.000298178
-2.52045e-12
0.000298178
-4.31575e-12
0.000298178
-2.57797e-12
0.000298178
-4.41686e-12
0.000298178
-2.40954e-12
0.000298178
-4.12599e-12
0.000298178
-2.03826e-12
0.000298178
-3.46191e-12
0.000298178
-1.56956e-12
0.000298178
-2.54014e-12
0.000298178
-1.01251e-12
0.000298178
-1.3909e-12
0.000298178
-5.83669e-13
0.000298178
-2.55371e-13
5.92678e-13
0.000373841
-1.10897e-13
0.000373841
-4.59817e-13
0.000373841
-7.40468e-13
0.000373841
-3.36466e-13
0.000373841
-8.71172e-13
0.000373841
-5.68064e-15
0.000373841
-9.16838e-13
0.000373841
3.27872e-13
0.000373841
-8.77373e-13
0.000373841
6.06451e-13
0.000373841
-7.75143e-13
0.000373841
8.07435e-13
0.000373841
-5.94363e-13
0.000373841
8.91467e-13
0.000373841
-3.66728e-13
0.000373841
8.77133e-13
0.000373841
-8.82274e-14
0.000373841
7.30619e-13
0.000373841
1.69418e-13
6.62357e-13
0.000455836
0.000455836
0.000455836
0.000455836
0.000455836
0.000455836
0.000455836
0.000455836
0.000455836
0.000455836
0.000455836
0.000455836
0.000455836
0.000455836
0.000455836
0.000455836
0.000455836
0.000455836
0.000455836
)
;

boundaryField
{
    top
    {
        type            calculated;
        value           uniform 0;
    }
    bottom
    {
        type            calculated;
        value           uniform 0;
    }
    inlet
    {
        type            calculated;
        value           nonuniform List<scalar> 
20
(
1.91641e-05
5.11593e-05
7.68218e-05
9.61515e-05
0.000109148
0.000115812
0.000116144
0.000110142
9.78077e-05
7.91405e-05
5.41405e-05
2.28077e-05
-1.48579e-05
-5.88563e-05
-0.000109188
-0.000165852
-0.000228848
-0.000298178
-0.000373841
-0.000455836
)
;
    }
    outlet
    {
        type            calculated;
        value           nonuniform List<scalar> 
20
(
-1.91641e-05
-5.11594e-05
-7.68218e-05
-9.61515e-05
-0.000109148
-0.000115812
-0.000116144
-0.000110142
-9.78077e-05
-7.91405e-05
-5.41405e-05
-2.28077e-05
1.48579e-05
5.88563e-05
0.000109188
0.000165852
0.000228848
0.000298178
0.000373841
0.000455836
)
;
    }
    frontAndBack
    {
        type            empty;
        value           nonuniform 0();
    }
}


// ************************************************************************* //
