/*--------------------------------*- C++ -*----------------------------------*\
| =========                 |                                                 |
| \\      /  F ield         | OpenFOAM: The Open Source CFD Toolbox           |
|  \\    /   O peration     | Version:  4.1                                   |
|   \\  /    A nd           | Web:      www.OpenFOAM.org                      |
|    \\/     M anipulation  |                                                 |
\*---------------------------------------------------------------------------*/
FoamFile
{
    version     2.0;
    format      ascii;
    class       volVectorField;
    location    "2.5";
    object      U;
}
// * * * * * * * * * * * * * * * * * * * * * * * * * * * * * * * * * * * * * //

dimensions      [0 1 -1 0 0 0 0];

internalField   nonuniform List<vector> 
400
(
(-0.383281 1.03924e-10 0)
(-0.383281 -2.1816e-10 0)
(-0.383281 -2.46201e-10 0)
(-0.383281 -6.43254e-10 0)
(-0.383281 -4.85357e-10 0)
(-0.383281 -9.46705e-10 0)
(-0.383281 -6.43111e-10 0)
(-0.383281 -1.13552e-09 0)
(-0.383281 -7.24369e-10 0)
(-0.383281 -1.20554e-09 0)
(-0.383281 -7.37072e-10 0)
(-0.383281 -1.15593e-09 0)
(-0.383281 -6.86287e-10 0)
(-0.383281 -1.00538e-09 0)
(-0.383281 -5.8381e-10 0)
(-0.383281 -7.74438e-10 0)
(-0.383281 -4.38273e-10 0)
(-0.383281 -4.94461e-10 0)
(-0.383281 -2.91798e-10 0)
(-0.383281 -1.32679e-10 0)
(-1.02319 1.03574e-09 0)
(-1.02319 -1.13955e-11 0)
(-1.02319 1.05762e-09 0)
(-1.02319 -8.32701e-10 0)
(-1.02319 1.2789e-09 0)
(-1.02319 -1.39112e-09 0)
(-1.02319 1.45798e-09 0)
(-1.02319 -1.74281e-09 0)
(-1.02319 1.51482e-09 0)
(-1.02319 -1.91207e-09 0)
(-1.02319 1.40308e-09 0)
(-1.02319 -1.84604e-09 0)
(-1.02319 1.13514e-09 0)
(-1.02319 -1.58597e-09 0)
(-1.02319 7.55106e-10 0)
(-1.02319 -1.16708e-09 0)
(-1.02319 3.25147e-10 0)
(-1.02319 -7.08782e-10 0)
(-1.02319 -1.38458e-10 0)
(-1.02319 1.41699e-10 0)
(-1.53644 8.3598e-10 0)
(-1.53644 -8.42278e-10 0)
(-1.53644 -1.42976e-09 0)
(-1.53644 -3.4469e-09 0)
(-1.53644 -2.63389e-09 0)
(-1.53644 -5.0959e-09 0)
(-1.53644 -3.33692e-09 0)
(-1.53644 -6.05577e-09 0)
(-1.53644 -3.6128e-09 0)
(-1.53644 -6.40727e-09 0)
(-1.53644 -3.56534e-09 0)
(-1.53644 -6.10854e-09 0)
(-1.53644 -3.22667e-09 0)
(-1.53644 -5.28346e-09 0)
(-1.53644 -2.66066e-09 0)
(-1.53644 -4.03523e-09 0)
(-1.53644 -1.88013e-09 0)
(-1.53644 -2.67028e-09 0)
(-1.53644 -1.20007e-09 0)
(-1.53644 -7.04863e-11 0)
(-1.92303 1.2806e-09 0)
(-1.92303 -7.20313e-10 0)
(-1.92303 -2.32139e-09 0)
(-1.92303 -4.36931e-09 0)
(-1.92303 -4.00352e-09 0)
(-1.92303 -6.51107e-09 0)
(-1.92303 -4.93511e-09 0)
(-1.92303 -7.70543e-09 0)
(-1.92303 -5.23001e-09 0)
(-1.92303 -8.14032e-09 0)
(-1.92303 -5.06085e-09 0)
(-1.92303 -7.75008e-09 0)
(-1.92303 -4.471e-09 0)
(-1.92303 -6.71009e-09 0)
(-1.92303 -3.57135e-09 0)
(-1.92303 -5.1363e-09 0)
(-1.92303 -2.34937e-09 0)
(-1.92303 -3.50611e-09 0)
(-1.92303 -1.38007e-09 0)
(-1.92303 4.40759e-10 0)
(-2.18297 1.62072e-09 0)
(-2.18297 -6.37178e-10 0)
(-2.18297 -3.78165e-09 0)
(-2.18297 -5.63777e-09 0)
(-2.18297 -6.27521e-09 0)
(-2.18297 -8.45803e-09 0)
(-2.18297 -7.66546e-09 0)
(-2.18297 -9.9981e-09 0)
(-2.18297 -8.08883e-09 0)
(-2.18297 -1.05572e-08 0)
(-2.18297 -7.78354e-09 0)
(-2.18297 -1.00585e-08 0)
(-2.18297 -6.8093e-09 0)
(-2.18297 -8.73916e-09 0)
(-2.18297 -5.35938e-09 0)
(-2.18297 -6.72701e-09 0)
(-2.18297 -3.39551e-09 0)
(-2.18297 -4.71969e-09 0)
(-2.18297 -1.82525e-09 0)
(-2.18297 8.20469e-10 0)
(-2.31625 2.07162e-09 0)
(-2.31625 -3.3836e-10 0)
(-2.31625 -4.91451e-09 0)
(-2.31625 -6.47593e-09 0)
(-2.31625 -8.03548e-09 0)
(-2.31625 -9.80911e-09 0)
(-2.31625 -9.76586e-09 0)
(-2.31625 -1.15934e-08 0)
(-2.31625 -1.02702e-08 0)
(-2.31625 -1.22454e-08 0)
(-2.31625 -9.84619e-09 0)
(-2.31625 -1.16754e-08 0)
(-2.31625 -8.56053e-09 0)
(-2.31625 -1.01714e-08 0)
(-2.31625 -6.68541e-09 0)
(-2.31625 -7.85551e-09 0)
(-2.31625 -4.11842e-09 0)
(-2.31625 -5.64929e-09 0)
(-2.31625 -2.09658e-09 0)
(-2.31625 1.31958e-09 0)
(-2.32287 2.52332e-09 0)
(-2.32287 -2.8498e-12 0)
(-2.32287 -5.84848e-09 0)
(-2.32287 -7.09467e-09 0)
(-2.32287 -9.49032e-09 0)
(-2.32287 -1.08191e-08 0)
(-2.32287 -1.14989e-08 0)
(-2.32287 -1.27757e-08 0)
(-2.32287 -1.20665e-08 0)
(-2.32287 -1.34894e-08 0)
(-2.32287 -1.15416e-08 0)
(-2.32287 -1.28623e-08 0)
(-2.32287 -9.99215e-09 0)
(-2.32287 -1.12224e-08 0)
(-2.32287 -7.76861e-09 0)
(-2.32287 -8.68062e-09 0)
(-2.32287 -4.67895e-09 0)
(-2.32287 -6.36961e-09 0)
(-2.32287 -2.28446e-09 0)
(-2.32287 1.81188e-09 0)
(-2.20284 2.91277e-09 0)
(-2.20284 2.7008e-10 0)
(-2.20284 -6.60565e-09 0)
(-2.20284 -7.56071e-09 0)
(-2.20284 -1.06766e-08 0)
(-2.20284 -1.15542e-08 0)
(-2.20284 -1.29149e-08 0)
(-2.20284 -1.3615e-08 0)
(-2.20284 -1.35357e-08 0)
(-2.20284 -1.43566e-08 0)
(-2.20284 -1.29285e-08 0)
(-2.20284 -1.36789e-08 0)
(-2.20284 -1.11602e-08 0)
(-2.20284 -1.19379e-08 0)
(-2.20284 -8.65437e-09 0)
(-2.20284 -9.23647e-09 0)
(-2.20284 -5.11694e-09 0)
(-2.20284 -6.87964e-09 0)
(-2.20284 -2.41351e-09 0)
(-2.20284 2.21629e-09 0)
(-1.95615 3.19675e-09 0)
(-1.95615 4.31653e-10 0)
(-1.95615 -7.17112e-09 0)
(-1.95615 -7.87708e-09 0)
(-1.95615 -1.1564e-08 0)
(-1.95615 -1.20051e-08 0)
(-1.95615 -1.39746e-08 0)
(-1.95615 -1.40988e-08 0)
(-1.95615 -1.4635e-08 0)
(-1.95615 -1.48328e-08 0)
(-1.95615 -1.39646e-08 0)
(-1.95615 -1.4111e-08 0)
(-1.95615 -1.20279e-08 0)
(-1.95615 -1.23034e-08 0)
(-1.95615 -9.31158e-09 0)
(-1.95615 -9.51207e-09 0)
(-1.95615 -5.41922e-09 0)
(-1.95615 -7.15643e-09 0)
(-1.95615 -2.47793e-09 0)
(-1.95615 2.49016e-09 0)
(-1.58281 3.34419e-09 0)
(-1.58281 4.54379e-10 0)
(-1.58281 -7.54809e-09 0)
(-1.58281 -8.04251e-09 0)
(-1.58281 -1.21468e-08 0)
(-1.58281 -1.217e-08 0)
(-1.58281 -1.46677e-08 0)
(-1.58281 -1.42298e-08 0)
(-1.58281 -1.53514e-08 0)
(-1.58281 -1.49249e-08 0)
(-1.58281 -1.46349e-08 0)
(-1.58281 -1.41682e-08 0)
(-1.58281 -1.25819e-08 0)
(-1.58281 -1.23299e-08 0)
(-1.58281 -9.72523e-09 0)
(-1.58281 -9.5206e-09 0)
(-1.58281 -5.58326e-09 0)
(-1.58281 -7.20163e-09 0)
(-1.58281 -2.47171e-09 0)
(-1.58281 2.60021e-09 0)
(-1.08281 3.3349e-09 0)
(-1.08281 3.33483e-10 0)
(-1.08281 -7.74442e-09 0)
(-1.08281 -8.04731e-09 0)
(-1.08281 -1.24195e-08 0)
(-1.08281 -1.20432e-08 0)
(-1.08281 -1.49803e-08 0)
(-1.08281 -1.40083e-08 0)
(-1.08281 -1.56652e-08 0)
(-1.08281 -1.46389e-08 0)
(-1.08281 -1.49167e-08 0)
(-1.08281 -1.38601e-08 0)
(-1.08281 -1.27998e-08 0)
(-1.08281 -1.203e-08 0)
(-1.08281 -9.872e-09 0)
(-1.08281 -9.27495e-09 0)
(-1.08281 -5.59967e-09 0)
(-1.08281 -7.02321e-09 0)
(-1.08281 -2.38277e-09 0)
(-1.08281 2.54209e-09 0)
(-0.456154 3.15945e-09 0)
(-0.456154 8.29211e-11 0)
(-0.456154 -7.77242e-09 0)
(-0.456154 -7.88334e-09 0)
(-0.456154 -1.23831e-08 0)
(-0.456154 -1.16266e-08 0)
(-0.456154 -1.49061e-08 0)
(-0.456154 -1.34438e-08 0)
(-0.456154 -1.55651e-08 0)
(-0.456154 -1.39903e-08 0)
(-0.456154 -1.47956e-08 0)
(-0.456154 -1.32046e-08 0)
(-0.456154 -1.26669e-08 0)
(-0.456154 -1.14239e-08 0)
(-0.456154 -9.73538e-09 0)
(-0.456154 -8.7918e-09 0)
(-0.456154 -5.46255e-09 0)
(-0.456154 -6.63733e-09 0)
(-0.456154 -2.20317e-09 0)
(-0.456154 2.3368e-09 0)
(0.297158 2.8214e-09 0)
(0.297158 -2.65269e-10 0)
(0.297158 -7.63955e-09 0)
(0.297158 -7.54657e-09 0)
(0.297158 -1.2039e-08 0)
(0.297158 -1.09316e-08 0)
(0.297158 -1.44423e-08 0)
(0.297158 -1.25566e-08 0)
(0.297158 -1.50461e-08 0)
(0.297158 -1.30051e-08 0)
(0.297158 -1.42662e-08 0)
(0.297158 -1.22289e-08 0)
(0.297158 -1.2178e-08 0)
(0.297158 -1.05395e-08 0)
(0.297158 -9.31054e-09 0)
(0.297158 -8.09108e-09 0)
(0.297158 -5.17309e-09 0)
(0.297158 -6.06648e-09 0)
(0.297158 -1.93716e-09 0)
(0.297158 2.02555e-09 0)
(1.17713 2.34657e-09 0)
(1.17713 -6.56437e-10 0)
(1.17713 -7.33159e-09 0)
(1.17713 -7.02759e-09 0)
(1.17713 -1.13737e-08 0)
(1.17713 -9.96694e-09 0)
(1.17713 -1.35767e-08 0)
(1.17713 -1.1364e-08 0)
(1.17713 -1.40992e-08 0)
(1.17713 -1.17058e-08 0)
(1.17713 -1.33246e-08 0)
(1.17713 -1.09569e-08 0)
(1.17713 -1.13336e-08 0)
(1.17713 -9.40087e-09 0)
(1.17713 -8.60378e-09 0)
(1.17713 -7.18965e-09 0)
(1.17713 -4.74023e-09 0)
(1.17713 -5.33433e-09 0)
(1.17713 -1.60579e-09 0)
(1.17713 1.66018e-09 0)
(2.18375 1.75949e-09 0)
(2.18375 -1.03742e-09 0)
(2.18375 -6.8364e-09 0)
(2.18375 -6.34435e-09 0)
(2.18375 -1.03943e-08 0)
(2.18375 -8.77998e-09 0)
(2.18375 -1.23285e-08 0)
(2.18375 -9.92619e-09 0)
(2.18375 -1.27538e-08 0)
(2.18375 -1.01575e-08 0)
(2.18375 -1.20081e-08 0)
(2.18375 -9.45165e-09 0)
(2.18375 -1.01733e-08 0)
(2.18375 -8.06437e-09 0)
(2.18375 -7.6581e-09 0)
(2.18375 -6.12777e-09 0)
(2.18375 -4.19532e-09 0)
(2.18375 -4.47855e-09 0)
(2.18375 -1.25508e-09 0)
(2.18375 1.29387e-09 0)
(3.31703 1.14601e-09 0)
(3.31703 -1.30927e-09 0)
(3.31703 -6.06589e-09 0)
(3.31703 -5.44276e-09 0)
(3.31703 -9.01759e-09 0)
(3.31703 -7.32384e-09 0)
(3.31703 -1.06204e-08 0)
(3.31703 -8.19424e-09 0)
(3.31703 -1.09442e-08 0)
(3.31703 -8.31368e-09 0)
(3.31703 -1.02678e-08 0)
(3.31703 -7.67353e-09 0)
(3.31703 -8.66644e-09 0)
(3.31703 -6.49812e-09 0)
(3.31703 -6.46766e-09 0)
(3.31703 -4.88521e-09 0)
(3.31703 -3.53726e-09 0)
(3.31703 -3.49901e-09 0)
(3.31703 -9.21538e-10 0)
(3.31703 9.72788e-10 0)
(4.57697 6.63818e-10 0)
(4.57697 -1.2886e-09 0)
(4.57697 -4.80417e-09 0)
(4.57697 -4.09776e-09 0)
(4.57697 -6.97829e-09 0)
(4.57697 -5.31104e-09 0)
(4.57697 -8.15551e-09 0)
(4.57697 -5.8351e-09 0)
(4.57697 -8.37056e-09 0)
(4.57697 -5.82935e-09 0)
(4.57697 -7.82678e-09 0)
(4.57697 -5.29856e-09 0)
(4.57697 -6.57875e-09 0)
(4.57697 -4.42424e-09 0)
(4.57697 -4.86342e-09 0)
(4.57697 -3.25516e-09 0)
(4.57697 -2.64548e-09 0)
(4.57697 -2.27556e-09 0)
(4.57697 -5.82904e-10 0)
(4.57697 7.7807e-10 0)
(5.96356 -1.21058e-10 0)
(5.96356 -1.60222e-09 0)
(5.96356 -3.96373e-09 0)
(5.96356 -3.58604e-09 0)
(5.96356 -5.65748e-09 0)
(5.96356 -4.51314e-09 0)
(5.96356 -6.6062e-09 0)
(5.96356 -4.9033e-09 0)
(5.96356 -6.8097e-09 0)
(5.96356 -4.84096e-09 0)
(5.96356 -6.39694e-09 0)
(5.96356 -4.34681e-09 0)
(5.96356 -5.41597e-09 0)
(5.96356 -3.56811e-09 0)
(5.96356 -4.03685e-09 0)
(5.96356 -2.55284e-09 0)
(5.96356 -2.31055e-09 0)
(5.96356 -1.63259e-09 0)
(5.96356 -5.9343e-10 0)
(5.96356 4.59479e-10 0)
(7.47681 1.46169e-10 0)
(7.47681 -4.97808e-10 0)
(7.47681 -1.25079e-09 0)
(7.47681 -6.07195e-10 0)
(7.47681 -1.62859e-09 0)
(7.47681 -3.41428e-10 0)
(7.47681 -1.82209e-09 0)
(7.47681 -3.58423e-11 0)
(7.47681 -1.82765e-09 0)
(7.47681 2.48577e-10 0)
(7.47681 -1.68669e-09 0)
(7.47681 4.8638e-10 0)
(7.47681 -1.3785e-09 0)
(7.47681 6.15037e-10 0)
(7.47681 -9.65554e-10 0)
(7.47681 6.70519e-10 0)
(7.47681 -4.28642e-10 0)
(7.47681 5.4647e-10 0)
(7.47681 6.62846e-11 0)
(7.47681 7.49794e-10 0)
(9.11672 -2.78337e-10 0)
(9.11672 -5.40464e-10 0)
(9.11672 -7.97772e-10 0)
(9.11672 -8.42084e-10 0)
(9.11672 -1.09516e-09 0)
(9.11672 -9.96577e-10 0)
(9.11672 -1.27014e-09 0)
(9.11672 -1.04028e-09 0)
(9.11672 -1.31722e-09 0)
(9.11672 -9.87997e-10 0)
(9.11672 -1.24841e-09 0)
(9.11672 -8.49257e-10 0)
(9.11672 -1.07275e-09 0)
(9.11672 -6.54362e-10 0)
(9.11672 -8.17943e-10 0)
(9.11672 -4.21444e-10 0)
(9.11672 -5.01564e-10 0)
(9.11672 -1.99066e-10 0)
(9.11672 -1.46981e-10 0)
(9.11672 1.23743e-10 0)
)
;

boundaryField
{
    top
    {
        type            fixedValue;
        value           uniform (10 0 0);
    }
    bottom
    {
        type            fixedValue;
        value           uniform (0 0 0);
    }
    inlet
    {
        type            zeroGradient;
    }
    outlet
    {
        type            zeroGradient;
    }
    frontAndBack
    {
        type            empty;
    }
}


// ************************************************************************* //
