/*--------------------------------*- C++ -*----------------------------------*\
| =========                 |                                                 |
| \\      /  F ield         | OpenFOAM: The Open Source CFD Toolbox           |
|  \\    /   O peration     | Version:  4.1                                   |
|   \\  /    A nd           | Web:      www.OpenFOAM.org                      |
|    \\/     M anipulation  |                                                 |
\*---------------------------------------------------------------------------*/
FoamFile
{
    version     2.0;
    format      ascii;
    class       surfaceScalarField;
    location    "2.7";
    object      phi;
}
// * * * * * * * * * * * * * * * * * * * * * * * * * * * * * * * * * * * * * //

dimensions      [0 3 -1 0 0 0 0];

internalField   nonuniform List<scalar> 
760
(
-1.91641e-05
2.04926e-13
-1.91641e-05
8.21721e-13
-1.91641e-05
1.96101e-12
-1.91641e-05
1.7892e-12
-1.91641e-05
3.20729e-12
-1.91641e-05
2.92999e-12
-1.91641e-05
4.03049e-12
-1.91641e-05
3.68489e-12
-1.91641e-05
4.40757e-12
-1.91641e-05
4.08631e-12
-1.91641e-05
4.31501e-12
-1.91641e-05
4.10375e-12
-1.91641e-05
3.88857e-12
-1.91641e-05
3.70821e-12
-1.91641e-05
3.0657e-12
-1.91641e-05
3.24427e-12
-1.91641e-05
2.01874e-12
-1.91641e-05
2.13637e-12
-1.91641e-05
1.25902e-12
1.03373e-12
-5.11594e-05
1.24222e-12
-5.11594e-05
2.44705e-12
-5.11594e-05
6.48144e-12
-5.11594e-05
4.43523e-12
-5.11594e-05
9.54024e-12
-5.11594e-05
7.79342e-12
-5.11594e-05
1.10031e-11
-5.11594e-05
1.01059e-11
-5.11594e-05
1.15696e-11
-5.11594e-05
1.12407e-11
-5.11594e-05
1.09544e-11
-5.11594e-05
1.13991e-11
-5.11594e-05
9.46971e-12
-5.11594e-05
1.03527e-11
-5.11594e-05
7.19039e-12
-5.11594e-05
9.01245e-12
-5.11594e-05
4.28039e-12
-5.11594e-05
5.95719e-12
-5.11594e-05
2.89277e-12
2.14836e-12
-7.68219e-05
2.77111e-12
-7.68219e-05
4.61966e-12
-7.68219e-05
1.17268e-11
-7.68219e-05
7.85275e-12
-7.68219e-05
1.64955e-11
-7.68219e-05
1.38986e-11
-7.68219e-05
1.84957e-11
-7.68219e-05
1.79556e-11
-7.68219e-05
1.92406e-11
-7.68219e-05
1.98351e-11
-7.68219e-05
1.80154e-11
-7.68219e-05
2.00492e-11
-7.68219e-05
1.53632e-11
-7.68219e-05
1.81175e-11
-7.68219e-05
1.15222e-11
-7.68219e-05
1.56019e-11
-7.68219e-05
6.66006e-12
-7.68219e-05
1.00966e-11
-7.68219e-05
4.80505e-12
3.18648e-12
-9.61515e-05
4.41184e-12
-9.61515e-05
6.95784e-12
-9.61515e-05
1.6895e-11
-9.61515e-05
1.12402e-11
-9.61515e-05
2.33877e-11
-9.61515e-05
1.97771e-11
-9.61515e-05
2.5997e-11
-9.61515e-05
2.54243e-11
-9.61515e-05
2.69851e-11
-9.61515e-05
2.79415e-11
-9.61515e-05
2.52073e-11
-9.61515e-05
2.81534e-11
-9.61515e-05
2.1421e-11
-9.61515e-05
2.5352e-11
-9.61515e-05
1.60304e-11
-9.61515e-05
2.16891e-11
-9.61515e-05
9.23144e-12
-9.61515e-05
1.38863e-11
-9.61515e-05
6.75365e-12
4.16168e-12
-0.000109148
6.06745e-12
-0.000109148
9.31182e-12
-0.000109148
2.16941e-11
-0.000109148
1.45713e-11
-0.000109148
2.98039e-11
-0.000109148
2.53278e-11
-0.000109148
3.30766e-11
-0.000109148
3.23623e-11
-0.000109148
3.43446e-11
-0.000109148
3.54093e-11
-0.000109148
3.20897e-11
-0.000109148
3.55513e-11
-0.000109148
2.72759e-11
-0.000109148
3.19126e-11
-0.000109148
2.04193e-11
-0.000109148
2.71449e-11
-0.000109148
1.18649e-11
-0.000109148
1.71836e-11
-0.000109148
8.66146e-12
5.05977e-12
-0.000115812
7.61052e-12
-0.000115812
1.1524e-11
-0.000115812
2.58837e-11
-0.000115812
1.76046e-11
-0.000115812
3.54504e-11
-0.000115812
3.01607e-11
-0.000115812
3.93841e-11
-0.000115812
3.83288e-11
-0.000115812
4.09128e-11
-0.000115812
4.17931e-11
-0.000115812
3.82563e-11
-0.000115812
4.1821e-11
-0.000115812
3.25526e-11
-0.000115812
3.74489e-11
-0.000115812
2.43774e-11
-0.000115812
3.16908e-11
-0.000115812
1.43416e-11
-0.000115812
1.98536e-11
-0.000115812
1.03476e-11
5.8483e-12
-0.000116144
8.93388e-12
-0.000116144
1.34976e-11
-0.000116144
2.92869e-11
-0.000116144
2.01966e-11
-0.000116144
4.01032e-11
-0.000116144
3.40485e-11
-0.000116144
4.46433e-11
-0.000116144
4.3065e-11
-0.000116144
4.63756e-11
-0.000116144
4.68256e-11
-0.000116144
4.33962e-11
-0.000116144
4.67081e-11
-0.000116144
3.69626e-11
-0.000116144
4.17449e-11
-0.000116144
2.76727e-11
-0.000116144
3.51511e-11
-0.000116144
1.64827e-11
-0.000116144
2.18276e-11
-0.000116144
1.16789e-11
6.4989e-12
-0.000110142
9.95335e-12
-0.000110142
1.51675e-11
-0.000110142
3.18169e-11
-0.000110142
2.22436e-11
-0.000110142
4.36574e-11
-0.000110142
3.6855e-11
-0.000110142
4.87024e-11
-0.000110142
4.64263e-11
-0.000110142
5.05547e-11
-0.000110142
5.03575e-11
-0.000110142
4.73276e-11
-0.000110142
5.00768e-11
-0.000110142
4.033e-11
-0.000110142
4.46867e-11
-0.000110142
3.0169e-11
-0.000110142
3.74386e-11
-0.000110142
1.81498e-11
-0.000110142
2.31071e-11
-0.000110142
1.25597e-11
6.9891e-12
-9.78078e-05
1.06005e-11
-9.78078e-05
1.64721e-11
-9.78078e-05
3.34315e-11
-9.78078e-05
2.36558e-11
-9.78078e-05
4.60486e-11
-9.78078e-05
3.85016e-11
-9.78078e-05
5.145e-11
-9.78078e-05
4.8338e-11
-9.78078e-05
5.33263e-11
-9.78078e-05
5.23128e-11
-9.78078e-05
4.99236e-11
-9.78078e-05
5.18682e-11
-9.78078e-05
4.25281e-11
-9.78078e-05
4.62252e-11
-9.78078e-05
3.17727e-11
-9.78078e-05
3.85307e-11
-9.78078e-05
1.92222e-11
-9.78078e-05
2.37274e-11
-9.78078e-05
1.2934e-11
7.29483e-12
-7.91406e-05
1.08255e-11
-7.91406e-05
1.73418e-11
-7.91406e-05
3.4125e-11
-7.91406e-05
2.43524e-11
-7.91406e-05
4.72423e-11
-7.91406e-05
3.89549e-11
-7.91406e-05
5.28108e-11
-7.91406e-05
4.87804e-11
-7.91406e-05
5.46152e-11
-7.91406e-05
5.2676e-11
-7.91406e-05
5.11065e-11
-7.91406e-05
5.20873e-11
-7.91406e-05
4.34791e-11
-7.91406e-05
4.63661e-11
-7.91406e-05
3.2431e-11
-7.91406e-05
3.84631e-11
-7.91406e-05
1.96069e-11
-7.91406e-05
2.37429e-11
-7.91406e-05
1.2791e-11
7.39347e-12
-5.41406e-05
1.06025e-11
-5.41406e-05
1.76987e-11
-5.41406e-05
3.3912e-11
-5.41406e-05
2.42676e-11
-5.41406e-05
4.72122e-11
-5.41406e-05
3.82195e-11
-5.41406e-05
5.27311e-11
-5.41406e-05
4.77753e-11
-5.41406e-05
5.43784e-11
-5.41406e-05
5.14794e-11
-5.41406e-05
5.08329e-11
-5.41406e-05
5.07875e-11
-5.41406e-05
4.31447e-11
-5.41406e-05
4.51576e-11
-5.41406e-05
3.21196e-11
-5.41406e-05
3.73155e-11
-5.41406e-05
1.92492e-11
-5.41406e-05
2.32055e-11
-5.41406e-05
1.21632e-11
7.26706e-12
-2.28078e-05
9.93691e-12
-2.28078e-05
1.74658e-11
-2.28078e-05
3.28149e-11
-2.28078e-05
2.33654e-11
-2.28078e-05
4.59326e-11
-2.28078e-05
3.63375e-11
-2.28078e-05
5.11768e-11
-2.28078e-05
4.5383e-11
-2.28078e-05
5.26015e-11
-2.28078e-05
4.87989e-11
-2.28078e-05
4.90908e-11
-2.28078e-05
4.8062e-11
-2.28078e-05
4.15249e-11
-2.28078e-05
4.26832e-11
-2.28078e-05
3.08412e-11
-2.28078e-05
3.51961e-11
-2.28078e-05
1.81459e-11
-2.28078e-05
2.21507e-11
-2.28078e-05
1.11199e-11
6.90692e-12
1.48579e-05
8.8725e-12
1.48579e-05
1.65854e-11
1.48579e-05
3.08555e-11
1.48579e-05
2.16551e-11
1.48579e-05
4.338e-11
1.48579e-05
3.33889e-11
1.48579e-05
4.81394e-11
1.48579e-05
4.1701e-11
1.48579e-05
4.93003e-11
1.48579e-05
4.47516e-11
1.48579e-05
4.59025e-11
1.48579e-05
4.40361e-11
1.48579e-05
3.86592e-11
1.48579e-05
3.90567e-11
1.48579e-05
2.86262e-11
1.48579e-05
3.22237e-11
1.48579e-05
1.6357e-11
1.48579e-05
2.05931e-11
1.48579e-05
9.75535e-12
6.31776e-12
5.88563e-05
7.49661e-12
5.88563e-05
1.50442e-11
5.88563e-05
2.80562e-11
5.88563e-05
1.92069e-11
5.88563e-05
3.95491e-11
5.88563e-05
2.94993e-11
5.88563e-05
4.36506e-11
5.88563e-05
3.6874e-11
5.88563e-05
4.4532e-11
5.88563e-05
3.95023e-11
5.88563e-05
4.13356e-11
5.88563e-05
3.88702e-11
5.88563e-05
3.46331e-11
5.88563e-05
3.44255e-11
5.88563e-05
2.55406e-11
5.88563e-05
2.85163e-11
5.88563e-05
1.40091e-11
5.88563e-05
1.85346e-11
5.88563e-05
8.17493e-12
5.52081e-12
0.000109188
5.93343e-12
0.000109188
1.28935e-11
0.000109188
2.44424e-11
0.000109188
1.6151e-11
0.000109188
3.44698e-11
0.000109188
2.48318e-11
0.000109188
3.77935e-11
0.000109188
3.10858e-11
0.000109188
3.84037e-11
0.000109188
3.32528e-11
0.000109188
3.55116e-11
0.000109188
3.27484e-11
0.000109188
2.95798e-11
0.000109188
2.89572e-11
0.000109188
2.16937e-11
0.000109188
2.4172e-11
0.000109188
1.12859e-11
0.000109188
1.59752e-11
0.000109188
6.48032e-12
4.55312e-12
0.000165852
4.35499e-12
0.000165852
1.02707e-11
0.000165852
2.00862e-11
0.000165852
1.2709e-11
0.000165852
2.82622e-11
0.000165852
1.96427e-11
0.000165852
3.07545e-11
0.000165852
2.46285e-11
0.000165852
3.11227e-11
0.000165852
2.63088e-11
0.000165852
2.86492e-11
0.000165852
2.59449e-11
0.000165852
2.37113e-11
0.000165852
2.28994e-11
0.000165852
1.72628e-11
0.000165852
1.9319e-11
0.000165852
8.42303e-12
0.000165852
1.29544e-11
0.000165852
4.7725e-12
3.47174e-12
0.000228848
2.95011e-12
0.000228848
7.43758e-12
0.000228848
1.51272e-11
0.000228848
9.1877e-12
0.000228848
2.11889e-11
0.000228848
1.42678e-11
0.000228848
2.28807e-11
0.000228848
1.78768e-11
0.000228848
2.30652e-11
0.000228848
1.9042e-11
0.000228848
2.11356e-11
0.000228848
1.87836e-11
0.000228848
1.73816e-11
0.000228848
1.65284e-11
0.000228848
1.25539e-11
0.000228848
1.40859e-11
0.000228848
5.70659e-12
0.000228848
9.55773e-12
0.000228848
3.15465e-12
2.34723e-12
0.000298178
1.89838e-12
0.000298178
4.53379e-12
0.000298178
9.70326e-12
0.000298178
5.75867e-12
0.000298178
1.33727e-11
0.000298178
8.96316e-12
0.000298178
1.42879e-11
0.000298178
1.11504e-11
0.000298178
1.4331e-11
0.000298178
1.18023e-11
0.000298178
1.30508e-11
0.000298178
1.16024e-11
0.000298178
1.06463e-11
0.000298178
1.01519e-11
0.000298178
7.60139e-12
0.000298178
8.67303e-12
0.000298178
3.20765e-12
0.000298178
5.8815e-12
0.000298178
1.69234e-12
1.24388e-12
0.000373841
1.14323e-12
0.000373841
1.92744e-12
0.000373841
4.11215e-12
0.000373841
2.66697e-12
0.000373841
5.33349e-12
0.000373841
3.98292e-12
0.000373841
5.57669e-12
0.000373841
4.71872e-12
0.000373841
5.56478e-12
0.000373841
4.82055e-12
0.000373841
5.02729e-12
0.000373841
4.59674e-12
0.000373841
4.05637e-12
0.000373841
3.89267e-12
0.000373841
2.85826e-12
0.000373841
3.19603e-12
0.000373841
1.09087e-12
0.000373841
2.07656e-12
0.000373841
4.71133e-13
2.29553e-13
0.000455836
0.000455836
0.000455836
0.000455836
0.000455836
0.000455836
0.000455836
0.000455836
0.000455836
0.000455836
0.000455836
0.000455836
0.000455836
0.000455836
0.000455836
0.000455836
0.000455836
0.000455836
0.000455836
)
;

boundaryField
{
    top
    {
        type            calculated;
        value           uniform 0;
    }
    bottom
    {
        type            calculated;
        value           uniform 0;
    }
    inlet
    {
        type            calculated;
        value           nonuniform List<scalar> 
20
(
1.91641e-05
5.11594e-05
7.68219e-05
9.61515e-05
0.000109148
0.000115812
0.000116144
0.000110142
9.78078e-05
7.91406e-05
5.41406e-05
2.28078e-05
-1.48579e-05
-5.88563e-05
-0.000109188
-0.000165852
-0.000228848
-0.000298178
-0.000373841
-0.000455836
)
;
    }
    outlet
    {
        type            calculated;
        value           nonuniform List<scalar> 
20
(
-1.91641e-05
-5.11594e-05
-7.68219e-05
-9.61515e-05
-0.000109148
-0.000115812
-0.000116144
-0.000110142
-9.78078e-05
-7.91406e-05
-5.41406e-05
-2.28078e-05
1.48579e-05
5.88563e-05
0.000109188
0.000165852
0.000228848
0.000298178
0.000373841
0.000455836
)
;
    }
    frontAndBack
    {
        type            empty;
        value           nonuniform 0();
    }
}


// ************************************************************************* //
