/*--------------------------------*- C++ -*----------------------------------*\
| =========                 |                                                 |
| \\      /  F ield         | OpenFOAM: The Open Source CFD Toolbox           |
|  \\    /   O peration     | Version:  4.1                                   |
|   \\  /    A nd           | Web:      www.OpenFOAM.org                      |
|    \\/     M anipulation  |                                                 |
\*---------------------------------------------------------------------------*/
FoamFile
{
    version     2.0;
    format      ascii;
    class       volVectorField;
    location    "2.7";
    object      U;
}
// * * * * * * * * * * * * * * * * * * * * * * * * * * * * * * * * * * * * * //

dimensions      [0 1 -1 0 0 0 0];

internalField   nonuniform List<vector> 
400
(
(-0.383281 2.64393e-10 0)
(-0.383281 6.566e-10 0)
(-0.383281 7.1214e-10 0)
(-0.383281 2.0216e-09 0)
(-0.383281 6.5476e-10 0)
(-0.383281 3.05135e-09 0)
(-0.383281 9.59019e-10 0)
(-0.383281 3.46191e-09 0)
(-0.383281 1.1834e-09 0)
(-0.383281 3.63421e-09 0)
(-0.383281 1.1765e-09 0)
(-0.383281 3.46228e-09 0)
(-0.383281 1.19325e-09 0)
(-0.383281 2.94106e-09 0)
(-0.383281 9.72616e-10 0)
(-0.383281 2.37628e-09 0)
(-0.383281 9.29123e-10 0)
(-0.383281 9.98588e-10 0)
(-0.383281 9.52257e-10 0)
(-0.383281 4.06563e-10 0)
(-1.02319 7.28785e-10 0)
(-1.02319 1.73319e-09 0)
(-1.02319 4.9189e-09 0)
(-1.02319 2.4572e-09 0)
(-1.02319 7.86631e-09 0)
(-1.02319 4.26771e-09 0)
(-1.02319 9.13852e-09 0)
(-1.02319 5.8814e-09 0)
(-1.02319 9.54524e-09 0)
(-1.02319 6.6831e-09 0)
(-1.02319 9.08343e-09 0)
(-1.02319 6.89981e-09 0)
(-1.02319 7.81426e-09 0)
(-1.02319 6.43167e-09 0)
(-1.02319 5.98343e-09 0)
(-1.02319 5.69521e-09 0)
(-1.02319 3.49103e-09 0)
(-1.02319 4.28991e-09 0)
(-1.02319 1.69034e-09 0)
(-1.02319 1.64225e-09 0)
(-1.53644 2.17418e-09 0)
(-1.53644 3.83785e-09 0)
(-1.53644 9.02023e-09 0)
(-1.53644 7.42488e-09 0)
(-1.53644 1.25304e-08 0)
(-1.53644 1.26495e-08 0)
(-1.53644 1.43513e-08 0)
(-1.53644 1.58932e-08 0)
(-1.53644 1.51707e-08 0)
(-1.53644 1.73819e-08 0)
(-1.53644 1.43989e-08 0)
(-1.53644 1.73699e-08 0)
(-1.53644 1.23866e-08 0)
(-1.53644 1.5522e-08 0)
(-1.53644 9.37825e-09 0)
(-1.53644 1.32261e-08 0)
(-1.53644 5.71016e-09 0)
(-1.53644 8.14284e-09 0)
(-1.53644 4.31136e-09 0)
(-1.53644 2.70656e-09 0)
(-1.92303 3.5562e-09 0)
(-1.92303 5.66411e-09 0)
(-1.92303 1.44154e-08 0)
(-1.92303 9.1392e-09 0)
(-1.92303 2.01339e-08 0)
(-1.92303 1.63074e-08 0)
(-1.92303 2.23693e-08 0)
(-1.92303 2.11614e-08 0)
(-1.92303 2.31756e-08 0)
(-1.92303 2.33752e-08 0)
(-1.92303 2.17275e-08 0)
(-1.92303 2.36551e-08 0)
(-1.92303 1.83368e-08 0)
(-1.92303 2.13949e-08 0)
(-1.92303 1.36601e-08 0)
(-1.92303 1.84124e-08 0)
(-1.92303 7.73487e-09 0)
(-1.92303 1.19798e-08 0)
(-1.92303 5.56716e-09 0)
(-1.92303 3.6159e-09 0)
(-2.18297 5.20107e-09 0)
(-2.18297 8.05423e-09 0)
(-2.18297 1.92437e-08 0)
(-2.18297 1.27567e-08 0)
(-2.18297 2.6483e-08 0)
(-2.18297 2.23966e-08 0)
(-2.18297 2.93627e-08 0)
(-2.18297 2.87321e-08 0)
(-2.18297 3.04451e-08 0)
(-2.18297 3.15192e-08 0)
(-2.18297 2.84576e-08 0)
(-2.18297 3.17205e-08 0)
(-2.18297 2.41602e-08 0)
(-2.18297 2.85281e-08 0)
(-2.18297 1.80632e-08 0)
(-2.18297 2.43515e-08 0)
(-2.18297 1.04164e-08 0)
(-2.18297 1.55069e-08 0)
(-2.18297 7.65748e-09 0)
(-2.18297 4.58146e-09 0)
(-2.31625 6.80129e-09 0)
(-2.31625 1.0325e-08 0)
(-2.31625 2.37393e-08 0)
(-2.31625 1.5893e-08 0)
(-2.31625 3.25238e-08 0)
(-2.31625 2.7541e-08 0)
(-2.31625 3.60661e-08 0)
(-2.31625 3.51446e-08 0)
(-2.31625 3.74365e-08 0)
(-2.31625 3.84116e-08 0)
(-2.31625 3.497e-08 0)
(-2.31625 3.85316e-08 0)
(-2.31625 2.97313e-08 0)
(-2.31625 3.45656e-08 0)
(-2.31625 2.22501e-08 0)
(-2.31625 2.93531e-08 0)
(-2.31625 1.29801e-08 0)
(-2.31625 1.85035e-08 0)
(-2.31625 9.46578e-09 0)
(-2.31625 5.43265e-09 0)
(-2.32287 8.23293e-09 0)
(-2.32287 1.24076e-08 0)
(-2.32287 2.74904e-08 0)
(-2.32287 1.8683e-08 0)
(-2.32287 3.76019e-08 0)
(-2.32287 3.18744e-08 0)
(-2.32287 4.17763e-08 0)
(-2.32287 4.04624e-08 0)
(-2.32287 4.33919e-08 0)
(-2.32287 4.40861e-08 0)
(-2.32287 4.05727e-08 0)
(-2.32287 4.40783e-08 0)
(-2.32287 3.45273e-08 0)
(-2.32287 3.94539e-08 0)
(-2.32287 2.58397e-08 0)
(-2.32287 3.33384e-08 0)
(-2.32287 1.52748e-08 0)
(-2.32287 2.08003e-08 0)
(-2.32287 1.0982e-08 0)
(-2.32287 6.15131e-09 0)
(-2.20284 9.41416e-09 0)
(-2.20284 1.42369e-08 0)
(-2.20284 3.04663e-08 0)
(-2.20284 2.10045e-08 0)
(-2.20284 4.17286e-08 0)
(-2.20284 3.52235e-08 0)
(-2.20284 4.64679e-08 0)
(-2.20284 4.45168e-08 0)
(-2.20284 4.82467e-08 0)
(-2.20284 4.83775e-08 0)
(-2.20284 4.51462e-08 0)
(-2.20284 4.82168e-08 0)
(-2.20284 3.84519e-08 0)
(-2.20284 4.3085e-08 0)
(-2.20284 2.8765e-08 0)
(-2.20284 3.62216e-08 0)
(-2.20284 1.72052e-08 0)
(-2.20284 2.2433e-08 0)
(-2.20284 1.2102e-08 0)
(-2.20284 6.73213e-09 0)
(-1.95616 1.0253e-08 0)
(-1.95616 1.57305e-08 0)
(-1.95616 3.25306e-08 0)
(-1.95616 2.27364e-08 0)
(-1.95616 4.46936e-08 0)
(-1.95616 3.74447e-08 0)
(-1.95616 4.98685e-08 0)
(-1.95616 4.71458e-08 0)
(-1.95616 5.17196e-08 0)
(-1.95616 5.11141e-08 0)
(-1.95616 4.84087e-08 0)
(-1.95616 5.07893e-08 0)
(-1.95616 4.12358e-08 0)
(-1.95616 4.5319e-08 0)
(-1.95616 3.08156e-08 0)
(-1.95616 3.78994e-08 0)
(-1.95616 1.85836e-08 0)
(-1.95616 2.33733e-08 0)
(-1.95616 1.27332e-08 0)
(-1.95616 7.13522e-09 0)
(-1.58281 1.06935e-08 0)
(-1.58281 1.68277e-08 0)
(-1.58281 3.36815e-08 0)
(-1.58281 2.3797e-08 0)
(-1.58281 4.64855e-08 0)
(-1.58281 3.8491e-08 0)
(-1.58281 5.19258e-08 0)
(-1.58281 4.83167e-08 0)
(-1.58281 5.37511e-08 0)
(-1.58281 5.22667e-08 0)
(-1.58281 5.02993e-08 0)
(-1.58281 5.1786e-08 0)
(-1.58281 4.28117e-08 0)
(-1.58281 4.61512e-08 0)
(-1.58281 3.19462e-08 0)
(-1.58281 3.84035e-08 0)
(-1.58281 1.93172e-08 0)
(-1.58281 2.36824e-08 0)
(-1.58281 1.28461e-08 0)
(-1.58281 7.34151e-09 0)
(-1.08281 1.06973e-08 0)
(-1.08281 1.74547e-08 0)
(-1.08281 3.39252e-08 0)
(-1.08281 2.41135e-08 0)
(-1.08281 4.70747e-08 0)
(-1.08281 3.83507e-08 0)
(-1.08281 5.25758e-08 0)
(-1.08281 4.80334e-08 0)
(-1.08281 5.42832e-08 0)
(-1.08281 5.18462e-08 0)
(-1.08281 5.07581e-08 0)
(-1.08281 5.1239e-08 0)
(-1.08281 4.3122e-08 0)
(-1.08281 4.56103e-08 0)
(-1.08281 3.2119e-08 0)
(-1.08281 3.77931e-08 0)
(-1.08281 1.93308e-08 0)
(-1.08281 2.34152e-08 0)
(-1.08281 1.24522e-08 0)
(-1.08281 7.32987e-09 0)
(-0.456155 1.02532e-08 0)
(-0.456155 1.75316e-08 0)
(-0.456155 3.32808e-08 0)
(-0.456155 2.36333e-08 0)
(-0.456155 4.64357e-08 0)
(-0.456155 3.70472e-08 0)
(-0.456155 5.17743e-08 0)
(-0.456155 4.63376e-08 0)
(-0.456155 5.32875e-08 0)
(-0.456155 4.99075e-08 0)
(-0.456155 4.97579e-08 0)
(-0.456155 4.92227e-08 0)
(-0.456155 4.21479e-08 0)
(-0.456155 4.37624e-08 0)
(-0.456155 3.13236e-08 0)
(-0.456155 3.61529e-08 0)
(-0.456155 1.85946e-08 0)
(-0.456155 2.26168e-08 0)
(-0.456155 1.16038e-08 0)
(-0.456155 7.08656e-09 0)
(0.297157 9.38623e-09 0)
(0.297157 1.69877e-08 0)
(0.297157 3.17708e-08 0)
(0.297157 2.23415e-08 0)
(0.297157 4.45427e-08 0)
(0.297157 3.46422e-08 0)
(0.297157 4.94989e-08 0)
(0.297157 4.33091e-08 0)
(0.297157 5.07638e-08 0)
(0.297157 4.65488e-08 0)
(0.297157 4.73029e-08 0)
(0.297157 4.58489e-08 0)
(0.297157 3.99089e-08 0)
(0.297157 4.07124e-08 0)
(0.297157 2.9576e-08 0)
(0.297157 3.36031e-08 0)
(0.297157 1.71364e-08 0)
(0.297157 2.13128e-08 0)
(0.297157 1.03849e-08 0)
(0.297157 6.6093e-09 0)
(1.17713 8.14945e-09 0)
(1.17713 1.57776e-08 0)
(1.17713 2.93977e-08 0)
(1.17713 2.0253e-08 0)
(1.17713 4.13581e-08 0)
(1.17713 3.12023e-08 0)
(1.17713 4.57362e-08 0)
(1.17713 3.90261e-08 0)
(1.17713 4.67245e-08 0)
(1.17713 4.18654e-08 0)
(1.17713 4.34171e-08 0)
(1.17713 4.12197e-08 0)
(1.17713 3.64507e-08 0)
(1.17713 3.65558e-08 0)
(1.17713 2.69135e-08 0)
(1.17713 3.02359e-08 0)
(1.17713 1.5041e-08 0)
(1.17713 1.94968e-08 0)
(1.17713 8.89104e-09 0)
(1.17713 5.90684e-09 0)
(2.18375 6.69238e-09 0)
(2.18375 1.39385e-08 0)
(2.18375 2.62406e-08 0)
(2.18375 1.75444e-08 0)
(2.18375 3.69597e-08 0)
(2.18375 2.69897e-08 0)
(2.18375 4.06194e-08 0)
(2.18375 3.37921e-08 0)
(2.18375 4.1328e-08 0)
(2.18375 3.61818e-08 0)
(2.18375 3.82625e-08 0)
(2.18375 3.56339e-08 0)
(2.18375 3.19398e-08 0)
(2.18375 3.15664e-08 0)
(2.18375 2.34606e-08 0)
(2.18375 2.62648e-08 0)
(2.18375 1.25002e-08 0)
(2.18375 1.72134e-08 0)
(2.18375 7.251e-09 0)
(2.18375 5.02228e-09 0)
(3.31703 5.10337e-09 0)
(3.31703 1.15461e-08 0)
(3.31703 2.22539e-08 0)
(3.31703 1.42886e-08 0)
(3.31703 3.13311e-08 0)
(3.31703 2.20469e-08 0)
(3.31703 3.41894e-08 0)
(3.31703 2.76505e-08 0)
(3.31703 3.46435e-08 0)
(3.31703 2.95771e-08 0)
(3.31703 3.19388e-08 0)
(3.31703 2.91343e-08 0)
(3.31703 2.64939e-08 0)
(3.31703 2.57648e-08 0)
(3.31703 1.93349e-08 0)
(3.31703 2.1644e-08 0)
(3.31703 9.69813e-09 0)
(3.31703 1.44129e-08 0)
(3.31703 5.53825e-09 0)
(3.31703 3.98679e-09 0)
(4.57697 3.65037e-09 0)
(4.57697 8.54299e-09 0)
(4.57697 1.7537e-08 0)
(4.57697 1.06664e-08 0)
(4.57697 2.44134e-08 0)
(4.57697 1.6735e-08 0)
(4.57697 2.6355e-08 0)
(4.57697 2.10925e-08 0)
(4.57697 2.65369e-08 0)
(4.57697 2.26804e-08 0)
(4.57697 2.42844e-08 0)
(4.57697 2.24019e-08 0)
(4.57697 1.99637e-08 0)
(4.57697 1.97571e-08 0)
(4.57697 1.43696e-08 0)
(4.57697 1.67889e-08 0)
(4.57697 6.70743e-09 0)
(4.57697 1.12176e-08 0)
(4.57697 3.85139e-09 0)
(4.57697 2.87757e-09 0)
(5.96356 2.22117e-09 0)
(5.96356 6.75227e-09 0)
(5.96356 1.26528e-08 0)
(5.96356 8.02149e-09 0)
(5.96356 1.83195e-08 0)
(5.96356 1.19058e-08 0)
(5.96356 2.00311e-08 0)
(5.96356 1.46725e-08 0)
(5.96356 2.03758e-08 0)
(5.96356 1.54745e-08 0)
(5.96356 1.88845e-08 0)
(5.96356 1.50823e-08 0)
(5.96356 1.56822e-08 0)
(5.96356 1.3023e-08 0)
(5.96356 1.15923e-08 0)
(5.96356 1.09949e-08 0)
(5.96356 5.2815e-09 0)
(5.96356 7.813e-09 0)
(5.96356 2.57942e-09 0)
(5.96356 1.8456e-09 0)
(7.47681 1.85449e-09 0)
(7.47681 2.5222e-09 0)
(7.47681 7.15507e-09 0)
(7.47681 4.33211e-09 0)
(7.47681 8.99008e-09 0)
(7.47681 7.22922e-09 0)
(7.47681 9.28163e-09 0)
(7.47681 8.91395e-09 0)
(7.47681 9.10837e-09 0)
(7.47681 9.53818e-09 0)
(7.47681 8.02448e-09 0)
(7.47681 9.4289e-09 0)
(7.47681 6.36236e-09 0)
(7.47681 8.32545e-09 0)
(7.47681 4.19904e-09 0)
(7.47681 7.08708e-09 0)
(7.47681 1.74485e-09 0)
(7.47681 4.31297e-09 0)
(7.47681 1.1962e-09 0)
(7.47681 7.91371e-10 0)
(9.11672 1.75487e-10 0)
(9.11672 1.53009e-09 0)
(9.11672 1.82137e-09 0)
(9.11672 1.49852e-09 0)
(9.11672 3.21305e-09 0)
(9.11672 1.69292e-09 0)
(9.11672 3.72818e-09 0)
(9.11672 1.78435e-09 0)
(9.11672 3.95013e-09 0)
(9.11672 1.58843e-09 0)
(9.11672 3.85295e-09 0)
(9.11672 1.35823e-09 0)
(9.11672 3.32996e-09 0)
(9.11672 1.00635e-09 0)
(9.11672 2.70218e-09 0)
(9.11672 7.1609e-10 0)
(9.11672 1.33406e-09 0)
(9.11672 9.02912e-10 0)
(9.11672 3.75712e-10 0)
(9.11672 1.54207e-10 0)
)
;

boundaryField
{
    top
    {
        type            fixedValue;
        value           uniform (10 0 0);
    }
    bottom
    {
        type            fixedValue;
        value           uniform (0 0 0);
    }
    inlet
    {
        type            zeroGradient;
    }
    outlet
    {
        type            zeroGradient;
    }
    frontAndBack
    {
        type            empty;
    }
}


// ************************************************************************* //
