/*--------------------------------*- C++ -*----------------------------------*\
| =========                 |                                                 |
| \\      /  F ield         | OpenFOAM: The Open Source CFD Toolbox           |
|  \\    /   O peration     | Version:  4.1                                   |
|   \\  /    A nd           | Web:      www.OpenFOAM.org                      |
|    \\/     M anipulation  |                                                 |
\*---------------------------------------------------------------------------*/
FoamFile
{
    version     2.0;
    format      ascii;
    class       surfaceScalarField;
    location    "0.9";
    object      phi;
}
// * * * * * * * * * * * * * * * * * * * * * * * * * * * * * * * * * * * * * //

dimensions      [0 3 -1 0 0 0 0];

internalField   nonuniform List<scalar> 
760
(
3.16564e-05
-4.12047e-11
3.16564e-05
-3.04656e-11
3.16564e-05
-2.86489e-12
3.16564e-05
-3.75988e-12
3.16564e-05
4.04266e-14
3.16564e-05
-1.87561e-12
3.16564e-05
1.355e-12
3.16564e-05
-1.66122e-13
3.16564e-05
-8.89247e-13
3.16564e-05
1.29138e-12
3.16564e-05
-1.84048e-12
3.16564e-05
1.88883e-12
3.16564e-05
-1.85224e-13
3.16564e-05
1.13818e-12
3.16564e-05
2.3075e-12
3.16564e-05
5.84527e-12
3.16564e-05
-1.23562e-13
3.16564e-05
9.43825e-12
3.16564e-05
-1.15322e-11
-3.92421e-11
8.86366e-05
-1.17367e-10
8.86366e-05
-1.0268e-10
8.86367e-05
-1.6218e-11
8.86367e-05
-1.1437e-11
8.86367e-05
2.52159e-12
8.86367e-05
-5.61275e-12
8.86367e-05
2.52077e-12
8.86367e-05
6.18763e-14
8.86367e-05
-2.34072e-12
8.86367e-05
2.97983e-12
8.86367e-05
-2.785e-12
8.86367e-05
3.20262e-12
8.86367e-05
3.62708e-12
8.86367e-05
2.53311e-12
8.86367e-05
5.67514e-12
8.86367e-05
1.9282e-11
8.86367e-05
-5.24383e-12
8.86367e-05
3.12582e-11
8.86367e-05
-4.61039e-11
-1.18483e-10
0.000139285
-1.9601e-10
0.000139285
-1.87935e-10
0.000139285
-3.66491e-11
0.000139285
-2.07194e-11
0.000139285
4.24831e-12
0.000139285
-9.66279e-12
0.000139285
2.58086e-12
0.000139285
2.30966e-13
0.000139285
-3.73006e-12
0.000139285
4.0062e-12
0.000139285
-2.65007e-12
0.000139285
3.32886e-12
0.000139285
9.21074e-12
0.000139285
3.80385e-12
0.000139285
8.91583e-12
0.000139285
3.43841e-11
0.000139285
-1.22499e-11
0.000139285
5.70994e-11
0.000139285
-9.22071e-11
-2.07582e-10
0.000183601
-2.5741e-10
0.000183601
-2.60752e-10
0.000183601
-5.79831e-11
0.000183601
-2.85768e-11
0.000183601
4.63893e-12
0.000183601
-1.3757e-11
0.000183601
1.99768e-12
0.000183601
-4.34664e-15
0.000183601
-4.92198e-12
0.000183601
4.24876e-12
0.000183601
-2.16083e-12
0.000183601
2.54762e-12
0.000183601
1.49676e-11
0.000183601
3.7987e-12
0.000183601
1.2559e-11
0.000183601
4.74699e-11
0.000183601
-1.95055e-11
0.000183601
8.26008e-11
0.000183601
-1.37877e-10
-2.89014e-10
0.000221585
-2.86768e-10
0.000221585
-2.99878e-10
0.000221585
-7.3311e-11
0.000221585
-3.37013e-11
0.000221585
4.6231e-12
0.000221585
-1.7543e-11
0.000221585
8.33399e-13
0.000221585
-7.15144e-13
0.000221585
-6.07976e-12
0.000221585
3.61105e-12
0.000221585
-1.5561e-12
0.000221585
8.87546e-13
0.000221585
2.04997e-11
0.000221585
2.89083e-12
0.000221585
1.62119e-11
0.000221585
5.84994e-11
0.000221585
-2.56915e-11
0.000221585
1.04431e-10
0.000221585
-1.72027e-10
-3.48219e-10
0.000253239
-2.76582e-10
0.000253239
-2.92917e-10
0.000253239
-7.72207e-11
0.000253239
-3.47894e-11
0.000253239
4.91882e-12
0.000253239
-2.0788e-11
0.000253239
-6.62183e-13
0.000253239
-1.86238e-12
0.000253239
-7.19732e-12
0.000253239
2.18316e-12
0.000253239
-9.57978e-13
0.000253239
-1.53621e-12
0.000253239
2.55616e-11
0.000253239
1.19096e-12
0.000253239
1.97002e-11
0.000253239
6.7041e-11
0.000253239
-2.99017e-11
0.000253239
1.19894e-10
0.000253239
-1.88396e-10
-3.75945e-10
0.000278561
-2.26069e-10
0.000278561
-2.36325e-10
0.000278561
-6.68272e-11
0.000278561
-3.13031e-11
0.000278561
5.91641e-12
0.000278561
-2.32836e-11
0.000278561
-2.27435e-12
0.000278561
-3.3258e-12
0.000278561
-8.2293e-12
0.000278561
1.33097e-13
0.000278561
-4.16828e-13
0.000278561
-4.53382e-12
0.000278561
2.99583e-11
0.000278561
-1.04377e-12
0.000278561
2.28322e-11
0.000278561
7.28203e-11
0.000278561
-3.14667e-11
0.000278561
1.27167e-10
0.000278561
-1.84463e-10
-3.68085e-10
0.000297553
-1.40798e-10
0.000297553
-1.35535e-10
0.000297552
-4.24289e-11
0.000297552
-2.35392e-11
0.000297552
7.6635e-12
0.000297552
-2.49074e-11
0.000297552
-3.82291e-12
0.000297552
-4.95719e-12
0.000297552
-9.11843e-12
0.000297552
-2.32845e-12
0.000297552
6.09214e-14
0.000297552
-7.87313e-12
0.000297552
3.35485e-11
0.000297552
-3.54174e-12
0.000297552
2.54705e-11
0.000297553
7.56929e-11
0.000297552
-3.01089e-11
0.000297553
1.25646e-10
0.000297552
-1.61267e-10
-3.25857e-10
0.000310214
-3.12097e-11
0.000310213
-3.36418e-12
0.000310213
-7.46357e-12
0.000310213
-1.26511e-11
0.000310213
9.88707e-12
0.000310213
-2.56344e-11
0.000310213
-5.18861e-12
0.000310213
-6.61192e-12
0.000310213
-9.81166e-12
0.000310213
-4.97648e-12
0.000310213
4.90882e-13
0.000310213
-1.12989e-11
0.000310213
3.62264e-11
0.000310213
-6.043e-12
0.000310213
2.75143e-11
0.000310213
7.56819e-11
0.000310213
-2.59918e-11
0.000310213
1.16022e-10
0.000310213
-1.2248e-10
-2.55006e-10
0.000316544
8.8946e-11
0.000316544
1.42172e-10
0.000316544
3.22284e-11
0.000316544
-4.55686e-13
0.000316544
1.20784e-11
0.000316544
-2.55323e-11
0.000316544
-6.315e-12
0.000316544
-8.15944e-12
0.000316544
-1.02656e-11
0.000316544
-7.588e-12
0.000316544
8.96149e-13
0.000316544
-1.45502e-11
0.000316544
3.79121e-11
0.000316544
-8.31754e-12
0.000316544
2.88788e-11
0.000316544
7.29861e-11
0.000316544
-1.97016e-11
0.000316544
1.0009e-10
0.000316544
-7.36129e-11
-1.64792e-10
0.000316544
2.04494e-10
0.000316544
2.80719e-10
0.000316544
6.96367e-11
0.000316544
1.09375e-11
0.000316544
1.36379e-11
0.000316544
-2.47299e-11
0.000316544
-7.19356e-12
0.000316544
-9.48112e-12
0.000316544
-1.0445e-11
0.000316544
-9.95017e-12
0.000316544
1.2996e-12
0.000316544
-1.73728e-11
0.000316544
3.85502e-11
0.000316544
-1.01719e-11
0.000316544
2.94845e-11
0.000316544
6.79632e-11
0.000316544
-1.21444e-11
0.000316544
8.0397e-11
0.000316544
-2.11677e-11
-6.66421e-11
0.000310214
3.00708e-10
0.000310214
3.92611e-10
0.000310214
9.80693e-11
0.000310214
1.95945e-11
0.000310214
1.40466e-11
0.000310214
-2.33719e-11
0.000310214
-7.83844e-12
0.000310214
-1.04628e-11
0.000310214
-1.03195e-11
0.000310214
-1.18645e-11
0.000310214
1.71939e-12
0.000310214
-1.95292e-11
0.000310214
3.81118e-11
0.000310214
-1.14505e-11
0.000310214
2.92569e-11
0.000310214
6.10907e-11
0.000310214
-4.38019e-12
0.000310214
5.97727e-11
0.000310214
2.81007e-11
2.73036e-11
0.000297553
3.65144e-10
0.000297553
4.61821e-10
0.000297553
1.12598e-10
0.000297553
2.41976e-11
0.000297553
1.30168e-11
0.000297553
-2.15774e-11
0.000297553
-8.25729e-12
0.000297553
-1.09887e-11
0.000297553
-9.8605e-12
0.000297553
-1.315e-11
0.000297553
2.16488e-12
0.000297553
-2.08067e-11
0.000297553
3.65954e-11
0.000297553
-1.20349e-11
0.000297553
2.81358e-11
0.000297553
5.2915e-11
0.000297553
2.56776e-12
0.000297553
4.08336e-11
0.000297553
6.79067e-11
1.05685e-10
0.000278561
3.89419e-10
0.000278561
4.78619e-10
0.000278561
1.11156e-10
0.000278561
2.43356e-11
0.000278561
1.0582e-11
0.000278561
-1.94131e-11
0.000278561
-8.42619e-12
0.000278561
-1.09416e-11
0.000278561
-9.04206e-12
0.000278561
-1.36476e-11
0.000278561
2.63008e-12
0.000278561
-2.10268e-11
0.000278561
3.4024e-11
0.000278561
-1.18446e-11
0.000278561
2.60856e-11
0.000278561
4.40026e-11
0.000278561
7.88205e-12
0.000278561
2.55376e-11
0.000278561
9.32224e-11
1.59411e-10
0.000253239
3.70588e-10
0.000253239
4.41451e-10
0.000253239
9.50886e-11
0.000253239
2.05715e-11
0.000253239
7.10514e-12
0.000253239
-1.68896e-11
0.000253239
-8.27672e-12
0.000253239
-1.02175e-11
0.000253239
-7.84622e-12
0.000253239
-1.32299e-11
0.000253239
3.08187e-12
0.000253239
-2.00576e-11
0.000253239
3.04352e-11
0.000253239
-1.08413e-11
0.000253239
2.30994e-11
0.000253239
3.48983e-11
0.000253239
1.10644e-11
0.000253239
1.48561e-11
0.000253239
1.01037e-10
1.82915e-10
0.000221585
3.12412e-10
0.000221585
3.58147e-10
0.000221586
6.89573e-11
0.000221586
1.4284e-11
0.000221586
3.2339e-12
0.000221586
-1.39721e-11
0.000221586
-7.69808e-12
0.000221586
-8.75825e-12
0.000221586
-6.27544e-12
0.000221586
-1.18185e-11
0.000221586
3.44069e-12
0.000221586
-1.78292e-11
0.000221586
2.58632e-11
0.000221586
-9.04814e-12
0.000221586
1.91918e-11
0.000221586
2.61028e-11
0.000221586
1.19716e-11
0.000221586
8.64607e-12
0.000221586
9.12886e-11
1.75292e-10
0.000183601
2.25444e-10
0.000183601
2.45282e-10
0.000183601
3.97015e-11
0.000183601
7.37898e-12
0.000183601
-2.37337e-13
0.000183601
-1.05352e-11
0.000183601
-6.58625e-12
0.000183601
-6.6177e-12
0.000183601
-4.37887e-12
0.000183601
-9.4393e-12
0.000183601
3.56501e-12
0.000183601
-1.43335e-11
0.000183601
2.0286e-11
0.000183601
-6.46876e-12
0.000183601
1.44298e-11
0.000183601
1.80053e-11
0.000183601
1.09574e-11
0.000183601
5.75879e-12
0.000183601
6.73437e-11
1.40671e-10
0.000139285
1.27239e-10
0.000139285
1.28137e-10
0.000139285
1.54384e-11
0.000139285
1.7785e-12
0.000139285
-2.12275e-12
0.000139285
-6.47794e-12
0.000139285
-4.75401e-12
0.000139285
-3.9153e-12
0.000139285
-2.30241e-12
0.000139285
-6.18739e-12
0.000139285
3.26185e-12
0.000139285
-9.80858e-12
0.000139285
1.37376e-11
0.000139285
-3.36213e-12
0.000139285
8.56929e-12
0.000139285
1.11126e-11
0.000139285
8.15773e-12
0.000139285
4.01679e-12
0.000139285
3.67015e-11
8.85729e-11
8.86366e-05
4.0359e-11
8.86367e-05
3.58075e-11
8.86368e-05
3.37914e-12
8.86368e-05
-8.26538e-13
8.86368e-05
-1.50387e-12
8.86368e-05
-1.52719e-12
8.86368e-05
-2.20361e-12
8.86368e-05
-9.57225e-13
8.86368e-05
-3.19672e-13
8.86368e-05
-2.44284e-12
8.86368e-05
2.1546e-12
8.86368e-05
-4.42041e-12
8.86368e-05
6.14614e-12
8.86368e-05
1.9821e-13
8.86368e-05
1.95291e-12
8.86368e-05
5.5548e-12
8.86368e-05
4.38631e-12
8.86368e-05
1.24771e-12
8.86368e-05
1.03382e-11
3.24538e-11
3.16564e-05
3.16564e-05
3.16564e-05
3.16564e-05
3.16564e-05
3.16564e-05
3.16564e-05
3.16564e-05
3.16564e-05
3.16564e-05
3.16564e-05
3.16564e-05
3.16564e-05
3.16564e-05
3.16564e-05
3.16564e-05
3.16564e-05
3.16564e-05
3.16565e-05
)
;

boundaryField
{
    top
    {
        type            calculated;
        value           uniform 0;
    }
    bottom
    {
        type            calculated;
        value           uniform 0;
    }
    inlet
    {
        type            calculated;
        value           nonuniform List<scalar> 
20
(
-3.16563e-05
-8.86365e-05
-0.000139284
-0.000183601
-0.000221585
-0.000253239
-0.000278561
-0.000297553
-0.000310214
-0.000316544
-0.000316544
-0.000310214
-0.000297553
-0.000278561
-0.000253239
-0.000221585
-0.000183601
-0.000139285
-8.86365e-05
-3.16563e-05
)
;
    }
    outlet
    {
        type            calculated;
        value           nonuniform List<scalar> 
20
(
3.16565e-05
8.86368e-05
0.000139285
0.000183601
0.000221585
0.000253239
0.000278561
0.000297552
0.000310213
0.000316544
0.000316544
0.000310213
0.000297553
0.000278561
0.000253239
0.000221586
0.000183601
0.000139285
8.86368e-05
3.16565e-05
)
;
    }
    frontAndBack
    {
        type            empty;
        value           nonuniform 0();
    }
}


// ************************************************************************* //
