/*--------------------------------*- C++ -*----------------------------------*\
| =========                 |                                                 |
| \\      /  F ield         | OpenFOAM: The Open Source CFD Toolbox           |
|  \\    /   O peration     | Version:  4.1                                   |
|   \\  /    A nd           | Web:      www.OpenFOAM.org                      |
|    \\/     M anipulation  |                                                 |
\*---------------------------------------------------------------------------*/
FoamFile
{
    version     2.0;
    format      ascii;
    class       volVectorField;
    location    "0.9";
    object      U;
}
// * * * * * * * * * * * * * * * * * * * * * * * * * * * * * * * * * * * * * //

dimensions      [0 1 -1 0 0 0 0];

internalField   nonuniform List<vector> 
400
(
(0.633127 -1.82529e-08 0)
(0.633128 -9.55489e-09 0)
(0.633128 7.49229e-10 0)
(0.633128 -4.87495e-09 0)
(0.633128 2.31625e-10 0)
(0.633128 -1.59574e-10 0)
(0.633128 -3.17844e-10 0)
(0.633128 2.87217e-11 0)
(0.633128 -8.02303e-10 0)
(0.633128 4.05028e-10 0)
(0.633128 -7.68716e-10 0)
(0.633128 8.33459e-10 0)
(0.633128 -2.49713e-10 0)
(0.633128 3.06755e-09 0)
(0.633128 -1.14726e-09 0)
(0.633128 6.13056e-09 0)
(0.633128 1.1463e-09 0)
(0.633128 2.52802e-09 0)
(0.633128 -4.47746e-10 0)
(0.633129 -1.61766e-08 0)
(1.77273 -7.85529e-08 0)
(1.77273 -6.62455e-08 0)
(1.77273 -9.36496e-09 0)
(1.77273 -3.70591e-09 0)
(1.77273 1.44481e-09 0)
(1.77273 -5.02475e-09 0)
(1.77273 3.32706e-09 0)
(1.77273 -3.89528e-10 0)
(1.77273 -1.39769e-09 0)
(1.77273 2.40294e-09 0)
(1.77273 -2.56756e-09 0)
(1.77273 2.59297e-09 0)
(1.77273 2.15151e-09 0)
(1.77273 -1.12604e-09 0)
(1.77273 6.88948e-09 0)
(1.77273 9.09381e-09 0)
(1.77273 -3.44907e-09 0)
(1.77273 2.20772e-08 0)
(1.77273 -3.08561e-08 0)
(1.77274 -7.73764e-08 0)
(2.78569 -1.56192e-07 0)
(2.78569 -1.41196e-07 0)
(2.78569 -2.41471e-08 0)
(2.78569 -1.88766e-08 0)
(2.78569 2.88858e-09 0)
(2.78569 -6.93418e-09 0)
(2.78569 1.64285e-09 0)
(2.78569 5.04582e-11 0)
(2.78569 -3.50784e-09 0)
(2.78569 3.22314e-09 0)
(2.78569 -2.88012e-09 0)
(2.78569 3.48381e-09 0)
(2.78569 5.88823e-09 0)
(2.78569 6.08691e-09 0)
(2.78569 5.78015e-09 0)
(2.78569 2.98235e-08 0)
(2.78569 -6.11237e-09 0)
(2.78569 4.22376e-08 0)
(2.78569 -6.3272e-08 0)
(2.7857 -1.58776e-07 0)
(3.67201 -2.33353e-07 0)
(3.67201 -2.31658e-07 0)
(3.67202 -4.8841e-08 0)
(3.67201 -2.38383e-08 0)
(3.67202 5.04363e-09 0)
(3.67202 -1.20972e-08 0)
(3.67202 2.88573e-09 0)
(3.67202 2.88344e-10 0)
(3.67202 -4.18071e-09 0)
(3.67202 4.49816e-09 0)
(3.67202 -2.41097e-09 0)
(3.67202 3.13548e-09 0)
(3.67202 1.22895e-08 0)
(3.67202 2.89775e-09 0)
(3.67202 1.13538e-08 0)
(3.67201 4.01245e-08 0)
(3.67202 -1.68978e-08 0)
(3.67202 7.09231e-08 0)
(3.67202 -1.18256e-07 0)
(3.67202 -2.53403e-07 0)
(4.4317 -2.81237e-07 0)
(4.43171 -2.91118e-07 0)
(4.43171 -6.8526e-08 0)
(4.43171 -3.17548e-08 0)
(4.43171 4.87012e-09 0)
(4.43171 -1.56931e-08 0)
(4.43171 1.58813e-09 0)
(4.43171 -1.4686e-10 0)
(4.43171 -5.42319e-09 0)
(4.43171 4.21975e-09 0)
(4.43171 -1.83919e-09 0)
(4.43171 1.97852e-09 0)
(4.43171 1.7732e-08 0)
(4.43171 3.37426e-09 0)
(4.43171 1.43337e-08 0)
(4.43171 5.31767e-08 0)
(4.43171 -2.33341e-08 0)
(4.43171 9.47013e-08 0)
(4.43171 -1.58736e-07 0)
(4.43171 -3.25967e-07 0)
(5.06477 -2.91769e-07 0)
(5.06477 -3.09343e-07 0)
(5.06477 -7.94021e-08 0)
(5.06477 -3.51906e-08 0)
(5.06477 4.93737e-09 0)
(5.06477 -1.92263e-08 0)
(5.06477 2.02521e-10 0)
(5.06477 -1.06495e-09 0)
(5.06477 -6.53517e-09 0)
(5.06477 3.17127e-09 0)
(5.06477 -1.18577e-09 0)
(5.06477 -1.24083e-10 0)
(5.06477 2.31105e-08 0)
(5.06477 1.95004e-09 0)
(5.06477 1.78574e-08 0)
(5.06477 6.30183e-08 0)
(5.06477 -2.8965e-08 0)
(5.06477 1.13921e-07 0)
(5.06477 -1.85048e-07 0)
(5.06477 -3.7118e-07 0)
(5.57122 -2.60639e-07 0)
(5.57122 -2.77139e-07 0)
(5.57122 -7.64371e-08 0)
(5.57122 -3.4165e-08 0)
(5.57122 5.54101e-09 0)
(5.57122 -2.20621e-08 0)
(5.57122 -1.418e-09 0)
(5.57122 -2.38611e-09 0)
(5.57122 -7.60175e-09 0)
(5.57122 1.39122e-09 0)
(5.57122 -5.88931e-10 0)
(5.57122 -2.90092e-09 0)
(5.57122 2.78742e-08 0)
(5.57122 -6.2288e-11 0)
(5.57122 2.10658e-08 0)
(5.57122 7.02542e-08 0)
(5.57122 -3.20813e-08 0)
(5.57122 1.25477e-07 0)
(5.57122 -1.91296e-07 0)
(5.57122 -3.81393e-07 0)
(5.95105 -1.90665e-07 0)
(5.95105 -1.95904e-07 0)
(5.95105 -5.83209e-08 0)
(5.95105 -2.84109e-08 0)
(5.95105 6.92514e-09 0)
(5.95105 -2.40747e-08 0)
(5.95105 -3.03893e-09 0)
(5.95105 -3.96104e-09 0)
(5.95105 -8.55777e-09 0)
(5.95105 -9.12898e-10 0)
(5.95105 -6.43842e-11 0)
(5.95105 -6.13666e-09 0)
(5.95105 3.18856e-08 0)
(5.95105 -2.46342e-09 0)
(5.95105 2.38728e-08 0)
(5.95105 7.45995e-08 0)
(5.95105 -3.22277e-08 0)
(5.95105 1.28194e-07 0)
(5.95105 -1.77138e-07 0)
(5.95105 -3.55428e-07 0)
(6.20427 -9.02043e-08 0)
(6.20427 -7.52467e-08 0)
(6.20427 -2.7069e-08 0)
(6.20427 -1.86766e-08 0)
(6.20427 8.98057e-09 0)
(6.20427 -2.51982e-08 0)
(6.20427 -4.51354e-09 0)
(6.20427 -5.63452e-09 0)
(6.20427 -9.3481e-09 0)
(6.20427 -3.52064e-09 0)
(6.20427 3.95614e-10 0)
(6.20427 -9.58787e-09 0)
(6.20427 3.5027e-08 0)
(6.20427 -4.99414e-09 0)
(6.20427 2.61633e-08 0)
(6.20427 7.59847e-08 0)
(6.20427 -2.93587e-08 0)
(6.20427 1.22145e-07 0)
(6.20427 -1.4513e-07 0)
(6.20427 -2.96963e-07 0)
(6.33088 2.82401e-08 0)
(6.33088 6.87541e-08 0)
(6.33088 1.2362e-08 0)
(6.33088 -6.5399e-09 0)
(6.33088 1.13022e-08 0)
(6.33088 -2.54636e-08 0)
(6.33088 -5.76064e-09 0)
(6.33088 -7.26495e-09 0)
(6.33088 -9.92525e-09 0)
(6.33088 -6.20553e-09 0)
(6.33088 8.1159e-10 0)
(6.33088 -1.29949e-08 0)
(6.33088 3.72088e-08 0)
(6.33088 -7.41509e-09 0)
(6.33088 2.78455e-08 0)
(6.33088 7.45274e-08 0)
(6.33088 -2.38884e-08 0)
(6.33088 1.08654e-07 0)
(6.33088 -1.00028e-07 0)
(6.33088 -2.13795e-07 0)
(6.33089 1.49769e-07 0)
(6.33088 2.16149e-07 0)
(6.33088 5.31184e-08 0)
(6.33088 5.88998e-09 0)
(6.33088 1.33014e-08 0)
(6.33088 -2.49786e-08 0)
(6.33088 -6.75687e-09 0)
(6.33088 -8.72701e-09 0)
(6.33088 -1.0251e-08 0)
(6.33088 -8.74742e-09 0)
(6.33088 1.2073e-09 0)
(6.33088 -1.60987e-08 0)
(6.33088 3.83647e-08 0)
(6.33088 -9.51689e-09 0)
(6.33088 2.88302e-08 0)
(6.33088 7.05269e-08 0)
(6.33088 -1.6622e-08 0)
(6.33088 9.00071e-08 0)
(6.33088 -4.79763e-08 0)
(6.33088 -1.16608e-07 0)
(6.20428 2.58994e-07 0)
(6.20427 3.4614e-07 0)
(6.20427 8.78888e-08 0)
(6.20427 1.64369e-08 0)
(6.20427 1.43759e-08 0)
(6.20427 -2.38905e-08 0)
(6.20427 -7.51373e-09 0)
(6.20427 -9.90636e-09 0)
(6.20427 -1.02937e-08 0)
(6.20427 -1.09392e-08 0)
(6.20427 1.60399e-09 0)
(6.20427 -1.8652e-08 0)
(6.20427 3.8454e-08 0)
(6.20427 -1.11265e-08 0)
(6.20427 2.90344e-08 0)
(6.20427 6.44265e-08 0)
(6.20427 -8.61068e-09 0)
(6.20427 6.90461e-08 0)
(6.20427 4.27756e-09 0)
(6.20427 -1.75486e-08 0)
(5.95106 3.41911e-07 0)
(5.95105 4.40153e-07 0)
(5.95105 1.10474e-07 0)
(5.95105 2.33503e-08 0)
(5.95105 1.40867e-08 0)
(5.95105 -2.23396e-08 0)
(5.95105 -8.04824e-09 0)
(5.95105 -1.06905e-08 0)
(5.95105 -1.00253e-08 0)
(5.95105 -1.25894e-08 0)
(5.95105 2.01642e-09 0)
(5.95105 -2.04273e-08 0)
(5.95105 3.74636e-08 0)
(5.95105 -1.21061e-08 0)
(5.95105 2.83872e-08 0)
(5.95105 5.67676e-08 0)
(5.95105 -9.60636e-10 0)
(5.95105 4.86328e-08 0)
(5.95106 5.00917e-08 0)
(5.95105 7.12617e-08 0)
(5.57122 3.87734e-07 0)
(5.57122 4.84724e-07 0)
(5.57122 1.17134e-07 0)
(5.57122 2.57047e-08 0)
(5.57122 1.22848e-08 0)
(5.57122 -2.04196e-08 0)
(5.57122 -8.35492e-09 0)
(5.57122 -1.09644e-08 0)
(5.57122 -9.4178e-09 0)
(5.57122 -1.35255e-08 0)
(5.57122 2.44841e-09 0)
(5.57122 -2.12265e-08 0)
(5.57122 3.54061e-08 0)
(5.57122 -1.23526e-08 0)
(5.57122 2.68388e-08 0)
(5.57122 4.81267e-08 0)
(5.57122 5.36467e-09 0)
(5.57122 3.11521e-08 0)
(5.57122 8.36541e-08 0)
(5.57122 1.39261e-07 0)
(5.06478 3.90508e-07 0)
(5.06478 4.73842e-07 0)
(5.06478 1.07453e-07 0)
(5.06478 2.35836e-08 0)
(5.06478 9.16292e-09 0)
(5.06478 -1.81674e-08 0)
(5.06478 -8.38588e-09 0)
(5.06478 -1.06167e-08 0)
(5.06478 -8.44797e-09 0)
(5.06478 -1.36023e-08 0)
(5.06478 2.88411e-09 0)
(5.06478 -2.08946e-08 0)
(5.06478 3.23186e-08 0)
(5.06478 -1.18055e-08 0)
(5.06478 2.4372e-08 0)
(5.06478 3.90749e-08 0)
(5.06478 9.68167e-09 0)
(5.06478 1.81393e-08 0)
(5.06478 1.00752e-07 0)
(5.06478 1.78855e-07 0)
(4.43171 3.50294e-07 0)
(4.43171 4.10221e-07 0)
(4.43171 8.44789e-08 0)
(4.43171 1.80525e-08 0)
(4.43171 5.18747e-09 0)
(4.43171 -1.55312e-08 0)
(4.43171 -8.06755e-09 0)
(4.43171 -9.5689e-09 0)
(4.43171 -7.09599e-09 0)
(4.43171 -1.2725e-08 0)
(4.43171 3.2783e-09 0)
(4.43171 -1.92999e-08 0)
(4.43171 2.82227e-08 0)
(4.43171 -1.03874e-08 0)
(4.43171 2.10542e-08 0)
(4.43171 3.00719e-08 0)
(4.43171 1.17838e-08 0)
(4.43171 1.00802e-08 0)
(4.43171 9.95865e-08 0)
(4.43171 1.86523e-07 0)
(3.67201 2.74336e-07 0)
(3.67202 3.0846e-07 0)
(3.67202 5.47413e-08 0)
(3.67202 1.05473e-08 0)
(3.67202 1.88111e-09 0)
(3.67202 -1.27766e-08 0)
(3.67202 -6.98236e-09 0)
(3.67202 -7.56774e-09 0)
(3.67202 -5.38006e-09 0)
(3.67202 -1.0613e-08 0)
(3.67202 3.5289e-09 0)
(3.67202 -1.66855e-08 0)
(3.67202 2.34454e-08 0)
(3.67202 -8.94018e-09 0)
(3.67202 1.61572e-08 0)
(3.67202 2.21391e-08 0)
(3.67202 1.01393e-08 0)
(3.67202 5.56965e-09 0)
(3.67202 8.16961e-08 0)
(3.67202 1.63827e-07 0)
(2.78569 1.74354e-07 0)
(2.78569 1.77183e-07 0)
(2.7857 2.34806e-08 0)
(2.7857 4.63322e-09 0)
(2.7857 -3.4094e-09 0)
(2.7857 -7.93486e-09 0)
(2.7857 -6.13487e-09 0)
(2.7857 -5.87184e-09 0)
(2.7857 -3.40247e-09 0)
(2.7857 -8.44873e-09 0)
(2.7857 3.26939e-09 0)
(2.7857 -1.14139e-08 0)
(2.7857 1.62493e-08 0)
(2.7857 -3.28839e-09 0)
(2.7857 1.37683e-08 0)
(2.7857 1.29268e-08 0)
(2.7857 1.34998e-08 0)
(2.7857 7.2409e-09 0)
(2.7857 5.22444e-08 0)
(2.7857 1.15939e-07 0)
(1.77273 8.03173e-08 0)
(1.77273 8.12334e-08 0)
(1.77274 7.17146e-09 0)
(1.77274 -1.68838e-09 0)
(1.77274 -4.23993e-10 0)
(1.77274 -5.32253e-09 0)
(1.77274 -2.86018e-09 0)
(1.77274 -1.94319e-09 0)
(1.77274 -1.48879e-09 0)
(1.77274 -3.79742e-09 0)
(1.77274 2.75771e-09 0)
(1.77274 -8.09039e-09 0)
(1.77274 1.11983e-08 0)
(1.77274 -3.4363e-09 0)
(1.77274 3.61663e-09 0)
(1.77274 1.07699e-08 0)
(1.77274 2.4998e-09 0)
(1.77274 1.73152e-09 0)
(1.77274 2.36716e-08 0)
(1.77274 6.12301e-08 0)
(0.633127 1.80737e-08 0)
(0.633128 9.24089e-09 0)
(0.633129 -1.4887e-09 0)
(0.633129 3.62163e-10 0)
(0.633129 -2.48058e-09 0)
(0.633129 -1.23323e-10 0)
(0.633129 -1.18385e-09 0)
(0.633129 -8.47488e-10 0)
(0.633129 -6.06984e-11 0)
(0.633129 -1.63795e-09 0)
(0.633129 8.33231e-10 0)
(0.633129 -1.40502e-09 0)
(0.633129 1.93189e-09 0)
(0.633129 9.0718e-10 0)
(0.633129 3.04037e-09 0)
(0.633129 2.25188e-10 0)
(0.633129 4.88392e-09 0)
(0.633129 2.70122e-09 0)
(0.633129 3.97968e-09 0)
(0.633129 1.51128e-08 0)
)
;

boundaryField
{
    top
    {
        type            fixedValue;
        value           uniform (0 0 0);
    }
    bottom
    {
        type            fixedValue;
        value           uniform (0 0 0);
    }
    inlet
    {
        type            zeroGradient;
    }
    outlet
    {
        type            zeroGradient;
    }
    frontAndBack
    {
        type            empty;
    }
}


// ************************************************************************* //
