/*--------------------------------*- C++ -*----------------------------------*\
| =========                 |                                                 |
| \\      /  F ield         | OpenFOAM: The Open Source CFD Toolbox           |
|  \\    /   O peration     | Version:  4.1                                   |
|   \\  /    A nd           | Web:      www.OpenFOAM.org                      |
|    \\/     M anipulation  |                                                 |
\*---------------------------------------------------------------------------*/
FoamFile
{
    version     2.0;
    format      ascii;
    class       surfaceScalarField;
    location    "2.1";
    object      phi;
}
// * * * * * * * * * * * * * * * * * * * * * * * * * * * * * * * * * * * * * //

dimensions      [0 3 -1 0 0 0 0];

internalField   nonuniform List<scalar> 
760
(
-1.9164e-05
5.42036e-14
-1.9164e-05
5.15382e-13
-1.9164e-05
1.76042e-12
-1.9164e-05
1.18665e-12
-1.9164e-05
2.73476e-12
-1.9164e-05
1.8544e-12
-1.9164e-05
3.51901e-12
-1.9164e-05
2.28865e-12
-1.9164e-05
3.91767e-12
-1.9164e-05
2.49317e-12
-1.9164e-05
3.92639e-12
-1.9164e-05
2.45699e-12
-1.9164e-05
3.58002e-12
-1.9164e-05
2.23144e-12
-1.9164e-05
2.92302e-12
-1.9164e-05
1.83168e-12
-1.9164e-05
2.09416e-12
-1.9164e-05
1.29156e-12
-1.9164e-05
1.0791e-12
6.89265e-13
-5.11593e-05
4.07749e-13
-5.11593e-05
2.23479e-12
-5.11593e-05
4.25669e-12
-5.11593e-05
3.97724e-12
-5.11593e-05
6.31486e-12
-5.11593e-05
5.67861e-12
-5.11593e-05
8.08713e-12
-5.11593e-05
6.70322e-12
-5.11593e-05
8.99724e-12
-5.11593e-05
7.07474e-12
-5.11593e-05
9.01801e-12
-5.11593e-05
6.77652e-12
-5.11593e-05
8.23233e-12
-5.11593e-05
5.9458e-12
-5.11593e-05
6.75437e-12
-5.11593e-05
4.65256e-12
-5.11593e-05
4.87116e-12
-5.11593e-05
3.01656e-12
-5.11593e-05
2.65596e-12
1.37914e-12
-7.68217e-05
1.04174e-12
-7.68217e-05
4.67443e-12
-7.68217e-05
7.18141e-12
-7.68217e-05
7.59063e-12
-7.68217e-05
1.02721e-11
-7.68217e-05
1.05096e-11
-7.68217e-05
1.30718e-11
-7.68217e-05
1.2195e-11
-7.68217e-05
1.45057e-11
-7.68217e-05
1.27118e-11
-7.68217e-05
1.45132e-11
-7.68217e-05
1.2035e-11
-7.68217e-05
1.32307e-11
-7.68217e-05
1.04072e-11
-7.68217e-05
1.0864e-11
-7.68217e-05
7.95758e-12
-7.68217e-05
7.83676e-12
-7.68217e-05
4.96554e-12
-7.68217e-05
4.40808e-12
2.12631e-12
-9.61513e-05
1.91941e-12
-9.61513e-05
7.31219e-12
-9.61513e-05
1.03146e-11
-9.61513e-05
1.12304e-11
-9.61513e-05
1.43701e-11
-9.61513e-05
1.53073e-11
-9.61513e-05
1.81829e-11
-9.61513e-05
1.76102e-11
-9.61513e-05
2.01179e-11
-9.61513e-05
1.82483e-11
-9.61513e-05
2.00816e-11
-9.61513e-05
1.71838e-11
-9.61513e-05
1.82619e-11
-9.61513e-05
1.47596e-11
-9.61513e-05
1.49781e-11
-9.61513e-05
1.11629e-11
-9.61513e-05
1.07444e-11
-9.61513e-05
6.86989e-12
-9.61513e-05
6.1803e-12
2.86669e-12
-0.000109148
2.92107e-12
-0.000109148
1.00023e-11
-0.000109148
1.33672e-11
-0.000109148
1.47726e-11
-0.000109148
1.8288e-11
-0.000109148
1.99267e-11
-0.000109148
2.30491e-11
-0.000109148
2.27996e-11
-0.000109148
2.54462e-11
-0.000109148
2.35386e-11
-0.000109148
2.53559e-11
-0.000109148
2.2092e-11
-0.000109148
2.30135e-11
-0.000109148
1.88939e-11
-0.000109148
1.886e-11
-0.000109148
1.41898e-11
-0.000109148
1.34586e-11
-0.000109148
8.67173e-12
-0.000109148
7.91972e-12
3.60669e-12
-0.000115812
3.94116e-12
-0.000115812
1.25715e-11
-0.000115812
1.60644e-11
-0.000115812
1.80175e-11
-0.000115812
2.16846e-11
-0.000115812
2.41009e-11
-0.000115812
2.72557e-11
-0.000115812
2.74623e-11
-0.000115812
3.00427e-11
-0.000115812
2.82723e-11
-0.000115812
2.98993e-11
-0.000115812
2.64677e-11
-0.000115812
2.70987e-11
-0.000115812
2.2558e-11
-0.000115812
2.22026e-11
-0.000115812
1.68489e-11
-0.000115812
1.57745e-11
-0.000115812
1.0246e-11
-0.000115812
9.51715e-12
4.28993e-12
-0.000116143
4.8983e-12
-0.000116143
1.48725e-11
-0.000116143
1.82444e-11
-0.000116143
2.08178e-11
-0.000116143
2.43678e-11
-0.000116143
2.76389e-11
-0.000116143
3.0566e-11
-0.000116143
3.13849e-11
-0.000116143
3.36478e-11
-0.000116143
3.22308e-11
-0.000116143
3.34555e-11
-0.000116143
3.01066e-11
-0.000116143
3.02879e-11
-0.000116143
2.5578e-11
-0.000116143
2.48184e-11
-0.000116143
1.90123e-11
-0.000116143
1.75651e-11
-0.000116143
1.15092e-11
-0.000116143
1.08804e-11
4.87094e-12
-0.000110142
5.73229e-12
-0.000110142
1.67924e-11
-0.000110142
1.98281e-11
-0.000110142
2.30844e-11
-0.000110142
2.62582e-11
-0.000110142
3.04289e-11
-0.000110142
3.28795e-11
-0.000110142
3.4444e-11
-0.000110142
3.61488e-11
-0.000110142
3.52881e-11
-0.000110142
3.59105e-11
-0.000110142
3.2891e-11
-0.000110142
3.24771e-11
-0.000110142
2.78545e-11
-0.000110142
2.66183e-11
-0.000110142
2.06083e-11
-0.000110142
1.87692e-11
-0.000110142
1.24128e-11
-0.000110142
1.19361e-11
5.30987e-12
-9.78074e-05
6.39271e-12
-9.78074e-05
1.82312e-11
-9.78074e-05
2.07755e-11
-9.78074e-05
2.47382e-11
-9.78074e-05
2.73276e-11
-9.78074e-05
3.23763e-11
-9.78074e-05
3.41592e-11
-9.78074e-05
3.65368e-11
-9.78074e-05
3.75024e-11
-9.78074e-05
3.73407e-11
-9.78074e-05
3.72194e-11
-9.78074e-05
3.47258e-11
-9.78074e-05
3.36246e-11
-9.78074e-05
2.93096e-11
-9.78074e-05
2.75625e-11
-9.78074e-05
2.15839e-11
-9.78074e-05
1.93608e-11
-9.78074e-05
1.29218e-11
-9.78074e-05
1.26211e-11
5.57054e-12
-7.91402e-05
6.8373e-12
-7.91402e-05
1.91056e-11
-7.91402e-05
2.10714e-11
-7.91402e-05
2.57125e-11
-7.91402e-05
2.75818e-11
-7.91402e-05
3.34089e-11
-7.91402e-05
3.44122e-11
-7.91402e-05
3.7588e-11
-7.91402e-05
3.7717e-11
-7.91402e-05
3.83155e-11
-7.91402e-05
3.73903e-11
-7.91402e-05
3.55466e-11
-7.91402e-05
3.3738e-11
-7.91402e-05
2.98948e-11
-7.91402e-05
2.76526e-11
-7.91402e-05
2.19093e-11
-7.91402e-05
1.93446e-11
-7.91402e-05
1.30196e-11
-7.91402e-05
1.28901e-11
5.62577e-12
-5.41402e-05
7.03256e-12
-5.41402e-05
1.93514e-11
-5.41402e-05
2.0718e-11
-5.41402e-05
2.59497e-11
-5.41402e-05
2.70462e-11
-5.41402e-05
3.3472e-11
-5.41402e-05
3.36727e-11
-5.41402e-05
3.75444e-11
-5.41402e-05
3.6834e-11
-5.41402e-05
3.81651e-11
-5.41402e-05
3.64665e-11
-5.41402e-05
3.53154e-11
-5.41402e-05
3.28585e-11
-5.41402e-05
2.95863e-11
-5.41402e-05
2.69199e-11
-5.41402e-05
2.15751e-11
-5.41402e-05
1.87488e-11
-5.41402e-05
1.27072e-11
-5.41402e-05
1.27179e-11
5.46053e-12
-2.28074e-05
6.95713e-12
-2.28074e-05
1.8929e-11
-2.28074e-05
1.9734e-11
-2.28074e-05
2.54045e-11
-2.28074e-05
2.57601e-11
-2.28074e-05
3.25321e-11
-2.28074e-05
3.19946e-11
-2.28074e-05
3.63783e-11
-2.28074e-05
3.49193e-11
-2.28074e-05
3.68703e-11
-2.28074e-05
3.45172e-11
-2.28074e-05
3.40226e-11
-2.28074e-05
3.10521e-11
-2.28074e-05
2.8387e-11
-2.28074e-05
2.54186e-11
-2.28074e-05
2.05931e-11
-2.28074e-05
1.76184e-11
-2.28074e-05
1.20042e-11
-2.28074e-05
1.21027e-11
5.07492e-12
1.48582e-05
6.60733e-12
1.48582e-05
1.78303e-11
1.48582e-05
1.81577e-11
1.48582e-05
2.40512e-11
1.48582e-05
2.37744e-11
1.48582e-05
3.05827e-11
1.48582e-05
2.94476e-11
1.48582e-05
3.4093e-11
1.48582e-05
3.20575e-11
1.48582e-05
3.44454e-11
1.48582e-05
3.16313e-11
1.48582e-05
3.16913e-11
1.48582e-05
2.8404e-11
1.48582e-05
2.63283e-11
1.48582e-05
2.32202e-11
1.48582e-05
1.8997e-11
1.48582e-05
1.6011e-11
1.48582e-05
1.09466e-11
1.48582e-05
1.10682e-11
4.48641e-12
5.88566e-05
6.00358e-12
5.88566e-05
1.60873e-11
5.88566e-05
1.60531e-11
5.88566e-05
2.18967e-11
5.88566e-05
2.11561e-11
5.88566e-05
2.76564e-11
5.88566e-05
2.61217e-11
5.88566e-05
3.07353e-11
5.88566e-05
2.83556e-11
5.88566e-05
3.09493e-11
5.88566e-05
2.79201e-11
5.88566e-05
2.83861e-11
5.88566e-05
2.50188e-11
5.88566e-05
2.34766e-11
5.88566e-05
2.04139e-11
5.88566e-05
1.68455e-11
5.88566e-05
1.39951e-11
5.88566e-05
9.5854e-12
5.88566e-05
9.66554e-12
3.73116e-12
0.000109188
5.19259e-12
0.000109188
1.37737e-11
0.000109188
1.35082e-11
0.000109188
1.89848e-11
0.000109188
1.79824e-11
0.000109188
2.38277e-11
0.000109188
2.21175e-11
0.000109188
2.6397e-11
0.000109188
2.39303e-11
0.000109188
2.64867e-11
0.000109188
2.35032e-11
0.000109188
2.42132e-11
0.000109188
2.10079e-11
0.000109188
1.99316e-11
0.000109188
1.70946e-11
0.000109188
1.42209e-11
0.000109188
1.16423e-11
0.000109188
7.98156e-12
0.000109188
7.96891e-12
2.86357e-12
0.000165852
4.24926e-12
0.000165852
1.10216e-11
0.000165852
1.06696e-11
0.000165852
1.54409e-11
0.000165852
1.43936e-11
0.000165852
1.92709e-11
0.000165852
1.76119e-11
0.000165852
2.12822e-11
0.000165852
1.89778e-11
0.000165852
2.12758e-11
0.000165852
1.85764e-11
0.000165852
1.93835e-11
0.000165852
1.65497e-11
0.000165852
1.58796e-11
0.000165852
1.34109e-11
0.000165852
1.12673e-11
0.000165852
9.05928e-12
0.000165852
6.22858e-12
0.000165852
6.08596e-12
1.96341e-12
0.000228849
3.28271e-12
0.000228849
8.03645e-12
0.000228849
7.75321e-12
0.000228849
1.14989e-11
0.000228849
1.06125e-11
0.000228849
1.42878e-11
0.000228849
1.28758e-11
0.000228849
1.57346e-11
0.000228849
1.3789e-11
0.000228849
1.5673e-11
0.000228849
1.34247e-11
0.000228849
1.42323e-11
0.000228849
1.1897e-11
0.000228849
1.16063e-11
0.000228849
9.56945e-12
0.000228849
8.19637e-12
0.000228849
6.38527e-12
0.000228849
4.45617e-12
0.000228849
4.14723e-12
1.13163e-12
0.000298178
2.26637e-12
0.000298178
4.95524e-12
0.000298178
4.87136e-12
0.000298178
7.27907e-12
0.000298178
6.71302e-12
0.000298178
9.04826e-12
0.000298178
8.00535e-12
0.000298178
9.96049e-12
0.000298178
8.47131e-12
0.000298178
9.90389e-12
0.000298178
8.16022e-12
0.000298178
8.98025e-12
0.000298178
7.15402e-12
0.000298178
7.30836e-12
0.000298178
5.66599e-12
0.000298178
5.15777e-12
0.000298178
3.69258e-12
0.000298178
2.77045e-12
0.000298178
2.25134e-12
5.00488e-13
0.000373841
1.28166e-12
0.000373841
2.07078e-12
0.000373841
2.25729e-12
0.000373841
3.1541e-12
0.000373841
2.96066e-12
0.000373841
3.97198e-12
0.000373841
3.32816e-12
0.000373841
4.4036e-12
0.000373841
3.37511e-12
0.000373841
4.39632e-12
0.000373841
3.12715e-12
0.000373841
4.00326e-12
0.000373841
2.62599e-12
0.000373841
3.27639e-12
0.000373841
1.95696e-12
0.000373841
2.3367e-12
0.000373841
1.14132e-12
0.000373841
1.26702e-12
0.000373841
5.43677e-13
1.31404e-13
0.000455836
0.000455836
0.000455836
0.000455836
0.000455836
0.000455836
0.000455836
0.000455836
0.000455836
0.000455836
0.000455836
0.000455836
0.000455836
0.000455836
0.000455836
0.000455836
0.000455836
0.000455836
0.000455836
)
;

boundaryField
{
    top
    {
        type            calculated;
        value           uniform 0;
    }
    bottom
    {
        type            calculated;
        value           uniform 0;
    }
    inlet
    {
        type            calculated;
        value           nonuniform List<scalar> 
20
(
1.9164e-05
5.11593e-05
7.68217e-05
9.61513e-05
0.000109148
0.000115812
0.000116143
0.000110142
9.78074e-05
7.91402e-05
5.41402e-05
2.28074e-05
-1.48582e-05
-5.88566e-05
-0.000109188
-0.000165852
-0.000228849
-0.000298178
-0.000373841
-0.000455836
)
;
    }
    outlet
    {
        type            calculated;
        value           nonuniform List<scalar> 
20
(
-1.9164e-05
-5.11593e-05
-7.68217e-05
-9.61513e-05
-0.000109148
-0.000115812
-0.000116143
-0.000110142
-9.78074e-05
-7.91402e-05
-5.41402e-05
-2.28074e-05
1.48582e-05
5.88566e-05
0.000109188
0.000165852
0.000228849
0.000298178
0.000373841
0.000455836
)
;
    }
    frontAndBack
    {
        type            empty;
        value           nonuniform 0();
    }
}


// ************************************************************************* //
