/*--------------------------------*- C++ -*----------------------------------*\
| =========                 |                                                 |
| \\      /  F ield         | OpenFOAM: The Open Source CFD Toolbox           |
|  \\    /   O peration     | Version:  4.1                                   |
|   \\  /    A nd           | Web:      www.OpenFOAM.org                      |
|    \\/     M anipulation  |                                                 |
\*---------------------------------------------------------------------------*/
FoamFile
{
    version     2.0;
    format      ascii;
    class       volVectorField;
    location    "2.1";
    object      U;
}
// * * * * * * * * * * * * * * * * * * * * * * * * * * * * * * * * * * * * * //

dimensions      [0 1 -1 0 0 0 0];

internalField   nonuniform List<vector> 
400
(
(-0.383281 -6.86196e-11 0)
(-0.383281 3.91202e-10 0)
(-0.383281 8.25331e-10 0)
(-0.383281 8.25861e-10 0)
(-0.383281 1.30721e-09 0)
(-0.383281 1.25186e-09 0)
(-0.383281 1.68987e-09 0)
(-0.383281 1.51007e-09 0)
(-0.383281 1.8826e-09 0)
(-0.383281 1.6177e-09 0)
(-0.383281 1.8874e-09 0)
(-0.383281 1.56031e-09 0)
(-0.383281 1.72611e-09 0)
(-0.383281 1.38022e-09 0)
(-0.383281 1.41122e-09 0)
(-0.383281 1.07989e-09 0)
(-0.383281 1.05259e-09 0)
(-0.383281 6.93031e-10 0)
(-0.383281 5.26335e-10 0)
(-0.383281 3.60882e-10 0)
(-1.02319 4.13982e-10 0)
(-1.02319 1.47562e-09 0)
(-1.02319 3.3033e-09 0)
(-1.02319 2.84366e-09 0)
(-1.02319 5.00934e-09 0)
(-1.02319 4.07651e-09 0)
(-1.02319 6.37245e-09 0)
(-1.02319 4.83951e-09 0)
(-1.02319 7.03827e-09 0)
(-1.02319 5.12522e-09 0)
(-1.02319 7.0109e-09 0)
(-1.02319 4.9242e-09 0)
(-1.02319 6.35609e-09 0)
(-1.02319 4.32845e-09 0)
(-1.02319 5.1719e-09 0)
(-1.02319 3.41794e-09 0)
(-1.02319 3.64747e-09 0)
(-1.02319 2.2601e-09 0)
(-1.02319 1.90845e-09 0)
(-1.02319 9.72886e-10 0)
(-1.53643 6.92708e-10 0)
(-1.53643 3.57309e-09 0)
(-1.53643 5.88219e-09 0)
(-1.53643 6.07863e-09 0)
(-1.53643 8.56791e-09 0)
(-1.53643 8.53734e-09 0)
(-1.53643 1.09207e-08 0)
(-1.53643 9.97538e-09 0)
(-1.53643 1.2123e-08 0)
(-1.53643 1.04468e-08 0)
(-1.53643 1.21322e-08 0)
(-1.53643 9.93003e-09 0)
(-1.53643 1.10656e-08 0)
(-1.53643 8.63183e-09 0)
(-1.53643 9.07728e-09 0)
(-1.53643 6.64526e-09 0)
(-1.53643 6.57087e-09 0)
(-1.53643 4.18784e-09 0)
(-1.53643 3.60022e-09 0)
(-1.53643 1.88018e-09 0)
(-1.92303 1.47321e-09 0)
(-1.92303 5.97717e-09 0)
(-1.92303 8.67329e-09 0)
(-1.92303 9.38464e-09 0)
(-1.92303 1.21992e-08 0)
(-1.92303 1.28425e-08 0)
(-1.92303 1.54606e-08 0)
(-1.92303 1.48088e-08 0)
(-1.92303 1.71197e-08 0)
(-1.92303 1.53672e-08 0)
(-1.92303 1.70993e-08 0)
(-1.92303 1.44901e-08 0)
(-1.92303 1.55655e-08 0)
(-1.92303 1.24667e-08 0)
(-1.92303 1.27715e-08 0)
(-1.92303 9.45963e-09 0)
(-1.92303 9.17471e-09 0)
(-1.92303 5.83567e-09 0)
(-1.92303 5.21406e-09 0)
(-1.92303 2.41135e-09 0)
(-2.18296 2.37946e-09 0)
(-2.18296 8.58833e-09 0)
(-2.18296 1.17867e-08 0)
(-2.18296 1.29125e-08 0)
(-2.18296 1.62355e-08 0)
(-2.18296 1.75021e-08 0)
(-2.18296 2.04977e-08 0)
(-2.18296 2.00741e-08 0)
(-2.18296 2.26523e-08 0)
(-2.18296 2.07601e-08 0)
(-2.18296 2.25885e-08 0)
(-2.18296 1.95135e-08 0)
(-2.18296 2.0522e-08 0)
(-2.18296 1.67225e-08 0)
(-2.18296 1.68245e-08 0)
(-2.18296 1.25984e-08 0)
(-2.18296 1.20373e-08 0)
(-2.18296 7.72245e-09 0)
(-2.18296 6.99642e-09 0)
(-2.18296 3.19968e-09 0)
(-2.31624 3.39193e-09 0)
(-2.31624 1.12316e-08 0)
(-2.31624 1.46508e-08 0)
(-2.31624 1.62986e-08 0)
(-2.31624 1.98671e-08 0)
(-2.31624 2.18922e-08 0)
(-2.31624 2.50075e-08 0)
(-2.31624 2.49941e-08 0)
(-2.31624 2.75906e-08 0)
(-2.31624 2.57681e-08 0)
(-2.31624 2.74792e-08 0)
(-2.31624 2.41538e-08 0)
(-2.31624 2.49257e-08 0)
(-2.31624 2.06221e-08 0)
(-2.31624 2.04289e-08 0)
(-2.31624 1.54431e-08 0)
(-2.31624 1.45505e-08 0)
(-2.31624 9.41392e-09 0)
(-2.31624 8.67823e-09 0)
(-2.31624 3.91175e-09 0)
(-2.32287 4.38324e-09 0)
(-2.32287 1.36715e-08 0)
(-2.32287 1.70753e-08 0)
(-2.32287 1.92943e-08 0)
(-2.32287 2.28769e-08 0)
(-2.32287 2.57131e-08 0)
(-2.32287 2.87318e-08 0)
(-2.32287 2.92475e-08 0)
(-2.32287 3.16574e-08 0)
(-2.32287 3.00755e-08 0)
(-2.32287 3.14982e-08 0)
(-2.32287 2.81264e-08 0)
(-2.32287 2.85369e-08 0)
(-2.32287 2.39362e-08 0)
(-2.32287 2.33895e-08 0)
(-2.32287 1.78345e-08 0)
(-2.32287 1.65923e-08 0)
(-2.32287 1.08236e-08 0)
(-2.32287 1.01646e-08 0)
(-2.32287 4.5436e-09 0)
(-2.20284 5.28824e-09 0)
(-2.20284 1.58017e-08 0)
(-2.20284 1.89617e-08 0)
(-2.20284 2.18381e-08 0)
(-2.20284 2.51681e-08 0)
(-2.20284 2.88899e-08 0)
(-2.20284 3.15529e-08 0)
(-2.20284 3.27528e-08 0)
(-2.20284 3.47238e-08 0)
(-2.20284 3.35985e-08 0)
(-2.20284 3.45195e-08 0)
(-2.20284 3.13526e-08 0)
(-2.20284 3.12427e-08 0)
(-2.20284 2.65968e-08 0)
(-2.20284 2.5614e-08 0)
(-2.20284 1.97237e-08 0)
(-2.20284 1.81021e-08 0)
(-2.20284 1.1914e-08 0)
(-2.20284 1.13924e-08 0)
(-2.20284 5.06073e-09 0)
(-1.95615 6.0414e-09 0)
(-1.95615 1.74957e-08 0)
(-1.95615 2.02253e-08 0)
(-1.95615 2.37987e-08 0)
(-1.95615 2.66431e-08 0)
(-1.95615 3.12556e-08 0)
(-1.95615 3.3346e-08 0)
(-1.95615 3.5324e-08 0)
(-1.95615 3.66494e-08 0)
(-1.95615 3.61478e-08 0)
(-1.95615 3.64013e-08 0)
(-1.95615 3.36565e-08 0)
(-1.95615 3.29127e-08 0)
(-1.95615 2.84569e-08 0)
(-1.95615 2.69895e-08 0)
(-1.95615 2.10048e-08 0)
(-1.95615 1.90029e-08 0)
(-1.95615 1.26175e-08 0)
(-1.95615 1.22796e-08 0)
(-1.95615 5.41715e-09 0)
(-1.5828 6.59786e-09 0)
(-1.5828 1.86676e-08 0)
(-1.5828 2.08452e-08 0)
(-1.5828 2.51173e-08 0)
(-1.5828 2.73016e-08 0)
(-1.5828 3.27462e-08 0)
(-1.5828 3.41099e-08 0)
(-1.5828 3.68945e-08 0)
(-1.5828 3.74321e-08 0)
(-1.5828 3.76583e-08 0)
(-1.5828 3.71409e-08 0)
(-1.5828 3.498e-08 0)
(-1.5828 3.35439e-08 0)
(-1.5828 2.94716e-08 0)
(-1.5828 2.75086e-08 0)
(-1.5828 2.165e-08 0)
(-1.5828 1.92922e-08 0)
(-1.5828 1.29158e-08 0)
(-1.5828 1.27743e-08 0)
(-1.5828 5.58262e-09 0)
(-1.0828 6.91935e-09 0)
(-1.0828 1.92415e-08 0)
(-1.0828 2.08169e-08 0)
(-1.0828 2.57312e-08 0)
(-1.0828 2.71617e-08 0)
(-1.0828 3.32984e-08 0)
(-1.0828 3.3868e-08 0)
(-1.0828 3.74003e-08 0)
(-1.0828 3.70992e-08 0)
(-1.0828 3.80704e-08 0)
(-1.0828 3.67657e-08 0)
(-1.0828 3.52726e-08 0)
(-1.0828 3.31621e-08 0)
(-1.0828 2.96057e-08 0)
(-1.0828 2.71887e-08 0)
(-1.0828 2.16406e-08 0)
(-1.0828 1.89869e-08 0)
(-1.0828 1.28018e-08 0)
(-1.0828 1.28323e-08 0)
(-1.0828 5.53533e-09 0)
(-0.456148 6.97762e-09 0)
(-0.456148 1.91638e-08 0)
(-0.456148 2.01516e-08 0)
(-0.456148 2.55877e-08 0)
(-0.456148 2.62573e-08 0)
(-0.456148 3.2867e-08 0)
(-0.456148 3.2666e-08 0)
(-0.456148 3.68002e-08 0)
(-0.456148 3.57063e-08 0)
(-0.456148 3.735e-08 0)
(-0.456148 3.5334e-08 0)
(-0.456148 3.45102e-08 0)
(-0.456148 3.18228e-08 0)
(-0.456148 2.88487e-08 0)
(-0.456148 2.60736e-08 0)
(-0.456148 2.09779e-08 0)
(-0.456148 1.81244e-08 0)
(-0.456148 1.22866e-08 0)
(-0.456148 1.244e-08 0)
(-0.456148 5.26642e-09 0)
(0.297164 6.75931e-09 0)
(0.297164 1.8407e-08 0)
(0.297164 1.88772e-08 0)
(0.297164 2.46498e-08 0)
(0.297164 2.4633e-08 0)
(0.297164 3.14309e-08 0)
(0.297164 3.05653e-08 0)
(0.297164 3.50812e-08 0)
(0.297164 3.33283e-08 0)
(0.297164 3.54941e-08 0)
(0.297164 3.29245e-08 0)
(0.297164 3.26991e-08 0)
(0.297164 2.96012e-08 0)
(0.297164 2.72182e-08 0)
(0.297164 2.42263e-08 0)
(0.297164 1.96848e-08 0)
(0.297164 1.67559e-08 0)
(0.297164 1.13993e-08 0)
(0.297164 1.16091e-08 0)
(0.297164 4.78307e-09 0)
(1.17713 6.2701e-09 0)
(1.17713 1.69728e-08 0)
(1.17713 1.70327e-08 0)
(1.17713 2.28939e-08 0)
(1.17713 2.23295e-08 0)
(1.17713 2.89854e-08 0)
(1.17713 2.76232e-08 0)
(1.17713 3.22484e-08 0)
(1.17713 3.00365e-08 0)
(1.17713 3.25189e-08 0)
(1.17713 2.96135e-08 0)
(1.17713 2.98645e-08 0)
(1.17713 2.65706e-08 0)
(1.17713 2.47473e-08 0)
(1.17713 2.17101e-08 0)
(1.17713 1.77968e-08 0)
(1.17713 1.49323e-08 0)
(1.17713 1.01786e-08 0)
(1.17713 1.0371e-08 0)
(1.17713 4.10825e-09 0)
(2.18376 5.55521e-09 0)
(2.18376 1.4941e-08 0)
(2.18376 1.473e-08 0)
(2.18376 2.03888e-08 0)
(2.18376 1.94762e-08 0)
(2.18376 2.56442e-08 0)
(2.18376 2.40065e-08 0)
(2.18376 2.84406e-08 0)
(2.18376 2.60212e-08 0)
(2.18376 2.85788e-08 0)
(2.18376 2.55935e-08 0)
(2.18376 2.61603e-08 0)
(2.18376 2.29087e-08 0)
(2.18376 2.15768e-08 0)
(2.18376 1.86729e-08 0)
(2.18376 1.54277e-08 0)
(2.18376 1.27623e-08 0)
(2.18376 8.70693e-09 0)
(2.18376 8.80813e-09 0)
(2.18376 3.29578e-09 0)
(3.31704 4.66961e-09 0)
(3.31704 1.23847e-08 0)
(3.31704 1.20337e-08 0)
(3.31704 1.71614e-08 0)
(3.31704 1.61017e-08 0)
(3.31704 2.14533e-08 0)
(3.31704 1.97563e-08 0)
(3.31704 2.37162e-08 0)
(3.31704 2.13334e-08 0)
(3.31704 2.37436e-08 0)
(3.31704 2.09197e-08 0)
(3.31704 2.16595e-08 0)
(3.31704 1.86694e-08 0)
(3.31704 1.77759e-08 0)
(3.31704 1.51644e-08 0)
(3.31704 1.26372e-08 0)
(3.31704 1.02863e-08 0)
(3.31704 7.02944e-09 0)
(3.31704 6.99249e-09 0)
(3.31704 2.39844e-09 0)
(4.57697 3.60779e-09 0)
(4.57697 9.40587e-09 0)
(4.57697 9.0765e-09 0)
(4.57697 1.33027e-08 0)
(4.57697 1.2339e-08 0)
(4.57697 1.65677e-08 0)
(4.57697 1.50529e-08 0)
(4.57697 1.8273e-08 0)
(4.57697 1.61848e-08 0)
(4.57697 1.82413e-08 0)
(4.57697 1.5813e-08 0)
(4.57697 1.65929e-08 0)
(4.57697 1.40627e-08 0)
(4.57697 1.35607e-08 0)
(4.57697 1.13675e-08 0)
(4.57697 9.59809e-09 0)
(4.57697 7.65206e-09 0)
(4.57697 5.26508e-09 0)
(4.57697 5.06674e-09 0)
(4.57697 1.55235e-09 0)
(5.96357 3.01599e-09 0)
(5.96357 6.67325e-09 0)
(5.96357 6.57968e-09 0)
(5.96357 9.78262e-09 0)
(5.96357 9.0936e-09 0)
(5.96357 1.2126e-08 0)
(5.96357 1.09533e-08 0)
(5.96357 1.33378e-08 0)
(5.96357 1.16617e-08 0)
(5.96357 1.32649e-08 0)
(5.96357 1.12956e-08 0)
(5.96357 1.20286e-08 0)
(5.96357 9.95562e-09 0)
(5.96357 9.78452e-09 0)
(5.96357 7.94747e-09 0)
(5.96357 6.8982e-09 0)
(5.96357 5.22557e-09 0)
(5.96357 3.73272e-09 0)
(5.96357 3.26069e-09 0)
(5.96357 7.51609e-10 0)
(7.47681 1.5965e-09 0)
(7.47681 3.39634e-09 0)
(7.47681 3.64638e-09 0)
(7.47681 5.25668e-09 0)
(7.47681 5.06135e-09 0)
(7.47681 6.71851e-09 0)
(7.47681 5.9584e-09 0)
(7.47681 7.49711e-09 0)
(7.47681 6.25736e-09 0)
(7.47681 7.53477e-09 0)
(7.47681 5.98433e-09 0)
(7.47681 6.90088e-09 0)
(7.47681 5.20966e-09 0)
(7.47681 5.69516e-09 0)
(7.47681 4.06026e-09 0)
(7.47681 4.10366e-09 0)
(7.47681 2.60989e-09 0)
(7.47681 2.2756e-09 0)
(7.47681 1.44584e-09 0)
(7.47681 4.63467e-10 0)
(9.11672 7.0832e-10 0)
(9.11672 1.01476e-09 0)
(9.11672 1.12232e-09 0)
(9.11672 1.63025e-09 0)
(9.11672 1.55113e-09 0)
(9.11672 2.01342e-09 0)
(9.11672 1.79682e-09 0)
(9.11672 2.21469e-09 0)
(9.11672 1.85272e-09 0)
(9.11672 2.19469e-09 0)
(9.11672 1.74416e-09 0)
(9.11672 1.98828e-09 0)
(9.11672 1.4881e-09 0)
(9.11672 1.61305e-09 0)
(9.11672 1.12949e-09 0)
(9.11672 1.13992e-09 0)
(9.11672 6.59904e-10 0)
(9.11672 6.18629e-10 0)
(9.11672 3.32926e-10 0)
(9.11672 -3.68879e-11 0)
)
;

boundaryField
{
    top
    {
        type            fixedValue;
        value           uniform (10 0 0);
    }
    bottom
    {
        type            fixedValue;
        value           uniform (0 0 0);
    }
    inlet
    {
        type            zeroGradient;
    }
    outlet
    {
        type            zeroGradient;
    }
    frontAndBack
    {
        type            empty;
    }
}


// ************************************************************************* //
