/*--------------------------------*- C++ -*----------------------------------*\
| =========                 |                                                 |
| \\      /  F ield         | OpenFOAM: The Open Source CFD Toolbox           |
|  \\    /   O peration     | Version:  4.1                                   |
|   \\  /    A nd           | Web:      www.OpenFOAM.org                      |
|    \\/     M anipulation  |                                                 |
\*---------------------------------------------------------------------------*/
FoamFile
{
    version     2.0;
    format      ascii;
    class       surfaceScalarField;
    location    "1.2";
    object      phi;
}
// * * * * * * * * * * * * * * * * * * * * * * * * * * * * * * * * * * * * * //

dimensions      [0 3 -1 0 0 0 0];

internalField   nonuniform List<scalar> 
760
(
-1.91632e-05
-1.27544e-12
-1.91632e-05
7.92831e-13
-1.91632e-05
-6.12376e-12
-1.91632e-05
-4.09553e-12
-1.91632e-05
-1.24114e-11
-1.91632e-05
-6.42046e-12
-1.91632e-05
-1.62623e-11
-1.91632e-05
-7.65823e-12
-1.91632e-05
-1.7949e-11
-1.91632e-05
-8.09772e-12
-1.91632e-05
-1.77981e-11
-1.91632e-05
-7.95318e-12
-1.91632e-05
-1.60236e-11
-1.91632e-05
-7.35937e-12
-1.91632e-05
-1.28251e-11
-1.91632e-05
-6.49446e-12
-1.91632e-05
-8.68112e-12
-1.91632e-05
-5.21424e-12
-1.91632e-05
-5.34454e-12
-1.88079e-12
-5.11569e-05
-1.43816e-12
-5.11569e-05
2.43169e-12
-5.11569e-05
-1.1964e-11
-5.11569e-05
-1.19014e-11
-5.11569e-05
-2.70559e-11
-5.11569e-05
-1.84709e-11
-5.11569e-05
-3.5296e-11
-5.11569e-05
-2.16171e-11
-5.11569e-05
-3.86945e-11
-5.11569e-05
-2.2449e-11
-5.11569e-05
-3.82193e-11
-5.11569e-05
-2.15275e-11
-5.11569e-05
-3.43305e-11
-5.11569e-05
-1.92233e-11
-5.11569e-05
-2.74849e-11
-5.11569e-05
-1.60393e-11
-5.11569e-05
-1.8498e-11
-5.11569e-05
-1.28327e-11
-5.11569e-05
-1.10855e-11
-1.77358e-12
-7.68178e-05
2.41858e-15
-7.68178e-05
5.5017e-12
-7.68178e-05
-1.72635e-11
-7.68178e-05
-2.19041e-11
-7.68178e-05
-4.28373e-11
-7.68179e-05
-3.40959e-11
-7.68178e-05
-5.55656e-11
-7.68179e-05
-3.95945e-11
-7.68178e-05
-6.05233e-11
-7.68179e-05
-4.07614e-11
-7.68178e-05
-5.94903e-11
-7.68179e-05
-3.86289e-11
-7.68179e-05
-5.32471e-11
-7.68179e-05
-3.38733e-11
-7.68179e-05
-4.2555e-11
-7.68179e-05
-2.74168e-11
-7.68179e-05
-2.84028e-11
-7.68179e-05
-2.20636e-11
-7.68179e-05
-1.54121e-11
2.97441e-13
-9.6146e-05
3.38412e-12
-9.61461e-05
9.9361e-12
-9.61461e-05
-2.19779e-11
-9.61461e-05
-3.34814e-11
-9.61461e-05
-5.88359e-11
-9.61461e-05
-5.22825e-11
-9.61461e-05
-7.59814e-11
-9.61461e-05
-6.04955e-11
-9.61461e-05
-8.23607e-11
-9.61461e-05
-6.20083e-11
-9.61461e-05
-8.06741e-11
-9.61461e-05
-5.83808e-11
-9.61461e-05
-7.20334e-11
-9.61461e-05
-5.06413e-11
-9.61461e-05
-5.75381e-11
-9.61461e-05
-4.01707e-11
-9.61461e-05
-3.82457e-11
-9.61461e-05
-3.23245e-11
-9.61461e-05
-1.7857e-11
4.17436e-12
-0.000109142
8.92079e-12
-0.000109142
1.65222e-11
-0.000109142
-2.51565e-11
-0.000109142
-4.40846e-11
-0.000109142
-7.27681e-11
-0.000109142
-6.93545e-11
-0.000109142
-9.37448e-11
-0.000109142
-8.01572e-11
-0.000109142
-1.01254e-10
-0.000109142
-8.19821e-11
-0.000109142
-9.89147e-11
-0.000109142
-7.69094e-11
-0.000109142
-8.81445e-11
-0.000109142
-6.63037e-11
-0.000109142
-7.03566e-11
-0.000109142
-5.19586e-11
-0.000109142
-4.65813e-11
-0.000109142
-4.19983e-11
-0.000109142
-1.75589e-11
1.00226e-11
-0.000115804
1.60593e-11
-0.000115804
2.45895e-11
-0.000115804
-2.71008e-11
-0.000115805
-5.33615e-11
-0.000115805
-8.43482e-11
-0.000115805
-8.46274e-11
-0.000115805
-1.08479e-10
-0.000115805
-9.78019e-11
-0.000115805
-1.1683e-10
-0.000115805
-9.99207e-11
-0.000115805
-1.13881e-10
-0.000115805
-9.35411e-11
-0.000115805
-1.01308e-10
-0.000115805
-8.03293e-11
-0.000115805
-8.08099e-11
-0.000115805
-6.24293e-11
-0.000115805
-5.33153e-11
-0.000115805
-5.06828e-11
-0.000115805
-1.47279e-11
1.7295e-11
-0.000116135
2.39946e-11
-0.000116135
3.33018e-11
-0.000116135
-2.80692e-11
-0.000116135
-6.09375e-11
-0.000116135
-9.3278e-11
-0.000116135
-9.73557e-11
-0.000116135
-1.19766e-10
-0.000116135
-1.12556e-10
-0.000116135
-1.28656e-10
-0.000116135
-1.14939e-10
-0.000116135
-1.25156e-10
-0.000116135
-1.07465e-10
-0.000116135
-1.11158e-10
-0.000116135
-9.20505e-11
-0.000116135
-8.85964e-11
-0.000116135
-7.11113e-11
-0.000116135
-5.82463e-11
-0.000116135
-5.79512e-11
-0.000116135
-9.81785e-12
2.53319e-11
-0.000110132
3.17375e-11
-0.000110132
4.15815e-11
-0.000110132
-2.83894e-11
-0.000110132
-6.67066e-11
-0.000110132
-9.94868e-11
-0.000110132
-1.07174e-10
-0.000110132
-1.27475e-10
-0.000110132
-1.2397e-10
-0.000110132
-1.366e-10
-0.000110132
-1.26576e-10
-0.000110132
-1.32623e-10
-0.000110132
-1.18257e-10
-0.000110132
-1.17593e-10
-0.000110132
-1.01116e-10
-0.000110132
-9.36342e-11
-0.000110132
-7.77584e-11
-0.000110132
-6.13299e-11
-0.000110132
-6.35513e-11
-0.000110132
-3.60221e-12
3.32833e-11
-9.77976e-05
3.82807e-11
-9.77976e-05
4.83261e-11
-9.77976e-05
-2.83459e-11
-9.77976e-05
-7.06513e-11
-9.77976e-05
-1.02974e-10
-9.77976e-05
-1.13871e-10
-9.77976e-05
-1.31577e-10
-9.77976e-05
-1.3177e-10
-9.77976e-05
-1.40644e-10
-9.77976e-05
-1.34544e-10
-9.77976e-05
-1.36276e-10
-9.77976e-05
-1.25648e-10
-9.77976e-05
-1.20621e-10
-9.77976e-05
-1.07299e-10
-9.77976e-05
-9.59308e-11
-9.77976e-05
-8.2213e-11
-9.77976e-05
-6.25902e-11
-9.77976e-05
-6.73101e-11
-9.77976e-05
3.00123e-12
4.02415e-11
-7.91301e-05
4.27332e-11
-7.91301e-05
5.25532e-11
-7.91301e-05
-2.81434e-11
-7.91301e-05
-7.27666e-11
-7.91301e-05
-1.03752e-10
-7.91301e-05
-1.17296e-10
-7.91301e-05
-1.32076e-10
-7.91301e-05
-1.35759e-10
-7.91301e-05
-1.4081e-10
-7.91301e-05
-1.38634e-10
-7.91301e-05
-1.36151e-10
-7.91301e-05
-1.29437e-10
-7.91301e-05
-1.20287e-10
-7.91301e-05
-1.10432e-10
-7.91301e-05
-9.55293e-11
-7.91301e-05
-8.43548e-11
-7.91301e-05
-6.20831e-11
-7.91301e-05
-6.90898e-11
-7.91302e-05
9.07914e-12
4.53468e-11
-5.41301e-05
4.44372e-11
-5.41301e-05
5.35266e-11
-5.41301e-05
-2.79136e-11
-5.41301e-05
-7.30556e-11
-5.41301e-05
-1.01861e-10
-5.41301e-05
-1.17373e-10
-5.41301e-05
-1.29033e-10
-5.41301e-05
-1.35833e-10
-5.41301e-05
-1.37183e-10
-5.41301e-05
-1.3873e-10
-5.41301e-05
-1.32348e-10
-5.41301e-05
-1.29512e-10
-5.41301e-05
-1.16696e-10
-5.41301e-05
-1.10417e-10
-5.41301e-05
-9.25224e-11
-5.41301e-05
-8.41161e-11
-5.41301e-05
-5.99021e-11
-5.41301e-05
-6.87922e-11
-5.41301e-05
1.38559e-11
4.79016e-11
-2.27976e-05
4.3058e-11
-2.27976e-05
5.08695e-11
-2.27976e-05
-2.77067e-11
-2.27976e-05
-7.15184e-11
-2.27976e-05
-9.73732e-11
-2.27976e-05
-1.14094e-10
-2.27976e-05
-1.22571e-10
-2.27976e-05
-1.31975e-10
-2.27976e-05
-1.29914e-10
-2.27976e-05
-1.34812e-10
-2.27976e-05
-1.25033e-10
-2.27976e-05
-1.25849e-10
-2.27976e-05
-1.10011e-10
-2.27976e-05
-1.07235e-10
-2.27976e-05
-8.70504e-11
-2.27976e-05
-8.14853e-11
-2.27976e-05
-5.61714e-11
-2.27976e-05
-6.63688e-11
-2.27976e-05
1.67997e-11
4.74698e-11
1.48675e-05
3.86548e-11
1.48675e-05
4.46686e-11
1.48675e-05
-2.7472e-11
1.48675e-05
-6.81418e-11
1.48675e-05
-9.03969e-11
1.48675e-05
-1.07514e-10
1.48675e-05
-1.1288e-10
1.48675e-05
-1.24258e-10
1.48675e-05
-1.19228e-10
1.48675e-05
-1.26949e-10
1.48675e-05
-1.14439e-10
1.48675e-05
-1.18508e-10
1.48675e-05
-1.0045e-10
1.48675e-05
-1.00939e-10
1.48675e-05
-7.9297e-11
1.48675e-05
-7.65065e-11
1.48675e-05
-5.10342e-11
1.48675e-05
-6.18385e-11
1.48675e-05
1.7699e-11
4.39686e-11
5.88652e-05
3.16966e-11
5.88652e-05
3.55363e-11
5.88652e-05
-2.70078e-11
5.88652e-05
-6.28729e-11
5.88652e-05
-8.10465e-11
5.88652e-05
-9.77263e-11
5.88652e-05
-1.00187e-10
5.88652e-05
-1.12807e-10
5.88652e-05
-1.05385e-10
5.88652e-05
-1.15268e-10
5.88652e-05
-1.00834e-10
5.88652e-05
-1.07609e-10
5.88652e-05
-8.82584e-11
5.88652e-05
-9.16291e-11
5.88652e-05
-6.94664e-11
5.88652e-05
-6.92612e-11
5.88652e-05
-4.46277e-11
5.88652e-05
-5.53047e-11
5.88652e-05
1.66793e-11
3.77192e-11
0.000109195
2.30495e-11
0.000109195
2.46052e-11
0.000109195
-2.59828e-11
0.000109195
-5.56675e-11
0.000109195
-6.95031e-11
0.000109195
-8.49146e-11
0.000109195
-8.48242e-11
0.000109195
-9.78635e-11
0.000109195
-8.8764e-11
0.000109195
-1.00017e-10
0.000109195
-8.45921e-11
0.000109195
-9.33772e-11
0.000109195
-7.37712e-11
0.000109195
-7.9497e-11
0.000109195
-5.78327e-11
0.000109195
-5.9901e-11
0.000109195
-3.71098e-11
0.000109195
-4.69912e-11
0.000109195
1.41746e-11
2.946e-11
0.000165858
1.38326e-11
0.000165858
1.33667e-11
0.000165858
-2.40084e-11
0.000165858
-4.66079e-11
0.000165858
-5.615e-11
0.000165858
-6.95001e-11
0.000165858
-6.74071e-11
0.000165858
-7.99385e-11
0.000165858
-7.00452e-11
0.000165858
-8.17104e-11
0.000165858
-6.63864e-11
0.000165858
-7.62896e-11
0.000165858
-5.75916e-11
0.000165858
-6.49386e-11
0.000165858
-4.48864e-11
0.000165858
-4.87363e-11
0.000165858
-2.87554e-11
0.000165858
-3.73122e-11
0.000165858
1.07685e-11
2.0267e-11
0.000228854
5.61838e-12
0.000228854
3.90189e-12
0.000228854
-2.0256e-11
0.000228854
-3.54617e-11
0.000228854
-4.09609e-11
0.000228854
-5.15645e-11
0.000228854
-4.80779e-11
0.000228854
-5.91876e-11
0.000228854
-4.9419e-11
0.000228854
-6.05174e-11
0.000228854
-4.64208e-11
0.000228854
-5.65087e-11
0.000228854
-3.99156e-11
0.000228854
-4.8091e-11
0.000228854
-3.07964e-11
0.000228854
-3.58958e-11
0.000228854
-1.9635e-11
0.000228854
-2.66506e-11
0.000228854
7.3484e-12
1.15426e-11
0.000298182
-6.40164e-13
0.000298182
-2.77135e-12
0.000298182
-1.54812e-11
0.000298182
-2.39883e-11
0.000298182
-2.64721e-11
0.000298182
-3.37726e-11
0.000298182
-3.01824e-11
0.000298182
-3.86215e-11
0.000298182
-3.05697e-11
0.000298182
-3.94703e-11
0.000298182
-2.83579e-11
0.000298182
-3.68341e-11
0.000298182
-2.40698e-11
0.000298182
-3.13138e-11
0.000298182
-1.82949e-11
0.000298182
-2.31975e-11
0.000298182
-1.15421e-11
0.000298182
-1.64745e-11
0.000298182
3.82265e-12
4.43465e-12
0.000373843
-3.00827e-12
0.000373843
-4.28174e-12
0.000373843
-8.43158e-12
0.000373843
-1.16707e-11
0.000373843
-1.20841e-11
0.000373843
-1.585e-11
0.000373843
-1.31588e-11
0.000373843
-1.8054e-11
0.000373843
-1.2957e-11
0.000373843
-1.84461e-11
0.000373843
-1.17139e-11
0.000373843
-1.72133e-11
0.000373843
-9.66685e-12
0.000373843
-1.46265e-11
0.000373843
-7.08777e-12
0.000373843
-1.07036e-11
0.000373843
-4.29262e-12
0.000373843
-7.06816e-12
0.000373843
1.3925e-12
4.28798e-13
0.000455837
0.000455837
0.000455837
0.000455837
0.000455837
0.000455837
0.000455837
0.000455837
0.000455837
0.000455837
0.000455837
0.000455837
0.000455837
0.000455837
0.000455837
0.000455837
0.000455837
0.000455837
0.000455837
)
;

boundaryField
{
    top
    {
        type            calculated;
        value           uniform 0;
    }
    bottom
    {
        type            calculated;
        value           uniform 0;
    }
    inlet
    {
        type            calculated;
        value           nonuniform List<scalar> 
20
(
1.91632e-05
5.11569e-05
7.68178e-05
9.6146e-05
0.000109142
0.000115804
0.000116135
0.000110132
9.77976e-05
7.91301e-05
5.41301e-05
2.27976e-05
-1.48675e-05
-5.88652e-05
-0.000109195
-0.000165858
-0.000228854
-0.000298182
-0.000373843
-0.000455837
)
;
    }
    outlet
    {
        type            calculated;
        value           nonuniform List<scalar> 
20
(
-1.91632e-05
-5.11569e-05
-7.68179e-05
-9.61461e-05
-0.000109142
-0.000115805
-0.000116135
-0.000110132
-9.77976e-05
-7.91302e-05
-5.41302e-05
-2.27976e-05
1.48675e-05
5.88652e-05
0.000109196
0.000165858
0.000228854
0.000298182
0.000373843
0.000455837
)
;
    }
    frontAndBack
    {
        type            empty;
        value           nonuniform 0();
    }
}


// ************************************************************************* //
