/*--------------------------------*- C++ -*----------------------------------*\
| =========                 |                                                 |
| \\      /  F ield         | OpenFOAM: The Open Source CFD Toolbox           |
|  \\    /   O peration     | Version:  4.1                                   |
|   \\  /    A nd           | Web:      www.OpenFOAM.org                      |
|    \\/     M anipulation  |                                                 |
\*---------------------------------------------------------------------------*/
FoamFile
{
    version     2.0;
    format      ascii;
    class       volVectorField;
    location    "1.2";
    object      U;
}
// * * * * * * * * * * * * * * * * * * * * * * * * * * * * * * * * * * * * * //

dimensions      [0 1 -1 0 0 0 0];

internalField   nonuniform List<vector> 
400
(
(-0.383265 -8.2821e-10 0)
(-0.383265 1.727e-10 0)
(-0.383265 -3.22274e-09 0)
(-0.383265 -1.96722e-09 0)
(-0.383265 -6.20873e-09 0)
(-0.383265 -3.00708e-09 0)
(-0.383265 -8.1332e-09 0)
(-0.383265 -3.59751e-09 0)
(-0.383265 -8.99356e-09 0)
(-0.383265 -3.82862e-09 0)
(-0.383265 -8.93993e-09 0)
(-0.383265 -3.78982e-09 0)
(-0.383265 -8.06379e-09 0)
(-0.383265 -3.54257e-09 0)
(-0.383265 -6.46216e-09 0)
(-0.383265 -3.16613e-09 0)
(-0.383265 -4.3943e-09 0)
(-0.383265 -2.50024e-09 0)
(-0.383265 -2.79655e-09 0)
(-0.383265 -1.1598e-09 0)
(-1.02314 -1.76271e-09 0)
(-1.02314 1.26507e-09 0)
(-1.02314 -9.23513e-09 0)
(-1.02314 -7.50802e-09 0)
(-1.02314 -1.95229e-08 0)
(-1.02314 -1.16059e-08 0)
(-1.02314 -2.55285e-08 0)
(-1.02314 -1.36872e-08 0)
(-1.02314 -2.80916e-08 0)
(-1.02314 -1.43349e-08 0)
(-1.02314 -2.7821e-08 0)
(-1.02314 -1.39042e-08 0)
(-1.02314 -2.50325e-08 0)
(-1.02314 -1.26303e-08 0)
(-1.02314 -2.00428e-08 0)
(-1.02314 -1.08309e-08 0)
(-1.02314 -1.35347e-08 0)
(-1.02314 -8.64701e-09 0)
(-1.02314 -8.43258e-09 0)
(-1.02314 -2.28773e-09 0)
(-1.53636 -1.22633e-09 0)
(-1.53636 3.44585e-09 0)
(-1.53636 -1.487e-08 0)
(-1.53636 -1.6653e-08 0)
(-1.53636 -3.49213e-08 0)
(-1.53636 -2.58134e-08 0)
(-1.53636 -4.54109e-08 0)
(-1.53636 -3.00739e-08 0)
(-1.53636 -4.96248e-08 0)
(-1.53636 -3.10827e-08 0)
(-1.53636 -4.88998e-08 0)
(-1.53636 -2.9618e-08 0)
(-1.53636 -4.38498e-08 0)
(-1.53636 -2.61936e-08 0)
(-1.53636 -3.50786e-08 0)
(-1.53636 -2.15098e-08 0)
(-1.53636 -2.35206e-08 0)
(-1.53636 -1.72181e-08 0)
(-1.53636 -1.36662e-08 0)
(-1.53636 -1.27734e-09 0)
(-1.92292 1.20475e-09 0)
(-1.92292 7.26188e-09 0)
(-1.92292 -1.98224e-08 0)
(-1.92292 -2.76184e-08 0)
(-1.92292 -5.09593e-08 0)
(-1.92292 -4.301e-08 0)
(-1.92292 -6.59477e-08 0)
(-1.92292 -4.98365e-08 0)
(-1.92292 -7.16586e-08 0)
(-1.92292 -5.11785e-08 0)
(-1.92292 -7.03157e-08 0)
(-1.92292 -4.83247e-08 0)
(-1.92292 -6.28644e-08 0)
(-1.92292 -4.21238e-08 0)
(-1.92292 -5.02329e-08 0)
(-1.92292 -3.3726e-08 0)
(-1.92292 -3.34673e-08 0)
(-1.92292 -2.71142e-08 0)
(-1.92292 -1.71827e-08 0)
(-1.92292 1.77894e-09 0)
(-2.18283 5.74053e-09 0)
(-2.18283 1.28655e-08 0)
(-2.18283 -2.37691e-08 0)
(-2.18283 -3.89211e-08 0)
(-2.18283 -6.61378e-08 0)
(-2.18283 -6.09804e-08 0)
(-2.18283 -8.53036e-08 0)
(-2.18283 -7.05028e-08 0)
(-2.18283 -9.22989e-08 0)
(-2.18283 -7.21722e-08 0)
(-2.18283 -9.02871e-08 0)
(-2.18283 -6.78121e-08 0)
(-2.18283 -8.05376e-08 0)
(-2.18283 -5.8622e-08 0)
(-2.18283 -6.43097e-08 0)
(-2.18283 -4.61978e-08 0)
(-2.18283 -4.26638e-08 0)
(-2.18283 -3.72633e-08 0)
(-2.18283 -1.82897e-08 0)
(-2.18283 6.73567e-09 0)
(-2.31609 1.22319e-08 0)
(-2.31609 2.03405e-08 0)
(-2.31609 -2.63209e-08 0)
(-2.31609 -4.90244e-08 0)
(-2.31609 -7.90464e-08 0)
(-2.31609 -7.74261e-08 0)
(-2.31609 -1.01746e-07 0)
(-2.31609 -8.94693e-08 0)
(-2.31609 -1.09735e-07 0)
(-2.31609 -9.14439e-08 0)
(-2.31609 -1.07082e-07 0)
(-2.31609 -8.56807e-08 0)
(-2.31609 -9.53419e-08 0)
(-2.31609 -7.37036e-08 0)
(-2.31609 -7.6079e-08 0)
(-2.31609 -5.74968e-08 0)
(-2.31609 -5.02853e-08 0)
(-2.31609 -4.65865e-08 0)
(-2.31609 -1.66556e-08 0)
(-2.31609 1.34297e-08 0)
(-2.32269 1.99937e-08 0)
(-2.3227 2.89726e-08 0)
(-2.3227 -2.77123e-08 0)
(-2.3227 -5.74918e-08 0)
(-2.3227 -8.93387e-08 0)
(-2.3227 -9.15316e-08 0)
(-2.3227 -1.14811e-07 0)
(-2.3227 -1.05793e-07 0)
(-2.3227 -1.2349e-07 0)
(-2.3227 -1.08048e-07 0)
(-2.3227 -1.20251e-07 0)
(-2.3227 -1.01073e-07 0)
(-2.3227 -1.06889e-07 0)
(-2.3227 -8.66709e-08 0)
(-2.3227 -8.52303e-08 0)
(-2.3227 -6.7138e-08 0)
(-2.3227 -5.61348e-08 0)
(-2.3227 -5.4629e-08 0)
(-2.3227 -1.2614e-08 0)
(-2.3227 2.12791e-08 0)
(-2.20265 2.80808e-08 0)
(-2.20265 3.77366e-08 0)
(-2.20265 -2.82903e-08 0)
(-2.20265 -6.41736e-08 0)
(-2.20265 -9.69184e-08 0)
(-2.20265 -1.02864e-07 0)
(-2.20265 -1.2433e-07 0)
(-2.20265 -1.18952e-07 0)
(-2.20265 -1.33394e-07 0)
(-2.20265 -1.21453e-07 0)
(-2.20265 -1.29639e-07 0)
(-2.20265 -1.13502e-07 0)
(-2.20265 -1.15043e-07 0)
(-2.20265 -9.71231e-08 0)
(-2.20265 -9.16508e-08 0)
(-2.20265 -7.48439e-08 0)
(-2.20265 -6.01432e-08 0)
(-2.20265 -6.11053e-08 0)
(-2.20265 -6.8338e-09 0)
(-2.20265 2.9492e-08 0)
(-1.95595 3.54597e-08 0)
(-1.95595 4.5505e-08 0)
(-1.95595 -2.83728e-08 0)
(-1.95595 -6.90265e-08 0)
(-1.95595 -1.01766e-07 0)
(-1.95595 -1.11156e-07 0)
(-1.95595 -1.3024e-07 0)
(-1.95595 -1.28605e-07 0)
(-1.95595 -1.3939e-07 0)
(-1.95595 -1.31304e-07 0)
(-1.95595 -1.35197e-07 0)
(-1.95595 -1.2264e-07 0)
(-1.95595 -1.19771e-07 0)
(-1.95595 -1.04787e-07 0)
(-1.95595 -9.53135e-08 0)
(-1.95595 -8.0423e-08 0)
(-1.95595 -6.23061e-08 0)
(-1.95595 -6.58143e-08 0)
(-1.95595 -1.95031e-10 0)
(-1.95595 3.71634e-08 0)
(-1.5826 4.11495e-08 0)
(-1.5826 5.12031e-08 0)
(-1.5826 -2.82066e-08 0)
(-1.5826 -7.20478e-08 0)
(-1.5826 -1.03891e-07 0)
(-1.5826 -1.16234e-07 0)
(-1.5826 -1.32534e-07 0)
(-1.5826 -1.34525e-07 0)
(-1.5826 -1.41484e-07 0)
(-1.5826 -1.37362e-07 0)
(-1.5826 -1.36947e-07 0)
(-1.5826 -1.28258e-07 0)
(-1.5826 -1.21102e-07 0)
(-1.5826 -1.0947e-07 0)
(-1.5826 -9.6247e-08 0)
(-1.5826 -8.37397e-08 0)
(-1.5826 -6.26659e-08 0)
(-1.5826 -6.86069e-08 0)
(-1.5826 6.35084e-09 0)
(-1.5826 4.33823e-08 0)
(-1.0826 4.43493e-08 0)
(-1.0826 5.3942e-08 0)
(-1.0826 -2.79619e-08 0)
(-1.0826 -7.32415e-08 0)
(-1.0826 -1.0332e-07 0)
(-1.0826 -1.1799e-07 0)
(-1.0826 -1.31244e-07 0)
(-1.0826 -1.36566e-07 0)
(-1.0826 -1.39731e-07 0)
(-1.0826 -1.39467e-07 0)
(-1.0826 -1.34958e-07 0)
(-1.0826 -1.30204e-07 0)
(-1.0826 -1.19115e-07 0)
(-1.0826 -1.11041e-07 0)
(-1.0826 -9.45212e-08 0)
(-1.0826 -8.4701e-08 0)
(-1.0826 -6.12997e-08 0)
(-1.0826 -6.93669e-08 0)
(-1.0826 1.19278e-08 0)
(-1.0826 4.73434e-08 0)
(-0.455952 4.45427e-08 0)
(-0.455952 5.31389e-08 0)
(-0.455952 -2.7734e-08 0)
(-0.455952 -7.26126e-08 0)
(-0.455952 -1.00112e-07 0)
(-0.455952 -1.16382e-07 0)
(-0.455952 -1.26462e-07 0)
(-0.455952 -1.34669e-07 0)
(-0.455952 -1.34249e-07 0)
(-0.455952 -1.37553e-07 0)
(-0.455952 -1.29363e-07 0)
(-0.455952 -1.28409e-07 0)
(-0.455952 -1.13943e-07 0)
(-0.455952 -1.09443e-07 0)
(-0.455952 -9.02532e-08 0)
(-0.455952 -8.3267e-08 0)
(-0.455952 -5.83183e-08 0)
(-0.455952 -6.80181e-08 0)
(-0.455952 1.58601e-08 0)
(-0.455952 4.84572e-08 0)
(0.29735 4.15815e-08 0)
(0.29735 4.86298e-08 0)
(0.29735 -2.75295e-08 0)
(0.29735 -7.0156e-08 0)
(0.29735 -9.43544e-08 0)
(0.297351 -1.11435e-07 0)
(0.29735 -1.18343e-07 0)
(0.297351 -1.2886e-07 0)
(0.29735 -1.25223e-07 0)
(0.297351 -1.31641e-07 0)
(0.29735 -1.20361e-07 0)
(0.297351 -1.22889e-07 0)
(0.29735 -1.05776e-07 0)
(0.297351 -1.0469e-07 0)
(0.29735 -8.36043e-08 0)
(0.297351 -7.94531e-08 0)
(0.29735 -5.38571e-08 0)
(0.297351 -6.45392e-08 0)
(0.29735 1.77668e-08 0)
(0.297351 4.64485e-08 0)
(1.1773 3.57318e-08 0)
(1.1773 4.0757e-08 0)
(1.1773 -2.72305e-08 0)
(1.1773 -6.58396e-08 0)
(1.1773 -8.61588e-08 0)
(1.1773 -1.0322e-07 0)
(1.1773 -1.07093e-07 0)
(1.1773 -1.19237e-07 0)
(1.1773 -1.12895e-07 0)
(1.1773 -1.21832e-07 0)
(1.1773 -1.08198e-07 0)
(1.1773 -1.13736e-07 0)
(1.1773 -9.48439e-08 0)
(1.1773 -9.68599e-08 0)
(1.1773 -7.47671e-08 0)
(1.1773 -7.33215e-08 0)
(1.1773 -4.80573e-08 0)
(1.1773 -5.89835e-08 0)
(1.1773 1.76105e-08 0)
(1.1773 4.14312e-08 0)
(2.18391 2.76724e-08 0)
(2.18391 3.0399e-08 0)
(2.18391 -2.65764e-08 0)
(2.18391 -5.96119e-08 0)
(2.18391 -7.56709e-08 0)
(2.18391 -9.18722e-08 0)
(2.18391 -9.29875e-08 0)
(2.18391 -1.05978e-07 0)
(2.18391 -9.75771e-08 0)
(2.18391 -1.08304e-07 0)
(2.18391 -9.31897e-08 0)
(2.18391 -1.01114e-07 0)
(2.18391 -8.14296e-08 0)
(2.18391 -8.60938e-08 0)
(2.18391 -6.39747e-08 0)
(2.18391 -6.49839e-08 0)
(2.18391 -4.10634e-08 0)
(2.18391 -5.15058e-08 0)
(2.18391 1.56912e-08 0)
(2.18391 3.39423e-08 0)
(3.31717 1.8437e-08 0)
(3.31717 1.89278e-08 0)
(3.31717 -2.51474e-08 0)
(3.31717 -5.14138e-08 0)
(3.31717 -6.30753e-08 0)
(3.31717 -7.75932e-08 0)
(3.31717 -7.63804e-08 0)
(3.31717 -8.93485e-08 0)
(3.31717 -7.9667e-08 0)
(3.31717 -9.13284e-08 0)
(3.31717 -7.57287e-08 0)
(3.31717 -8.52731e-08 0)
(3.31717 -6.5883e-08 0)
(3.31717 -7.25967e-08 0)
(3.31717 -5.15115e-08 0)
(3.31717 -5.46038e-08 0)
(3.31717 -3.30243e-08 0)
(3.31717 -4.23823e-08 0)
(3.31717 1.25755e-08 0)
(3.31717 2.49175e-08 0)
(4.57708 9.33235e-09 0)
(4.57708 8.08862e-09 0)
(4.57708 -2.24141e-08 0)
(4.57708 -4.12538e-08 0)
(4.57708 -4.86623e-08 0)
(4.57708 -6.07418e-08 0)
(4.57708 -5.77853e-08 0)
(4.57708 -6.97973e-08 0)
(4.57708 -5.97438e-08 0)
(4.57708 -7.13602e-08 0)
(4.57708 -5.6391e-08 0)
(4.57708 -6.66342e-08 0)
(4.57708 -4.87241e-08 0)
(4.57708 -5.67188e-08 0)
(4.57708 -3.78026e-08 0)
(4.57708 -4.24614e-08 0)
(4.57708 -2.41652e-08 0)
(4.57708 -3.20462e-08 0)
(4.57708 8.97243e-09 0)
(4.57708 1.56023e-08 0)
(5.96364 1.65089e-09 0)
(5.96364 -5.06786e-10 0)
(5.96364 -1.83454e-08 0)
(5.96364 -2.99517e-08 0)
(5.96364 -3.37361e-08 0)
(5.96364 -4.27677e-08 0)
(5.96364 -3.90029e-08 0)
(5.96364 -4.89948e-08 0)
(5.96364 -3.97992e-08 0)
(5.96364 -5.0089e-08 0)
(5.96364 -3.7158e-08 0)
(5.96364 -4.67631e-08 0)
(5.96364 -3.17531e-08 0)
(5.96364 -3.97823e-08 0)
(5.96364 -2.43264e-08 0)
(5.96364 -2.95834e-08 0)
(5.96364 -1.54426e-08 0)
(5.96364 -2.14508e-08 0)
(5.96364 5.3166e-09 0)
(5.96364 7.34486e-09 0)
(7.47686 -2.72573e-09 0)
(7.47686 -4.67863e-09 0)
(7.47686 -1.24075e-08 0)
(7.47686 -1.79213e-08 0)
(7.47686 -1.90687e-08 0)
(7.47686 -2.46839e-08 0)
(7.47686 -2.12199e-08 0)
(7.47686 -2.81666e-08 0)
(7.47686 -2.11975e-08 0)
(7.47686 -2.87873e-08 0)
(7.47686 -1.94248e-08 0)
(7.47686 -2.68668e-08 0)
(7.47686 -1.62736e-08 0)
(7.47686 -2.28368e-08 0)
(7.47686 -1.21791e-08 0)
(7.47686 -1.68109e-08 0)
(7.47686 -7.59653e-09 0)
(7.47686 -1.14986e-08 0)
(7.47686 2.40542e-09 0)
(7.47686 1.72155e-09 0)
(9.11674 -1.94347e-09 0)
(9.11674 -2.73194e-09 0)
(9.11674 -4.53907e-09 0)
(9.11674 -6.00416e-09 0)
(9.11674 -6.10345e-09 0)
(9.11674 -8.02052e-09 0)
(9.11674 -6.56933e-09 0)
(9.11674 -9.11597e-09 0)
(9.11674 -6.43448e-09 0)
(9.11674 -9.31137e-09 0)
(9.11674 -5.79116e-09 0)
(9.11674 -8.68661e-09 0)
(9.11674 -4.75586e-09 0)
(9.11674 -7.37824e-09 0)
(9.11674 -3.47343e-09 0)
(9.11674 -5.38332e-09 0)
(9.11674 -2.12229e-09 0)
(9.11674 -3.47232e-09 0)
(9.11674 5.44513e-10 0)
(9.11674 -1.22203e-10 0)
)
;

boundaryField
{
    top
    {
        type            fixedValue;
        value           uniform (10 0 0);
    }
    bottom
    {
        type            fixedValue;
        value           uniform (0 0 0);
    }
    inlet
    {
        type            zeroGradient;
    }
    outlet
    {
        type            zeroGradient;
    }
    frontAndBack
    {
        type            empty;
    }
}


// ************************************************************************* //
