/*--------------------------------*- C++ -*----------------------------------*\
| =========                 |                                                 |
| \\      /  F ield         | OpenFOAM: The Open Source CFD Toolbox           |
|  \\    /   O peration     | Version:  4.1                                   |
|   \\  /    A nd           | Web:      www.OpenFOAM.org                      |
|    \\/     M anipulation  |                                                 |
\*---------------------------------------------------------------------------*/
FoamFile
{
    version     2.0;
    format      ascii;
    class       surfaceScalarField;
    location    "4.6";
    object      phi;
}
// * * * * * * * * * * * * * * * * * * * * * * * * * * * * * * * * * * * * * //

dimensions      [0 3 -1 0 0 0 0];

internalField   nonuniform List<scalar> 
760
(
-1.91641e-05
7.05542e-13
-1.91641e-05
5.11061e-13
-1.91641e-05
2.61391e-12
-1.91641e-05
-1.82371e-12
-1.91641e-05
4.60904e-12
-1.91641e-05
-3.1979e-12
-1.91641e-05
5.41846e-12
-1.91641e-05
-3.65026e-12
-1.91641e-05
5.34903e-12
-1.91641e-05
-3.52208e-12
-1.91641e-05
4.61888e-12
-1.91641e-05
-2.90117e-12
-1.91641e-05
3.3506e-12
-1.91641e-05
-1.85245e-12
-1.91641e-05
1.70036e-12
-1.91641e-05
-6.8241e-13
-1.91641e-05
9.36146e-14
-1.91641e-05
7.50357e-13
-1.91641e-05
-2.10353e-12
1.8171e-12
-5.11594e-05
6.09897e-13
-5.11594e-05
-1.98015e-12
-5.11594e-05
3.09135e-12
-5.11594e-05
-8.88268e-12
-5.11594e-05
5.62137e-12
-5.11594e-05
-1.24919e-11
-5.11594e-05
5.92988e-12
-5.11594e-05
-1.34204e-11
-5.11594e-05
4.91901e-12
-5.11594e-05
-1.25381e-11
-5.11594e-05
3.10328e-12
-5.11594e-05
-1.01742e-11
-5.11594e-05
7.32889e-13
-5.11594e-05
-6.65702e-12
-5.11594e-05
-1.82772e-12
-5.11594e-05
-2.86173e-12
-5.11594e-05
-3.90487e-12
-5.11594e-05
1.36845e-12
-5.11594e-05
-6.04746e-12
3.35068e-12
-7.68219e-05
3.82797e-13
-7.68219e-05
-5.28946e-12
-7.68219e-05
3.1959e-12
-7.68219e-05
-1.68995e-11
-7.68219e-05
5.76286e-12
-7.68219e-05
-2.24824e-11
-7.68219e-05
5.13629e-12
-7.68219e-05
-2.35628e-11
-7.68219e-05
2.90157e-12
-7.68219e-05
-2.15822e-11
-7.68219e-05
-1.25105e-13
-7.68219e-05
-1.71573e-11
-7.68219e-05
-3.55716e-12
-7.68219e-05
-1.09355e-11
-7.68219e-05
-6.78462e-12
-7.68219e-05
-4.40292e-12
-7.68219e-05
-8.98134e-12
-7.68219e-05
2.58223e-12
-7.68219e-05
-1.01697e-11
4.77193e-12
-9.61516e-05
3.94964e-13
-9.61516e-05
-8.29654e-12
-9.61516e-05
3.47205e-12
-9.61516e-05
-2.40494e-11
-9.61516e-05
5.83846e-12
-9.61516e-05
-3.11587e-11
-9.61516e-05
4.18277e-12
-9.61516e-05
-3.21972e-11
-9.61516e-05
7.12519e-13
-9.61516e-05
-2.91084e-11
-9.61516e-05
-3.48911e-12
-9.61516e-05
-2.27807e-11
-9.61516e-05
-7.90663e-12
-9.61516e-05
-1.41585e-11
-9.61516e-05
-1.16845e-11
-9.61516e-05
-5.27442e-12
-9.61516e-05
-1.39129e-11
-9.61516e-05
4.01422e-12
-9.61516e-05
-1.39015e-11
5.91747e-12
-0.000109148
6.52857e-13
-0.000109148
-1.09507e-11
-0.000109148
4.07749e-12
-0.000109148
-3.01302e-11
-0.000109148
6.12972e-12
-0.000109148
-3.82787e-11
-0.000109148
3.44828e-12
-0.000109148
-3.90729e-11
-0.000109148
-1.21693e-12
-0.000109148
-3.48826e-11
-0.000109148
-6.54789e-12
-0.000109148
-2.68454e-11
-0.000109148
-1.19048e-11
-0.000109148
-1.6175e-11
-0.000109148
-1.61862e-11
-0.000109148
-5.37544e-12
-0.000109148
-1.84461e-11
-0.000109148
5.70327e-12
-0.000109148
-1.71288e-11
6.84328e-12
-0.000115812
1.09066e-12
-0.000115812
-1.33238e-11
-0.000115812
4.83769e-12
-0.000115812
-3.51419e-11
-0.000115812
6.37927e-12
-0.000115812
-4.38783e-11
-0.000115813
2.6616e-12
-0.000115812
-4.42801e-11
-0.000115813
-3.13645e-12
-0.000115812
-3.90459e-11
-0.000115813
-9.50114e-12
-0.000115812
-2.95337e-11
-0.000115813
-1.56806e-11
-0.000115812
-1.71948e-11
-0.000115813
-2.03418e-11
-0.000115813
-4.91688e-12
-0.000115813
-2.25579e-11
-0.000115813
7.43809e-12
-0.000115813
-1.97743e-11
7.45991e-12
-0.000116144
1.654e-12
-0.000116144
-1.54448e-11
-0.000116144
5.64341e-12
-0.000116144
-3.90663e-11
-0.000116144
6.46799e-12
-0.000116144
-4.79821e-11
-0.000116144
1.72525e-12
-0.000116144
-4.78919e-11
-0.000116144
-5.11121e-12
-0.000116144
-4.17149e-11
-0.000116144
-1.23744e-11
-0.000116144
-3.09946e-11
-0.000116144
-1.92177e-11
-0.000116144
-1.7386e-11
-0.000116144
-2.41006e-11
-0.000116144
-4.06256e-12
-0.000116144
-2.61679e-11
-0.000116144
9.05928e-12
-0.000116144
-2.17681e-11
7.7362e-12
-0.000110142
2.29906e-12
-0.000110142
-1.72985e-11
-0.000110142
6.40521e-12
-0.000110142
-4.18624e-11
-0.000110142
6.33076e-12
-0.000110142
-5.05965e-11
-0.000110142
6.09392e-13
-0.000110142
-4.996e-11
-0.000110142
-7.13464e-12
-0.000110142
-4.2983e-11
-0.000110142
-1.51257e-11
-0.000110142
-3.13531e-11
-0.000110142
-2.24427e-11
-0.000110142
-1.68917e-11
-0.000110142
-2.73725e-11
-0.000110142
-2.95365e-12
-0.000110142
-2.91738e-11
-0.000110142
1.04322e-11
-0.000110142
-2.30513e-11
7.66458e-12
-9.78078e-05
2.98673e-12
-9.78078e-05
-1.88325e-11
-9.78078e-05
7.04997e-12
-9.78078e-05
-4.34798e-11
-9.78078e-05
5.95141e-12
-9.78078e-05
-5.17236e-11
-9.78078e-05
-6.55041e-13
-9.78078e-05
-5.05287e-11
-9.78078e-05
-9.1367e-12
-9.78078e-05
-4.2932e-11
-9.78078e-05
-1.76543e-11
-9.78078e-05
-3.07186e-11
-9.78078e-05
-2.52353e-11
-9.78078e-05
-1.58347e-11
-9.78078e-05
-3.00365e-11
-9.78078e-05
-1.70842e-12
-9.78078e-05
-3.14606e-11
-9.78078e-05
1.14537e-11
-9.78078e-05
-2.35873e-11
7.26657e-12
-7.91406e-05
3.67548e-12
-7.91406e-05
-1.99732e-11
-7.91406e-05
7.51295e-12
-7.91406e-05
-4.38823e-11
-7.91406e-05
5.34565e-12
-7.91406e-05
-5.13863e-11
-7.91406e-05
-1.9987e-12
-7.91406e-05
-4.96608e-11
-7.91406e-05
-1.10088e-11
-7.91406e-05
-4.1656e-11
-7.91406e-05
-1.98264e-11
-7.91406e-05
-2.92045e-11
-7.91406e-05
-2.74514e-11
-7.91406e-05
-1.43312e-11
-7.91406e-05
-3.19613e-11
-7.91406e-05
-4.30111e-13
-7.91406e-05
-3.29162e-11
-7.91406e-05
1.20523e-11
-7.91406e-05
-2.33715e-11
6.59038e-12
-5.41406e-05
4.31593e-12
-5.41406e-05
-2.06406e-11
-5.41406e-05
7.73532e-12
-5.41406e-05
-4.30675e-11
-5.41406e-05
4.5476e-12
-5.41406e-05
-4.96476e-11
-5.41406e-05
-3.33327e-12
-5.41406e-05
-4.74565e-11
-5.41406e-05
-1.26264e-11
-5.41406e-05
-3.9279e-11
-5.41406e-05
-2.14977e-11
-5.41406e-05
-2.69427e-11
-5.41406e-05
-2.89449e-11
-5.41406e-05
-1.25011e-11
-5.41406e-05
-3.30226e-11
-5.41406e-05
7.87444e-13
-5.41406e-05
-3.34457e-11
-5.41406e-05
1.21898e-11
-5.41406e-05
-2.24365e-11
5.70532e-12
-2.28078e-05
4.85051e-12
-2.28078e-05
-2.07601e-11
-2.28078e-05
7.66944e-12
-2.28078e-05
-4.10759e-11
-2.28078e-05
3.60439e-12
-2.28078e-05
-4.66161e-11
-2.28078e-05
-4.56184e-12
-2.28078e-05
-4.40571e-11
-2.28078e-05
-1.38618e-11
-2.28078e-05
-3.59563e-11
-2.28078e-05
-2.25285e-11
-2.28078e-05
-2.40836e-11
-2.28078e-05
-2.95826e-11
-2.28078e-05
-1.04673e-11
-2.28078e-05
-3.31162e-11
-2.28078e-05
1.86129e-12
-2.28078e-05
-3.29819e-11
-2.28078e-05
1.18625e-11
-2.28078e-05
-2.08509e-11
4.69362e-12
1.48578e-05
5.21705e-12
1.48578e-05
-2.02711e-11
1.48578e-05
7.28903e-12
1.48578e-05
-3.79888e-11
1.48578e-05
2.57735e-12
1.48578e-05
-4.24377e-11
1.48578e-05
-5.58159e-12
1.48578e-05
-3.96349e-11
1.48578e-05
-1.45899e-11
1.48578e-05
-3.18637e-11
1.48578e-05
-2.279e-11
1.48578e-05
-2.07854e-11
1.48578e-05
-2.92507e-11
1.48578e-05
-8.34639e-12
1.48578e-05
-3.21636e-11
1.48578e-05
2.72604e-12
1.48578e-05
-3.14912e-11
1.48578e-05
1.1104e-11
1.48578e-05
-1.87123e-11
3.6414e-12
5.88562e-05
5.35512e-12
5.88562e-05
-1.91296e-11
5.88562e-05
6.60224e-12
5.88562e-05
-3.3916e-11
5.88562e-05
1.54975e-12
5.88562e-05
-3.72755e-11
5.88562e-05
-6.27719e-12
5.88562e-05
-3.43691e-11
5.88562e-05
-1.46824e-11
5.88562e-05
-2.71728e-11
5.88562e-05
-2.21599e-11
5.88562e-05
-1.71912e-11
5.88562e-05
-2.78521e-11
5.88562e-05
-6.23071e-12
5.88562e-05
-3.01093e-11
5.88562e-05
3.34579e-12
5.88562e-05
-2.89703e-11
5.88562e-05
9.98568e-12
5.88562e-05
-1.61331e-11
2.63125e-12
0.000109187
5.21373e-12
0.000109187
-1.73107e-11
0.000109187
5.66372e-12
0.000109187
-2.8978e-11
0.000109187
6.36462e-13
0.000109187
-3.12852e-11
0.000109187
-6.51101e-12
0.000109187
-2.84185e-11
0.000109187
-1.39988e-11
0.000109187
-2.20234e-11
0.000109187
-2.05146e-11
0.000109188
-1.34044e-11
0.000109187
-2.52993e-11
0.000109188
-4.16919e-12
0.000109187
-2.69137e-11
0.000109188
3.72657e-12
0.000109187
-2.54407e-11
0.000109187
8.61592e-12
0.000109188
-1.32238e-11
1.73761e-12
0.000165852
4.75377e-12
0.000165852
-1.48064e-11
0.000165852
4.57677e-12
0.000165852
-2.32899e-11
0.000165852
-1.48327e-14
0.000165852
-2.45972e-11
0.000165852
-6.1218e-12
0.000165852
-2.19034e-11
0.000165852
-1.23849e-11
0.000165852
-1.65077e-11
0.000165852
-1.77274e-11
0.000165852
-9.47629e-12
0.000165852
-2.15115e-11
0.000165852
-2.16066e-12
0.000165852
-2.25509e-11
0.000165852
3.91788e-12
0.000165852
-2.09448e-11
0.000165852
7.13006e-12
0.000165852
-1.00818e-11
1.024e-12
0.000228848
4.02838e-12
0.000228848
-1.1622e-11
0.000228848
3.56201e-12
0.000228848
-1.69047e-11
0.000228848
-1.45841e-13
0.000228848
-1.72251e-11
0.000228848
-4.84692e-12
0.000228848
-1.47879e-11
0.000228848
-9.60564e-12
0.000228848
-1.05385e-11
0.000228848
-1.36167e-11
0.000228848
-5.27298e-12
0.000228848
-1.63811e-11
0.000228848
-3.43633e-14
0.000228848
-1.69888e-11
0.000228848
4.10624e-12
0.000228848
-1.55344e-11
0.000228848
5.72983e-12
0.000228848
-6.76222e-12
5.43478e-13
0.000298178
2.91023e-12
0.000298178
-7.85844e-12
0.000298178
2.49686e-12
0.000298178
-1.01203e-11
0.000298178
3.79092e-14
0.000298178
-9.58237e-12
0.000298178
-2.94694e-12
0.000298178
-7.55028e-12
0.000298178
-5.94847e-12
0.000298178
-4.60601e-12
0.000298178
-8.4709e-12
0.000298178
-1.24827e-12
0.000298178
-1.01779e-11
0.000298178
1.83607e-12
0.000298178
-1.04636e-11
0.000298178
4.0327e-12
0.000298178
-9.4141e-12
0.000298178
4.30363e-12
0.000298178
-3.3981e-12
3.02157e-13
0.000373841
1.69761e-12
0.000373841
-3.5201e-12
0.000373841
1.75737e-12
0.000373841
-2.93875e-12
0.000373841
8.85443e-13
0.000373841
-1.58144e-12
0.000373841
-1.43262e-13
0.000373841
-1.1849e-14
0.000373841
-1.23949e-12
0.000373841
1.54826e-12
0.000373841
-2.23391e-12
0.000373841
2.91303e-12
0.000373841
-2.96327e-12
0.000373841
3.7873e-12
0.000373841
-3.12475e-12
0.000373841
4.00815e-12
0.000373841
-2.79488e-12
0.000373841
3.07715e-12
0.000373841
-5.31026e-14
2.5434e-13
0.000455836
0.000455836
0.000455836
0.000455836
0.000455836
0.000455836
0.000455836
0.000455836
0.000455836
0.000455836
0.000455836
0.000455836
0.000455836
0.000455836
0.000455836
0.000455836
0.000455836
0.000455836
0.000455836
)
;

boundaryField
{
    top
    {
        type            calculated;
        value           uniform 0;
    }
    bottom
    {
        type            calculated;
        value           uniform 0;
    }
    inlet
    {
        type            calculated;
        value           nonuniform List<scalar> 
20
(
1.91641e-05
5.11594e-05
7.68219e-05
9.61516e-05
0.000109148
0.000115812
0.000116144
0.000110142
9.78078e-05
7.91406e-05
5.41406e-05
2.28078e-05
-1.48578e-05
-5.88562e-05
-0.000109187
-0.000165852
-0.000228848
-0.000298178
-0.000373841
-0.000455836
)
;
    }
    outlet
    {
        type            calculated;
        value           nonuniform List<scalar> 
20
(
-1.91641e-05
-5.11594e-05
-7.68219e-05
-9.61516e-05
-0.000109148
-0.000115813
-0.000116144
-0.000110142
-9.78078e-05
-7.91406e-05
-5.41406e-05
-2.28078e-05
1.48578e-05
5.88562e-05
0.000109188
0.000165852
0.000228848
0.000298178
0.000373841
0.000455836
)
;
    }
    frontAndBack
    {
        type            empty;
        value           nonuniform 0();
    }
}


// ************************************************************************* //
