/*--------------------------------*- C++ -*----------------------------------*\
| =========                 |                                                 |
| \\      /  F ield         | OpenFOAM: The Open Source CFD Toolbox           |
|  \\    /   O peration     | Version:  4.1                                   |
|   \\  /    A nd           | Web:      www.OpenFOAM.org                      |
|    \\/     M anipulation  |                                                 |
\*---------------------------------------------------------------------------*/
FoamFile
{
    version     2.0;
    format      ascii;
    class       volVectorField;
    location    "4.6";
    object      U;
}
// * * * * * * * * * * * * * * * * * * * * * * * * * * * * * * * * * * * * * //

dimensions      [0 1 -1 0 0 0 0];

internalField   nonuniform List<vector> 
400
(
(-0.383281 8.78515e-11 0)
(-0.383281 -5.32095e-10 0)
(-0.383281 -4.29155e-10 0)
(-0.383281 -1.60981e-09 0)
(-0.383281 -7.44363e-10 0)
(-0.383281 -2.29783e-09 0)
(-0.383281 -1.05597e-09 0)
(-0.383281 -2.61875e-09 0)
(-0.383281 -1.31171e-09 0)
(-0.383281 -2.62777e-09 0)
(-0.383281 -1.46271e-09 0)
(-0.383281 -2.3676e-09 0)
(-0.383281 -1.50527e-09 0)
(-0.383281 -1.8888e-09 0)
(-0.383281 -1.43105e-09 0)
(-0.383281 -1.28245e-09 0)
(-0.383281 -1.24947e-09 0)
(-0.383281 -5.71563e-10 0)
(-0.383281 -9.77208e-10 0)
(-0.383281 3.8799e-12 0)
(-1.02319 7.69662e-10 0)
(-1.02319 -2.99026e-10 0)
(-1.02319 4.41787e-09 0)
(-1.02319 -5.12956e-09 0)
(-1.02319 7.91643e-09 0)
(-1.02319 -7.67341e-09 0)
(-1.02319 9.107e-09 0)
(-1.02319 -8.22975e-09 0)
(-1.02319 8.72395e-09 0)
(-1.02319 -7.56351e-09 0)
(-1.02319 7.2058e-09 0)
(-1.02319 -5.89975e-09 0)
(-1.02319 4.79977e-09 0)
(-1.02319 -3.43495e-09 0)
(-1.02319 1.84348e-09 0)
(-1.02319 -8.48746e-10 0)
(-1.02319 -9.07957e-10 0)
(-1.02319 2.08942e-09 0)
(-1.02319 -4.28805e-09 0)
(-1.02319 3.5078e-09 0)
(-1.53644 2.18284e-10 0)
(-1.53644 -4.23911e-09 0)
(-1.53644 1.78165e-09 0)
(-1.53644 -1.36279e-08 0)
(-1.53644 3.3501e-09 0)
(-1.53644 -1.83878e-08 0)
(-1.53644 2.64416e-09 0)
(-1.53644 -1.95641e-08 0)
(-1.53644 8.41008e-10 0)
(-1.53644 -1.82306e-08 0)
(-1.53644 -1.43152e-09 0)
(-1.53644 -1.4859e-08 0)
(-1.53644 -3.89929e-09 0)
(-1.53644 -9.95273e-09 0)
(-1.53644 -6.13166e-09 0)
(-1.53644 -4.66671e-09 0)
(-1.53644 -7.53394e-09 0)
(-1.53644 1.09158e-09 0)
(-1.53644 -8.23494e-09 0)
(-1.53644 3.33999e-09 0)
(-1.92303 4.59712e-10 0)
(-1.92303 -6.70323e-09 0)
(-1.92303 3.76146e-09 0)
(-1.92303 -2.02993e-08 0)
(-1.92303 6.49483e-09 0)
(-1.92303 -2.65478e-08 0)
(-1.92303 5.48709e-09 0)
(-1.92303 -2.75136e-08 0)
(-1.92303 2.66156e-09 0)
(-1.92303 -2.49141e-08 0)
(-1.92303 -1.01745e-09 0)
(-1.92303 -1.95039e-08 0)
(-1.92303 -5.08305e-09 0)
(-1.92303 -1.20799e-08 0)
(-1.92303 -8.77812e-09 0)
(-1.92303 -4.41356e-09 0)
(-1.92303 -1.12002e-08 0)
(-1.92303 3.65983e-09 0)
(-1.92303 -1.20165e-08 0)
(-1.92303 5.5635e-09 0)
(-2.18297 5.74415e-10 0)
(-2.18297 -9.60086e-09 0)
(-2.18297 3.84589e-09 0)
(-2.18297 -2.69792e-08 0)
(-2.18297 6.04062e-09 0)
(-2.18297 -3.45369e-08 0)
(-2.18297 3.86491e-09 0)
(-2.18297 -3.54161e-08 0)
(-2.18297 -2.08326e-10 0)
(-2.18297 -3.17645e-08 0)
(-2.18297 -4.98124e-09 0)
(-2.18297 -2.45944e-08 0)
(-2.18297 -9.87517e-09 0)
(-2.18297 -1.49834e-08 0)
(-2.18297 -1.39071e-08 0)
(-2.18297 -5.19406e-09 0)
(-2.18297 -1.61584e-08 0)
(-2.18297 4.92841e-09 0)
(-2.18297 -1.5472e-08 0)
(-2.18297 6.36484e-09 0)
(-2.31625 9.36871e-10 0)
(-2.31625 -1.21185e-08 0)
(-2.31625 4.54793e-09 0)
(-2.31625 -3.25395e-08 0)
(-2.31625 6.34837e-09 0)
(-2.31625 -4.09084e-08 0)
(-2.31625 3.15336e-09 0)
(-2.31625 -4.14639e-08 0)
(-2.31625 -2.07765e-09 0)
(-2.31625 -3.67339e-08 0)
(-2.31625 -7.93225e-09 0)
(-2.31625 -2.79652e-08 0)
(-2.31625 -1.37131e-08 0)
(-2.31625 -1.64895e-08 0)
(-2.31625 -1.81973e-08 0)
(-2.31625 -4.99806e-09 0)
(-2.31625 -2.04541e-08 0)
(-2.31625 6.65835e-09 0)
(-2.31625 -1.83922e-08 0)
(-2.31625 7.15516e-09 0)
(-2.32287 1.45101e-09 0)
(-2.32287 -1.43716e-08 0)
(-2.32287 5.3234e-09 0)
(-2.32287 -3.7022e-08 0)
(-2.32287 6.51023e-09 0)
(-2.32288 -4.57785e-08 0)
(-2.32287 2.28734e-09 0)
(-2.32288 -4.58928e-08 0)
(-2.32287 -4.02585e-09 0)
(-2.32288 -4.01689e-08 0)
(-2.32288 -1.08431e-08 0)
(-2.32288 -3.00564e-08 0)
(-2.32288 -1.73643e-08 0)
(-2.32288 -1.7108e-08 0)
(-2.32288 -2.21473e-08 0)
(-2.32288 -4.35077e-09 0)
(-2.32288 -2.43054e-08 0)
(-2.32288 8.32779e-09 0)
(-2.32288 -2.06971e-08 0)
(-2.32288 7.60584e-09 0)
(-2.20284 2.06814e-09 0)
(-2.20284 -1.63586e-08 0)
(-2.20284 6.09732e-09 0)
(-2.20284 -4.03905e-08 0)
(-2.20284 6.47892e-09 0)
(-2.20284 -4.91527e-08 0)
(-2.20284 1.25833e-09 0)
(-2.20284 -4.87513e-08 0)
(-2.20284 -6.0243e-09 0)
(-2.20284 -4.21577e-08 0)
(-2.20284 -1.36516e-08 0)
(-2.20284 -3.09857e-08 0)
(-2.20284 -2.07389e-08 0)
(-2.20284 -1.69736e-08 0)
(-2.20284 -2.56552e-08 0)
(-2.20284 -3.3818e-09 0)
(-2.20284 -2.76037e-08 0)
(-2.20284 9.81286e-09 0)
(-2.20284 -2.2324e-08 0)
(-2.20284 7.71763e-09 0)
(-1.95616 2.74634e-09 0)
(-1.95616 -1.80445e-08 0)
(-1.95616 6.79218e-09 0)
(-1.95616 -4.25991e-08 0)
(-1.95616 6.21795e-09 0)
(-1.95616 -5.10352e-08 0)
(-1.95616 7.05839e-11 0)
(-1.95616 -5.00864e-08 0)
(-1.95616 -8.03143e-09 0)
(-1.95616 -4.27857e-08 0)
(-1.95616 -1.62836e-08 0)
(-1.95616 -3.08678e-08 0)
(-1.95616 -2.37385e-08 0)
(-1.95616 -1.62165e-08 0)
(-1.95616 -2.86146e-08 0)
(-1.95616 -2.21944e-09 0)
(-1.95616 -3.0241e-08 0)
(-1.95616 1.09964e-08 0)
(-1.95616 -2.32281e-08 0)
(-1.95616 7.49649e-09 0)
(-1.58281 3.44279e-09 0)
(-1.58281 -1.93655e-08 0)
(-1.58281 7.34037e-09 0)
(-1.58281 -4.36059e-08 0)
(-1.58281 5.72768e-09 0)
(-1.58281 -5.14395e-08 0)
(-1.58281 -1.22614e-09 0)
(-1.58281 -4.99532e-08 0)
(-1.58281 -9.95886e-09 0)
(-1.58281 -4.21428e-08 0)
(-1.58281 -1.86234e-08 0)
(-1.58281 -2.98159e-08 0)
(-1.58281 -2.62326e-08 0)
(-1.58281 -1.49576e-08 0)
(-1.58281 -3.09015e-08 0)
(-1.58281 -9.7523e-10 0)
(-1.58281 -3.21059e-08 0)
(-1.58281 1.17922e-08 0)
(-1.58281 -2.33918e-08 0)
(-1.58281 6.97564e-09 0)
(-1.08281 4.10927e-09 0)
(-1.08281 -2.02473e-08 0)
(-1.08281 7.68164e-09 0)
(-1.08281 -4.33928e-08 0)
(-1.08281 5.03426e-09 0)
(-1.08281 -5.04082e-08 0)
(-1.08281 -2.55192e-09 0)
(-1.08281 -4.84318e-08 0)
(-1.08281 -1.16888e-08 0)
(-1.08281 -4.03364e-08 0)
(-1.08281 -2.05307e-08 0)
(-1.08281 -2.79506e-08 0)
(-1.08281 -2.80751e-08 0)
(-1.08281 -1.33127e-08 0)
(-1.08281 -3.23869e-08 0)
(-1.08281 2.54302e-10 0)
(-1.08281 -3.30946e-08 0)
(-1.08281 1.21482e-08 0)
(-1.08281 -2.28295e-08 0)
(-1.08281 6.21157e-09 0)
(-0.456156 4.68909e-09 0)
(-0.456156 -2.06168e-08 0)
(-0.456156 7.76294e-09 0)
(-0.456156 -4.19818e-08 0)
(-0.456156 4.17778e-09 0)
(-0.456156 -4.80288e-08 0)
(-0.456156 -3.81486e-09 0)
(-0.456156 -4.56442e-08 0)
(-0.456156 -1.30958e-08 0)
(-0.456156 -3.75064e-08 0)
(-0.456156 -2.18639e-08 0)
(-0.456156 -2.54128e-08 0)
(-0.456156 -2.91267e-08 0)
(-0.456156 -1.14025e-08 0)
(-0.456156 -3.2957e-08 0)
(-0.456156 1.38208e-09 0)
(-0.456156 -3.31268e-08 0)
(-0.456156 1.20458e-08 0)
(-0.456156 -2.15912e-08 0)
(-0.456156 5.27743e-09 0)
(0.297156 5.12075e-09 0)
(0.297156 -2.04126e-08 0)
(0.297156 7.54577e-09 0)
(0.297156 -3.9438e-08 0)
(0.297156 3.20948e-09 0)
(0.297156 -4.44318e-08 0)
(0.297156 -4.91862e-09 0)
(0.297156 -4.17496e-08 0)
(0.297156 -1.40571e-08 0)
(0.297156 -3.38201e-08 0)
(0.297156 -2.24922e-08 0)
(0.297156 -2.23576e-08 0)
(0.297156 -2.92667e-08 0)
(0.297156 -9.34654e-09 0)
(0.297156 -3.25221e-08 0)
(0.297156 2.33489e-09 0)
(0.297156 -3.21532e-08 0)
(0.297156 1.1501e-08 0)
(0.297156 -1.97579e-08 0)
(0.297156 4.2546e-09 0)
(1.17712 5.34411e-09 0)
(1.17712 -1.95865e-08 0)
(1.17712 7.02083e-09 0)
(1.17712 -3.58569e-08 0)
(1.17712 2.20166e-09 0)
(1.17712 -3.97694e-08 0)
(1.17712 -5.75339e-09 0)
(1.17712 -3.69203e-08 0)
(1.17712 -1.44446e-08 0)
(1.17712 -2.94469e-08 0)
(1.17712 -2.22881e-08 0)
(1.17712 -1.89311e-08 0)
(1.17712 -2.83875e-08 0)
(1.17712 -7.24531e-09 0)
(1.17712 -3.10132e-08 0)
(1.17712 3.06541e-09 0)
(1.17712 -3.01538e-08 0)
(1.17712 1.05676e-08 0)
(1.17712 -1.74295e-08 0)
(1.17712 3.22598e-09 0)
(2.18375 5.30932e-09 0)
(2.18375 -1.81066e-08 0)
(2.18375 6.217e-09 0)
(2.18375 -3.13541e-08 0)
(2.18375 1.24899e-09 0)
(2.18375 -3.42012e-08 0)
(2.18375 -6.19792e-09 0)
(2.18375 -3.13248e-08 0)
(2.18375 -1.41293e-08 0)
(2.18375 -2.45417e-08 0)
(2.18375 -2.11336e-08 0)
(2.18375 -1.52555e-08 0)
(2.18375 -2.63999e-08 0)
(2.18375 -5.16856e-09 0)
(2.18375 -2.83838e-08 0)
(2.18375 3.55907e-09 0)
(2.18375 -2.71354e-08 0)
(2.18375 9.33324e-09 0)
(2.18375 -1.47123e-08 0)
(2.18375 2.26852e-09 0)
(3.31703 4.94481e-09 0)
(3.31703 -1.59665e-08 0)
(3.31703 5.17076e-09 0)
(3.31703 -2.60752e-08 0)
(3.31703 4.33384e-10 0)
(3.31703 -2.79127e-08 0)
(3.31703 -6.15241e-09 0)
(3.31703 -2.5156e-08 0)
(3.31703 -1.30081e-08 0)
(3.31703 -1.92798e-08 0)
(3.31703 -1.89374e-08 0)
(3.31703 -1.14684e-08 0)
(3.31703 -2.32428e-08 0)
(3.31703 -3.19528e-09 0)
(3.31703 -2.46126e-08 0)
(3.31703 3.79904e-09 0)
(3.31703 -2.31299e-08 0)
(3.31703 7.89069e-09 0)
(3.31703 -1.171e-08 0)
(3.31703 1.45241e-09 0)
(4.57697 4.68905e-09 0)
(4.57697 -1.30867e-08 0)
(4.57697 4.58632e-09 0)
(4.57697 -1.97521e-08 0)
(4.57697 6.1181e-10 0)
(4.57697 -2.03738e-08 0)
(4.57697 -4.71998e-09 0)
(4.57697 -1.76624e-08 0)
(4.57697 -1.02507e-08 0)
(4.57697 -1.27569e-08 0)
(4.57697 -1.50208e-08 0)
(4.57697 -6.59413e-09 0)
(4.57697 -1.8442e-08 0)
(4.57697 -3.73582e-10 0)
(4.57697 -1.94355e-08 0)
(4.57697 4.60858e-09 0)
(4.57697 -1.80775e-08 0)
(4.57697 6.83727e-09 0)
(4.57697 -8.36471e-09 0)
(4.57697 8.58085e-10 0)
(5.96356 2.32805e-09 0)
(5.96356 -9.92051e-09 0)
(5.96356 1.57122e-09 0)
(5.96356 -1.45176e-08 0)
(5.96356 -1.82162e-09 0)
(5.96356 -1.51538e-08 0)
(5.96356 -5.78412e-09 0)
(5.96356 -1.34762e-08 0)
(5.96356 -9.57118e-09 0)
(5.96356 -1.02006e-08 0)
(5.96356 -1.25786e-08 0)
(5.96356 -5.95666e-09 0)
(5.96356 -1.44495e-08 0)
(5.96356 -1.5857e-09 0)
(5.96356 -1.45174e-08 0)
(5.96356 2.05347e-09 0)
(5.96356 -1.29414e-08 0)
(5.96356 3.79978e-09 0)
(5.96356 -5.59478e-09 0)
(5.96356 3.01732e-10 0)
(7.47681 3.66251e-09 0)
(7.47681 -5.90542e-09 0)
(7.47681 3.91275e-09 0)
(7.47681 -5.84035e-09 0)
(7.47681 2.45439e-09 0)
(7.47681 -4.01843e-09 0)
(7.47681 4.07924e-10 0)
(7.47681 -1.50264e-09 0)
(7.47681 -1.91829e-09 0)
(7.47681 1.23873e-09 0)
(7.47681 -4.11608e-09 0)
(7.47681 3.82072e-09 0)
(7.47681 -5.84635e-09 0)
(7.47681 5.69531e-09 0)
(7.47681 -6.51239e-09 0)
(7.47681 6.46426e-09 0)
(7.47681 -6.18656e-09 0)
(7.47681 5.25479e-09 0)
(7.47681 -1.40083e-09 0)
(7.47681 1.886e-10 0)
(9.11672 -4.8597e-10 0)
(9.11672 -1.53859e-09 0)
(9.11672 -8.61561e-10 0)
(9.11672 -2.28514e-09 0)
(9.11672 -1.47853e-09 0)
(9.11672 -2.58255e-09 0)
(9.11672 -1.98113e-09 0)
(9.11672 -2.56943e-09 0)
(9.11672 -2.2997e-09 0)
(9.11672 -2.29497e-09 0)
(9.11672 -2.4173e-09 0)
(9.11672 -1.81574e-09 0)
(9.11672 -2.32578e-09 0)
(9.11672 -1.22386e-09 0)
(9.11672 -2.01025e-09 0)
(9.11672 -6.06134e-10 0)
(9.11672 -1.54489e-09 0)
(9.11672 -1.02751e-10 0)
(9.11672 -5.62923e-10 0)
(9.11672 1.25888e-10 0)
)
;

boundaryField
{
    top
    {
        type            fixedValue;
        value           uniform (10 0 0);
    }
    bottom
    {
        type            fixedValue;
        value           uniform (0 0 0);
    }
    inlet
    {
        type            zeroGradient;
    }
    outlet
    {
        type            zeroGradient;
    }
    frontAndBack
    {
        type            empty;
    }
}


// ************************************************************************* //
