/*--------------------------------*- C++ -*----------------------------------*\
| =========                 |                                                 |
| \\      /  F ield         | OpenFOAM: The Open Source CFD Toolbox           |
|  \\    /   O peration     | Version:  4.1                                   |
|   \\  /    A nd           | Web:      www.OpenFOAM.org                      |
|    \\/     M anipulation  |                                                 |
\*---------------------------------------------------------------------------*/
FoamFile
{
    version     2.0;
    format      ascii;
    class       volScalarField;
    location    "4.7";
    object      p;
}
// * * * * * * * * * * * * * * * * * * * * * * * * * * * * * * * * * * * * * //

dimensions      [0 2 -2 0 0 0 0];

internalField   nonuniform List<scalar> 
400
(
6.86876e-13
7.648e-13
6.51205e-13
6.91527e-13
6.05415e-13
6.2781e-13
5.59925e-13
5.70563e-13
5.22451e-13
5.17292e-13
4.78865e-13
4.65914e-13
4.47945e-13
4.22831e-13
4.09717e-13
3.66827e-13
3.61119e-13
3.13431e-13
3.26441e-13
3.08714e-13
6.84401e-13
7.62251e-13
6.51012e-13
6.91486e-13
6.05417e-13
6.27785e-13
5.5994e-13
5.70559e-13
5.22436e-13
5.17282e-13
4.78902e-13
4.65931e-13
4.47929e-13
4.22806e-13
4.09698e-13
3.66835e-13
3.61091e-13
3.13438e-13
3.24736e-13
3.06907e-13
6.82987e-13
7.60425e-13
6.50783e-13
6.91489e-13
6.05384e-13
6.27786e-13
5.59922e-13
5.70572e-13
5.2241e-13
5.17286e-13
4.78921e-13
4.65946e-13
4.47923e-13
4.22779e-13
4.09691e-13
3.66827e-13
3.61083e-13
3.13394e-13
3.23389e-13
3.05657e-13
6.82537e-13
7.59566e-13
6.50569e-13
6.91503e-13
6.05352e-13
6.27784e-13
5.59889e-13
5.70595e-13
5.22382e-13
5.17287e-13
4.7893e-13
4.65956e-13
4.47928e-13
4.2276e-13
4.097e-13
3.6681e-13
3.61078e-13
3.13315e-13
3.22612e-13
3.05014e-13
6.82673e-13
7.59381e-13
6.50386e-13
6.915e-13
6.0533e-13
6.27776e-13
5.5985e-13
5.70612e-13
5.22365e-13
5.17283e-13
4.78943e-13
4.65958e-13
4.47939e-13
4.22758e-13
4.09698e-13
3.66792e-13
3.61082e-13
3.13217e-13
3.22286e-13
3.04782e-13
6.83184e-13
7.59645e-13
6.50237e-13
6.91463e-13
6.0531e-13
6.27767e-13
5.59803e-13
5.70635e-13
5.22354e-13
5.17286e-13
4.78938e-13
4.65962e-13
4.47961e-13
4.22752e-13
4.097e-13
3.66768e-13
3.61096e-13
3.13107e-13
3.22303e-13
3.04867e-13
6.83983e-13
7.60236e-13
6.50081e-13
6.91423e-13
6.05302e-13
6.27752e-13
5.5977e-13
5.70664e-13
5.22344e-13
5.1728e-13
4.78928e-13
4.65958e-13
4.47988e-13
4.22748e-13
4.09701e-13
3.66744e-13
3.61113e-13
3.13016e-13
3.22608e-13
3.05228e-13
6.84879e-13
7.61027e-13
6.4994e-13
6.91359e-13
6.05276e-13
6.27757e-13
5.59725e-13
5.7068e-13
5.22315e-13
5.17307e-13
4.78914e-13
4.65938e-13
4.48028e-13
4.2274e-13
4.09707e-13
3.66718e-13
3.6113e-13
3.12922e-13
3.2315e-13
3.05797e-13
6.85792e-13
7.61831e-13
6.49805e-13
6.913e-13
6.05243e-13
6.27749e-13
5.59677e-13
5.7068e-13
5.2229e-13
5.17335e-13
4.78884e-13
4.65942e-13
4.48057e-13
4.22724e-13
4.09734e-13
3.66706e-13
3.61117e-13
3.12816e-13
3.2388e-13
3.06493e-13
6.86578e-13
7.62528e-13
6.49678e-13
6.91224e-13
6.0523e-13
6.27741e-13
5.59621e-13
5.70692e-13
5.22285e-13
5.1736e-13
4.78812e-13
4.65945e-13
4.48088e-13
4.22723e-13
4.09782e-13
3.66706e-13
3.611e-13
3.127e-13
3.24652e-13
3.072e-13
6.87172e-13
7.63023e-13
6.49539e-13
6.91145e-13
6.05223e-13
6.27725e-13
5.59586e-13
5.70677e-13
5.22261e-13
5.17391e-13
4.78764e-13
4.65966e-13
4.48093e-13
4.22702e-13
4.09846e-13
3.66705e-13
3.61081e-13
3.1258e-13
3.25404e-13
3.07818e-13
6.87478e-13
7.63263e-13
6.49414e-13
6.91043e-13
6.05197e-13
6.27701e-13
5.59576e-13
5.70657e-13
5.2223e-13
5.17434e-13
4.78738e-13
4.65983e-13
4.48082e-13
4.22729e-13
4.09941e-13
3.66685e-13
3.6105e-13
3.12468e-13
3.26006e-13
3.08283e-13
6.87431e-13
7.63137e-13
6.4931e-13
6.91007e-13
6.05167e-13
6.27644e-13
5.59519e-13
5.70647e-13
5.22229e-13
5.17488e-13
4.7869e-13
4.66008e-13
4.48061e-13
4.22758e-13
4.10028e-13
3.66662e-13
3.61019e-13
3.12391e-13
3.26422e-13
3.0851e-13
6.87014e-13
7.6276e-13
6.49195e-13
6.90929e-13
6.05171e-13
6.27619e-13
5.59495e-13
5.70643e-13
5.22201e-13
5.17518e-13
4.78705e-13
4.66025e-13
4.48006e-13
4.22808e-13
4.10087e-13
3.66668e-13
3.60977e-13
3.12309e-13
3.26546e-13
3.08534e-13
6.86261e-13
7.62068e-13
6.49139e-13
6.90841e-13
6.05194e-13
6.27564e-13
5.59493e-13
5.70635e-13
5.22179e-13
5.17551e-13
4.78702e-13
4.66103e-13
4.47934e-13
4.2286e-13
4.10126e-13
3.66675e-13
3.60962e-13
3.12176e-13
3.26396e-13
3.08285e-13
6.85236e-13
7.61133e-13
6.491e-13
6.90742e-13
6.05206e-13
6.27539e-13
5.59512e-13
5.70615e-13
5.22185e-13
5.17592e-13
4.78726e-13
4.66163e-13
4.47869e-13
4.22912e-13
4.10157e-13
3.66658e-13
3.60919e-13
3.12079e-13
3.26002e-13
3.07729e-13
6.84069e-13
7.60124e-13
6.49015e-13
6.90655e-13
6.05239e-13
6.27534e-13
5.59557e-13
5.70592e-13
5.22184e-13
5.176e-13
4.78733e-13
4.66233e-13
4.47814e-13
4.22956e-13
4.10144e-13
3.66645e-13
3.60863e-13
3.12007e-13
3.25412e-13
3.06929e-13
6.82858e-13
7.59161e-13
6.48943e-13
6.90575e-13
6.0525e-13
6.27535e-13
5.59595e-13
5.70582e-13
5.22196e-13
5.17562e-13
4.78788e-13
4.66283e-13
4.47742e-13
4.2295e-13
4.10157e-13
3.66654e-13
3.60824e-13
3.11993e-13
3.24622e-13
3.05914e-13
6.81933e-13
7.58356e-13
6.4892e-13
6.90511e-13
6.05297e-13
6.27513e-13
5.59552e-13
5.70598e-13
5.22185e-13
5.17491e-13
4.78871e-13
4.66336e-13
4.47706e-13
4.22934e-13
4.10141e-13
3.66684e-13
3.60789e-13
3.12011e-13
3.23717e-13
3.04815e-13
6.81734e-13
7.57969e-13
6.48878e-13
6.90523e-13
6.05244e-13
6.27523e-13
5.59558e-13
5.70593e-13
5.22157e-13
5.1746e-13
4.78925e-13
4.66402e-13
4.47654e-13
4.2288e-13
4.10156e-13
3.66684e-13
3.60779e-13
3.12056e-13
3.22823e-13
3.03984e-13
)
;

boundaryField
{
    top
    {
        type            zeroGradient;
    }
    bottom
    {
        type            zeroGradient;
    }
    inlet
    {
        type            fixedValue;
        value           uniform 0;
    }
    outlet
    {
        type            fixedValue;
        value           uniform 0;
    }
    frontAndBack
    {
        type            empty;
    }
}


// ************************************************************************* //
