/*--------------------------------*- C++ -*----------------------------------*\
| =========                 |                                                 |
| \\      /  F ield         | OpenFOAM: The Open Source CFD Toolbox           |
|  \\    /   O peration     | Version:  4.1                                   |
|   \\  /    A nd           | Web:      www.OpenFOAM.org                      |
|    \\/     M anipulation  |                                                 |
\*---------------------------------------------------------------------------*/
FoamFile
{
    version     2.0;
    format      ascii;
    class       surfaceScalarField;
    location    "4.7";
    object      phi;
}
// * * * * * * * * * * * * * * * * * * * * * * * * * * * * * * * * * * * * * //

dimensions      [0 3 -1 0 0 0 0];

internalField   nonuniform List<scalar> 
760
(
1.25e-06
-1.06798e-18
1.25e-06
-7.34716e-19
1.25e-06
5.76402e-21
1.25e-06
-4.84788e-20
1.25e-06
3.46736e-20
1.25e-06
-3.34673e-20
1.25e-06
2.9698e-20
1.25e-06
-1.84108e-20
1.25e-06
1.06596e-20
1.25e-06
-1.33467e-20
1.25e-06
1.64968e-20
1.25e-06
2.44583e-21
1.25e-06
-6.35992e-21
1.25e-06
-2.70819e-21
1.25e-06
-1.52781e-20
1.25e-06
1.53783e-20
1.25e-06
-1.94188e-20
1.25e-06
2.82118e-20
1.25e-06
-4.43798e-19
-6.50606e-19
3.75e-06
-3.22684e-18
3.75e-06
-2.57124e-18
3.75e-06
-6.36711e-20
3.75e-06
-1.14132e-19
3.75e-06
7.20925e-20
3.75e-06
-7.75763e-20
3.75e-06
6.92152e-20
3.75e-06
-3.79759e-20
3.75e-06
1.5608e-20
3.75e-06
-3.22811e-20
3.75e-06
4.96707e-20
3.75e-06
1.18713e-20
3.75e-06
-2.02392e-20
3.75e-06
-1.51531e-20
3.75e-06
-3.99758e-20
3.75e-06
3.74717e-20
3.75e-06
-5.25293e-20
3.75e-06
7.30648e-20
3.75e-06
-1.63158e-18
-2.10232e-18
6.25e-06
-5.83472e-18
6.25e-06
-5.07101e-18
6.25e-06
-2.17083e-19
6.25e-06
-1.68081e-19
6.25e-06
9.04288e-20
6.25e-06
-1.1385e-19
6.25e-06
1.02856e-19
6.25e-06
-4.88397e-20
6.25e-06
8.78875e-21
6.25e-06
-4.85938e-20
6.25e-06
9.00942e-20
6.25e-06
2.59783e-20
6.25e-06
-3.62765e-20
6.25e-06
-3.78694e-20
6.25e-06
-7.01231e-20
6.25e-06
5.99057e-20
6.25e-06
-8.79396e-20
6.25e-06
1.17931e-19
6.25e-06
-3.34573e-18
-4.01731e-18
8.75e-06
-8.50084e-18
8.75e-06
-7.80234e-18
8.75e-06
-4.29664e-19
8.75e-06
-2.05085e-19
8.75e-06
9.25862e-20
8.75e-06
-1.42911e-19
8.75e-06
1.30413e-19
8.75e-06
-4.75895e-20
8.75e-06
-1.18209e-20
8.75e-06
-6.43669e-20
8.75e-06
1.34468e-19
8.75e-06
4.44195e-20
8.75e-06
-5.04176e-20
8.75e-06
-6.97372e-20
8.75e-06
-9.63914e-20
8.75e-06
8.11965e-20
8.75e-06
-1.26715e-19
8.75e-06
1.61108e-19
8.75e-06
-5.33852e-18
-6.145e-18
1.125e-05
-1.08834e-17
1.125e-05
-1.03877e-17
1.125e-05
-6.71401e-19
1.125e-05
-2.23759e-19
1.125e-05
8.23497e-20
1.125e-05
-1.65439e-19
1.125e-05
1.53792e-19
1.125e-05
-3.80198e-20
1.125e-05
-4.11087e-20
1.125e-05
-8.18401e-20
1.125e-05
1.83019e-19
1.125e-05
6.15151e-20
1.125e-05
-6.1591e-20
1.125e-05
-1.00266e-19
1.125e-05
-1.26273e-19
1.125e-05
1.01721e-19
1.125e-05
-1.64041e-19
1.125e-05
1.98929e-19
1.125e-05
-7.36153e-18
-8.2423e-18
1.375e-05
-1.273e-17
1.375e-05
-1.25275e-17
1.375e-05
-9.03017e-19
1.375e-05
-2.34013e-19
1.375e-05
5.81493e-20
1.375e-05
-1.75645e-19
1.375e-05
1.65706e-19
1.375e-05
-2.04508e-20
1.375e-05
-7.62804e-20
1.375e-05
-9.49794e-20
1.375e-05
2.25415e-19
1.375e-05
7.9796e-20
1.375e-05
-6.55371e-20
1.375e-05
-1.31621e-19
1.375e-05
-1.54194e-19
1.375e-05
1.18217e-19
1.375e-05
-1.93374e-19
1.375e-05
2.2493e-19
1.375e-05
-9.20198e-18
-1.00971e-17
1.625e-05
-1.38392e-17
1.625e-05
-1.40007e-17
1.625e-05
-1.11289e-18
1.625e-05
-2.21734e-19
1.625e-05
3.21724e-20
1.625e-05
-1.81005e-19
1.625e-05
1.7803e-19
1.625e-05
5.37507e-21
1.625e-05
-1.1185e-19
1.625e-05
-1.13789e-19
1.625e-05
2.61944e-19
1.625e-05
9.64973e-20
1.625e-05
-6.32936e-20
1.625e-05
-1.59094e-19
1.625e-05
-1.81131e-19
1.625e-05
1.28514e-19
1.625e-05
-2.109e-19
1.625e-05
2.50246e-19
1.625e-05
-1.06859e-17
-1.15315e-17
1.875e-05
-1.41487e-17
1.875e-05
-1.46712e-17
1.875e-05
-1.26805e-18
1.875e-05
-1.99822e-19
1.875e-05
-1.5889e-21
1.875e-05
-1.6802e-19
1.875e-05
1.80486e-19
1.875e-05
3.15448e-20
1.875e-05
-1.52128e-19
1.875e-05
-1.23649e-19
1.875e-05
2.93301e-19
1.875e-05
9.98638e-20
1.875e-05
-5.2231e-20
1.875e-05
-1.7859e-19
1.875e-05
-2.05955e-19
1.875e-05
1.28903e-19
1.875e-05
-2.11012e-19
1.875e-05
2.71405e-19
1.875e-05
-1.16823e-17
-1.24181e-17
2.125e-05
-1.36406e-17
2.125e-05
-1.45149e-17
2.125e-05
-1.35673e-18
2.125e-05
-1.60298e-19
2.125e-05
-4.43774e-20
2.125e-05
-1.48652e-19
2.125e-05
1.77804e-19
2.125e-05
5.16365e-20
2.125e-05
-1.93646e-19
2.125e-05
-1.27444e-19
2.125e-05
3.20262e-19
2.125e-05
1.01665e-19
2.125e-05
-4.00135e-20
2.125e-05
-1.94013e-19
2.125e-05
-2.23605e-19
2.125e-05
1.22667e-19
2.125e-05
-2.05188e-19
2.125e-05
2.84713e-19
2.125e-05
-1.20896e-17
-1.26783e-17
2.375e-05
-1.24074e-17
2.375e-05
-1.35828e-17
2.375e-05
-1.36454e-18
2.375e-05
-1.12911e-19
2.375e-05
-8.55439e-20
2.375e-05
-1.18169e-19
2.375e-05
1.62498e-19
2.375e-05
7.63385e-20
2.375e-05
-2.17807e-19
2.375e-05
-1.33422e-19
2.375e-05
3.2193e-19
2.375e-05
9.51168e-20
2.375e-05
-2.34606e-20
2.375e-05
-1.93456e-19
2.375e-05
-2.31311e-19
2.375e-05
1.13611e-19
2.375e-05
-1.90761e-19
2.375e-05
2.86992e-19
2.375e-05
-1.19052e-17
-1.23049e-17
2.625e-05
-1.05842e-17
2.625e-05
-1.20077e-17
2.625e-05
-1.30441e-18
2.625e-05
-5.47692e-20
2.625e-05
-1.20609e-19
2.625e-05
-7.93063e-20
2.625e-05
1.41428e-19
2.625e-05
9.18048e-20
2.625e-05
-2.34422e-19
2.625e-05
-1.38336e-19
2.625e-05
3.1036e-19
2.625e-05
9.15419e-20
2.625e-05
-1.16869e-20
2.625e-05
-2.02973e-19
2.625e-05
-2.27746e-19
2.625e-05
1.03574e-19
2.625e-05
-1.66582e-19
2.625e-05
2.74681e-19
2.625e-05
-1.11496e-17
-1.13461e-17
2.875e-05
-8.36892e-18
2.875e-05
-9.96138e-18
2.875e-05
-1.18824e-18
2.875e-05
-1.25603e-20
2.875e-05
-1.54224e-19
2.875e-05
-3.3774e-20
2.875e-05
1.36405e-19
2.875e-05
9.96926e-20
2.875e-05
-2.49852e-19
2.875e-05
-1.40668e-19
2.875e-05
2.96066e-19
2.875e-05
8.22034e-20
2.875e-05
-4.75492e-21
2.875e-05
-1.95724e-19
2.875e-05
-2.06944e-19
2.875e-05
8.72195e-20
2.875e-05
-1.37288e-19
2.875e-05
2.43261e-19
2.875e-05
-9.92406e-18
-9.90147e-18
3.125e-05
-5.99818e-18
3.125e-05
-7.70646e-18
3.125e-05
-1.01975e-18
3.125e-05
5.18829e-20
3.125e-05
-1.84019e-19
3.125e-05
1.43026e-22
3.125e-05
1.05115e-19
3.125e-05
1.01047e-19
3.125e-05
-2.35453e-19
3.125e-05
-1.3622e-19
3.125e-05
2.52935e-19
3.125e-05
8.05183e-20
3.125e-05
5.42391e-22
3.125e-05
-1.89303e-19
3.125e-05
-1.6823e-19
3.125e-05
6.39769e-20
3.125e-05
-1.03347e-19
3.125e-05
2.0909e-19
3.125e-05
-8.33886e-18
-8.13772e-18
3.375e-05
-3.71322e-18
3.375e-05
-5.44029e-18
3.375e-05
-8.41469e-19
3.375e-05
1.01083e-19
3.375e-05
-1.97451e-19
3.375e-05
4.10321e-20
3.375e-05
7.14419e-20
3.375e-05
9.97777e-20
3.375e-05
-2.16629e-19
3.375e-05
-1.24669e-19
3.375e-05
2.13339e-19
3.375e-05
6.16101e-20
3.375e-05
4.91752e-22
3.375e-05
-1.73084e-19
3.375e-05
-1.22089e-19
3.375e-05
4.47257e-20
3.375e-05
-8.07015e-20
3.375e-05
1.76549e-19
3.375e-05
-6.56655e-18
-6.1994e-18
3.625e-05
-1.75019e-18
3.625e-05
-3.40516e-18
3.625e-05
-6.50419e-19
3.625e-05
1.36932e-19
3.625e-05
-1.87876e-19
3.625e-05
6.07499e-20
3.625e-05
3.32516e-20
3.625e-05
9.3855e-20
3.625e-05
-1.90547e-19
3.625e-05
-1.05025e-19
3.625e-05
1.56101e-19
3.625e-05
5.63378e-20
3.625e-05
-2.59326e-21
3.625e-05
-1.53332e-19
3.625e-05
-7.71724e-20
3.625e-05
3.09996e-20
3.625e-05
-4.57455e-20
3.625e-05
1.25858e-19
3.625e-05
-4.77684e-18
-4.27774e-18
3.875e-05
-2.96389e-19
3.875e-05
-1.79116e-18
3.875e-05
-4.57525e-19
3.875e-05
1.46092e-19
3.875e-05
-1.72175e-19
3.875e-05
7.51342e-20
3.875e-05
-4.98637e-21
3.875e-05
7.60547e-20
3.875e-05
-1.48732e-19
3.875e-05
-6.59335e-20
3.875e-05
1.0995e-19
3.875e-05
3.92921e-20
3.875e-05
-3.96908e-21
3.875e-05
-1.26218e-19
3.875e-05
-2.846e-20
3.875e-05
1.54721e-20
3.875e-05
-1.96045e-20
3.875e-05
7.77657e-20
3.875e-05
-3.12913e-18
-2.57258e-18
4.125e-05
5.5103e-19
4.125e-05
-6.84961e-19
4.125e-05
-2.99901e-19
4.125e-05
1.30033e-19
4.125e-05
-1.35794e-19
4.125e-05
7.79004e-20
4.125e-05
-2.37475e-20
4.125e-05
4.9318e-20
4.125e-05
-1.06726e-19
4.125e-05
-2.54504e-20
4.125e-05
5.23121e-20
4.125e-05
3.04576e-20
4.125e-05
1.0792e-21
4.125e-05
-8.41673e-20
4.125e-05
-5.86421e-21
4.125e-05
-5.67493e-21
4.125e-05
-3.50926e-21
4.125e-05
3.18564e-20
4.125e-05
-1.74804e-18
-1.22094e-18
4.375e-05
7.56873e-19
4.375e-05
-9.05786e-20
4.375e-05
-1.80938e-19
4.375e-05
9.49503e-20
4.375e-05
-1.04349e-19
4.375e-05
6.99971e-20
4.375e-05
-8.86145e-21
4.375e-05
1.98373e-20
4.375e-05
-6.17209e-20
4.375e-05
4.07782e-21
4.375e-05
1.57558e-20
4.375e-05
1.41395e-20
4.375e-05
-2.32258e-21
4.375e-05
-4.70356e-20
4.375e-05
9.17913e-21
4.375e-05
-1.69192e-20
4.375e-05
6.7001e-21
4.375e-05
6.40838e-21
4.375e-05
-7.52353e-19
-3.44135e-19
4.625e-05
4.28372e-19
4.625e-05
5.43208e-20
4.625e-05
-7.58455e-20
4.625e-05
3.76845e-20
4.625e-05
-3.70778e-20
4.625e-05
3.39574e-20
4.625e-05
-1.29745e-20
4.625e-05
7.72655e-21
4.625e-05
-2.34788e-20
4.625e-05
4.12733e-21
4.625e-05
3.32147e-21
4.625e-05
-9.60291e-23
4.625e-05
4.05798e-21
4.625e-05
-1.10458e-20
4.625e-05
1.47994e-21
4.625e-05
-7.58584e-21
4.625e-05
5.84422e-21
4.625e-05
-7.38234e-21
4.625e-05
-1.73365e-19
1.24062e-20
4.875e-05
4.875e-05
4.875e-05
4.875e-05
4.875e-05
4.875e-05
4.875e-05
4.875e-05
4.875e-05
4.875e-05
4.875e-05
4.875e-05
4.875e-05
4.875e-05
4.875e-05
4.875e-05
4.875e-05
4.875e-05
4.875e-05
)
;

boundaryField
{
    top
    {
        type            calculated;
        value           uniform 0;
    }
    bottom
    {
        type            calculated;
        value           uniform 0;
    }
    inlet
    {
        type            calculated;
        value           nonuniform List<scalar> 
20
(
-1.25e-06
-3.75e-06
-6.25e-06
-8.75e-06
-1.125e-05
-1.375e-05
-1.625e-05
-1.875e-05
-2.125e-05
-2.375e-05
-2.625e-05
-2.875e-05
-3.125e-05
-3.375e-05
-3.625e-05
-3.875e-05
-4.125e-05
-4.375e-05
-4.625e-05
-4.875e-05
)
;
    }
    outlet
    {
        type            calculated;
        value           nonuniform List<scalar> 
20
(
1.25e-06
3.75e-06
6.25e-06
8.75e-06
1.125e-05
1.375e-05
1.625e-05
1.875e-05
2.125e-05
2.375e-05
2.625e-05
2.875e-05
3.125e-05
3.375e-05
3.625e-05
3.875e-05
4.125e-05
4.375e-05
4.625e-05
4.875e-05
)
;
    }
    frontAndBack
    {
        type            empty;
        value           nonuniform 0();
    }
}


// ************************************************************************* //
