/*--------------------------------*- C++ -*----------------------------------*\
| =========                 |                                                 |
| \\      /  F ield         | OpenFOAM: The Open Source CFD Toolbox           |
|  \\    /   O peration     | Version:  4.1                                   |
|   \\  /    A nd           | Web:      www.OpenFOAM.org                      |
|    \\/     M anipulation  |                                                 |
\*---------------------------------------------------------------------------*/
FoamFile
{
    version     2.0;
    format      ascii;
    class       volVectorField;
    location    "4.7";
    object      U;
}
// * * * * * * * * * * * * * * * * * * * * * * * * * * * * * * * * * * * * * //

dimensions      [0 1 -1 0 0 0 0];

internalField   nonuniform List<vector> 
400
(
(0.025 -4.76164e-16 0)
(0.025 -2.97261e-16 0)
(0.025 9.28348e-18 0)
(0.025 -2.47148e-17 0)
(0.025 1.84467e-17 0)
(0.025 -1.6953e-17 0)
(0.025 1.49071e-17 0)
(0.025 -9.49386e-18 0)
(0.025 6.06557e-18 0)
(0.025 -6.6887e-18 0)
(0.025 7.24645e-18 0)
(0.025 7.17271e-19 0)
(0.025 -2.90913e-18 0)
(0.025 -4.12865e-19 0)
(0.025 -7.07731e-18 0)
(0.025 7.2187e-18 0)
(0.025 -9.52293e-18 0)
(0.025 1.26611e-17 0)
(0.025 -1.68976e-16 0)
(0.025 -2.73556e-16 0)
(0.075 -2.00237e-15 0)
(0.075 -1.47957e-15 0)
(0.075 -9.99189e-18 0)
(0.075 -8.11607e-17 0)
(0.075 5.52987e-17 0)
(0.075 -5.53747e-17 0)
(0.075 4.96182e-17 0)
(0.075 -2.97039e-17 0)
(0.075 1.53216e-17 0)
(0.075 -2.24173e-17 0)
(0.075 3.08059e-17 0)
(0.075 5.98997e-18 0)
(0.075 -1.2456e-17 0)
(0.075 -6.99918e-18 0)
(0.075 -2.6483e-17 0)
(0.075 2.60879e-17 0)
(0.075 -3.40043e-17 0)
(0.075 5.03163e-17 0)
(0.075 -9.09005e-16 0)
(0.075 -1.25124e-15 0)
(0.125 -4.4391e-15 0)
(0.125 -3.69354e-15 0)
(0.125 -1.23945e-16 0)
(0.125 -1.42801e-16 0)
(0.125 8.44166e-17 0)
(0.125 -9.63706e-17 0)
(0.125 8.65427e-17 0)
(0.125 -4.53008e-17 0)
(0.125 1.48227e-17 0)
(0.125 -4.03034e-17 0)
(0.125 6.77116e-17 0)
(0.125 1.78483e-17 0)
(0.125 -2.80118e-17 0)
(0.125 -2.42786e-17 0)
(0.125 -5.41637e-17 0)
(0.125 4.80615e-17 0)
(0.125 -6.9125e-17 0)
(0.125 9.40166e-17 0)
(0.125 -2.3807e-15 0)
(0.125 -2.95953e-15 0)
(0.175 -7.1826e-15 0)
(0.175 -6.41152e-15 0)
(0.175 -3.11892e-16 0)
(0.175 -1.89967e-16 0)
(0.175 9.53119e-17 0)
(0.175 -1.30498e-16 0)
(0.175 1.18137e-16 0)
(0.175 -5.09014e-17 0)
(0.175 1.1539e-18 0)
(0.175 -5.65242e-17 0)
(0.175 1.11583e-16 0)
(0.175 3.45893e-17 0)
(0.175 -4.395e-17 0)
(0.175 -5.26098e-17 0)
(0.175 -8.29674e-17 0)
(0.175 7.08334e-17 0)
(0.175 -1.07199e-16 0)
(0.175 1.4e-16 0)
(0.175 -4.29621e-15 0)
(0.175 -5.05094e-15 0)
(0.225 -9.79304e-15 0)
(0.225 -9.16524e-15 0)
(0.225 -5.47262e-16 0)
(0.225 -2.18519e-16 0)
(0.225 9.07988e-17 0)
(0.225 -1.5664e-16 0)
(0.225 1.43462e-16 0)
(0.225 -4.51181e-17 0)
(0.225 -2.43673e-17 0)
(0.225 -7.3359e-17 0)
(0.225 1.59209e-16 0)
(0.225 5.30456e-17 0)
(0.225 -5.7442e-17 0)
(0.225 -8.46387e-17 0)
(0.225 -1.113e-16 0)
(0.225 9.20589e-17 0)
(0.225 -1.46676e-16 0)
(0.225 1.81152e-16 0)
(0.225 -6.36706e-15 0)
(0.225 -7.22697e-15 0)
(0.275 -1.1963e-14 0)
(0.275 -1.15947e-14 0)
(0.275 -7.90878e-16 0)
(0.275 -2.32942e-16 0)
(0.275 7.27456e-17 0)
(0.275 -1.72995e-16 0)
(0.275 1.61028e-16 0)
(0.275 -3.08812e-17 0)
(0.275 -5.72181e-17 0)
(0.275 -8.87005e-17 0)
(0.275 2.05158e-16 0)
(0.275 7.1141e-17 0)
(0.275 -6.53415e-17 0)
(0.275 -1.16255e-16 0)
(0.275 -1.40801e-16 0)
(0.275 1.1107e-16 0)
(0.275 -1.80808e-16 0)
(0.275 2.13079e-16 0)
(0.275 -8.34869e-15 0)
(0.275 -9.25183e-15 0)
(0.325 -1.34734e-14 0)
(0.325 -1.34437e-14 0)
(0.325 -1.01845e-15 0)
(0.325 -2.32082e-16 0)
(0.325 4.68397e-17 0)
(0.325 -1.81121e-16 0)
(0.325 1.73565e-16 0)
(0.325 -7.88163e-18 0)
(0.325 -9.34292e-17 0)
(0.325 -1.05329e-16 0)
(0.325 2.45244e-16 0)
(0.325 8.935e-17 0)
(0.325 -6.56161e-17 0)
(0.325 -1.47155e-16 0)
(0.325 -1.68371e-16 0)
(0.325 1.25288e-16 0)
(0.325 -2.05184e-16 0)
(0.325 2.39033e-16 0)
(0.325 -1.00492e-14 0)
(0.325 -1.0934e-14 0)
(0.375 -1.41942e-14 0)
(0.375 -1.45361e-14 0)
(0.375 -1.20587e-15 0)
(0.375 -2.14373e-16 0)
(0.375 1.64138e-17 0)
(0.375 -1.77277e-16 0)
(0.375 1.81366e-16 0)
(0.375 1.8534e-17 0)
(0.375 -1.32664e-16 0)
(0.375 -1.19545e-16 0)
(0.375 2.80333e-16 0)
(0.375 9.94428e-17 0)
(0.375 -5.91089e-17 0)
(0.375 -1.70527e-16 0)
(0.375 -1.94937e-16 0)
(0.375 1.3013e-16 0)
(0.375 -2.13637e-16 0)
(0.375 2.62503e-16 0)
(0.375 -1.13162e-14 0)
(0.375 -1.21191e-14 0)
(0.425 -1.40853e-14 0)
(0.425 -1.47919e-14 0)
(0.425 -1.33057e-15 0)
(0.425 -1.83265e-16 0)
(0.425 -2.25156e-17 0)
(0.425 -1.60727e-16 0)
(0.425 1.80486e-16 0)
(0.425 4.21849e-17 0)
(0.425 -1.73979e-16 0)
(0.425 -1.26256e-16 0)
(0.425 3.09142e-16 0)
(0.425 1.02653e-16 0)
(0.425 -4.6654e-17 0)
(0.425 -1.88449e-16 0)
(0.425 -2.16999e-16 0)
(0.425 1.27612e-16 0)
(0.425 -2.11056e-16 0)
(0.425 2.80288e-16 0)
(0.425 -1.20305e-14 0)
(0.425 -1.27027e-14 0)
(0.475 -1.31871e-14 0)
(0.475 -1.4225e-14 0)
(0.475 -1.38019e-15 0)
(0.475 -1.38679e-16 0)
(0.475 -6.48345e-17 0)
(0.475 -1.35659e-16 0)
(0.475 1.71661e-16 0)
(0.475 6.50075e-17 0)
(0.475 -2.0794e-16 0)
(0.475 -1.31021e-16 0)
(0.475 3.24253e-16 0)
(0.475 9.90301e-17 0)
(0.475 -3.087e-17 0)
(0.475 -1.95529e-16 0)
(0.475 -2.30337e-16 0)
(0.475 1.19657e-16 0)
(0.475 -2.00197e-16 0)
(0.475 2.88642e-16 0)
(0.475 -1.214e-14 0)
(0.475 -1.26424e-14 0)
(0.525 -1.16163e-14 0)
(0.525 -1.2933e-14 0)
(0.525 -1.35155e-15 0)
(0.525 -8.48903e-17 0)
(0.525 -1.03843e-16 0)
(0.525 -9.98891e-17 0)
(0.525 1.52412e-16 0)
(0.525 8.52808e-17 0)
(0.525 -2.28963e-16 0)
(0.525 -1.3601e-16 0)
(0.525 3.19727e-16 0)
(0.525 9.36569e-17 0)
(0.525 -1.67827e-17 0)
(0.525 -1.99462e-16 0)
(0.525 -2.32552e-16 0)
(0.525 1.09025e-16 0)
(0.525 -1.80152e-16 0)
(0.525 2.84079e-16 0)
(0.525 -1.16557e-14 0)
(0.525 -1.19577e-14 0)
(0.575 -9.54398e-15 0)
(0.575 -1.10708e-14 0)
(0.575 -1.2589e-15 0)
(0.575 -3.4283e-17 0)
(0.575 -1.39431e-16 0)
(0.575 -5.70152e-17 0)
(0.575 1.39525e-16 0)
(0.575 9.74243e-17 0)
(0.575 -2.45346e-16 0)
(0.575 -1.40183e-16 0)
(0.575 3.06055e-16 0)
(0.575 8.72155e-17 0)
(0.575 -6.8403e-18 0)
(0.575 -2.00611e-16 0)
(0.575 -2.20304e-16 0)
(0.575 9.624e-17 0)
(0.575 -1.53151e-16 0)
(0.575 2.61843e-16 0)
(0.575 -1.06381e-14 0)
(0.575 -1.07249e-14 0)
(0.625 -7.19233e-15 0)
(0.625 -8.86253e-15 0)
(0.625 -1.1137e-15 0)
(0.625 2.0622e-17 0)
(0.625 -1.72139e-16 0)
(0.625 -1.59128e-17 0)
(0.625 1.22873e-16 0)
(0.625 1.01265e-16 0)
(0.625 -2.46093e-16 0)
(0.625 -1.39719e-16 0)
(0.625 2.77429e-16 0)
(0.625 8.08969e-17 0)
(0.625 -1.25989e-18 0)
(0.625 -1.93171e-16 0)
(0.625 -1.9071e-16 0)
(0.625 7.54923e-17 0)
(0.625 -1.20383e-16 0)
(0.625 2.28784e-16 0)
(0.625 -9.19796e-15 0)
(0.625 -9.08145e-15 0)
(0.675 -4.80593e-15 0)
(0.675 -6.54467e-15 0)
(0.675 -9.33918e-16 0)
(0.675 7.91447e-17 0)
(0.675 -1.94625e-16 0)
(0.675 2.23688e-17 0)
(0.675 8.93456e-17 0)
(0.675 1.02091e-16 0)
(0.675 -2.2902e-16 0)
(0.675 -1.33222e-16 0)
(0.675 2.36074e-16 0)
(0.675 7.1707e-17 0)
(0.675 7.33986e-19 0)
(0.675 -1.82519e-16 0)
(0.675 -1.46614e-16 0)
(0.675 5.42859e-17 0)
(0.675 -9.17607e-17 0)
(0.675 1.94247e-16 0)
(0.675 -7.4798e-15 0)
(0.675 -7.18548e-15 0)
(0.725 -2.63042e-15 0)
(0.725 -4.34514e-15 0)
(0.725 -7.44928e-16 0)
(0.725 1.2399e-16 0)
(0.725 -1.96052e-16 0)
(0.725 5.22206e-17 0)
(0.725 5.30087e-17 0)
(0.725 9.94074e-17 0)
(0.725 -2.06323e-16 0)
(0.725 -1.1773e-16 0)
(0.725 1.85401e-16 0)
(0.725 5.98892e-17 0)
(0.725 -1.61922e-18 0)
(0.725 -1.6422e-16 0)
(0.725 -9.93387e-17 0)
(0.725 3.78543e-17 0)
(0.725 -6.22285e-17 0)
(0.725 1.50985e-16 0)
(0.725 -5.65762e-15 0)
(0.725 -5.20986e-15 0)
(0.775 -8.84301e-16 0)
(0.775 -2.48547e-15 0)
(0.775 -5.49888e-16 0)
(0.775 1.47379e-16 0)
(0.775 -1.83329e-16 0)
(0.775 7.11956e-17 0)
(0.775 1.22148e-17 0)
(0.775 8.67474e-17 0)
(0.775 -1.70914e-16 0)
(0.775 -8.64904e-17 0)
(0.775 1.3199e-16 0)
(0.775 4.86884e-17 0)
(0.775 -3.87658e-18 0)
(0.775 -1.42064e-16 0)
(0.775 -5.0495e-17 0)
(0.775 2.29789e-17 0)
(0.775 -3.18901e-17 0)
(0.775 1.00721e-16 0)
(0.775 -3.90146e-15 0)
(0.775 -3.35433e-15 0)
(0.825 2.7717e-16 0)
(0.825 -1.11279e-15 0)
(0.825 -3.70778e-16 0)
(0.825 1.43766e-16 0)
(0.825 -1.57038e-16 0)
(0.825 8.10471e-17 0)
(0.825 -1.81389e-17 0)
(0.825 6.32032e-17 0)
(0.825 -1.28689e-16 0)
(0.825 -4.43627e-17 0)
(0.825 7.9361e-17 0)
(0.825 3.53327e-17 0)
(0.825 -1.64912e-18 0)
(0.825 -1.05855e-16 0)
(0.825 -1.30883e-17 0)
(0.825 3.37377e-18 0)
(0.825 -9.86921e-18 0)
(0.825 5.16581e-17 0)
(0.825 -2.35707e-15 0)
(0.825 -1.79367e-15 0)
(0.875 7.83125e-16 0)
(0.875 -2.73083e-16 0)
(0.875 -2.33538e-16 0)
(0.875 1.16141e-16 0)
(0.875 -1.21362e-16 0)
(0.875 7.74641e-17 0)
(0.875 -1.91544e-17 0)
(0.875 3.40618e-17 0)
(0.875 -8.21154e-17 0)
(0.875 -8.29924e-18 0)
(0.875 2.96926e-17 0)
(0.875 2.10808e-17 0)
(0.875 -9.65771e-19 0)
(0.875 -6.47409e-17 0)
(0.875 4.75043e-18 0)
(0.875 -1.34772e-17 0)
(0.875 3.34061e-18 0)
(0.875 1.59014e-17 0)
(0.875 -1.14921e-15 0)
(0.875 -6.65144e-16 0)
(0.925 6.75716e-16 0)
(0.925 6.23481e-17 0)
(0.925 -1.2071e-16 0)
(0.925 6.66425e-17 0)
(0.925 -7.07909e-17 0)
(0.925 5.46738e-17 0)
(0.925 -1.35108e-17 0)
(0.925 1.09246e-17 0)
(0.925 -4.12837e-17 0)
(0.925 7.95438e-18 0)
(0.925 7.1531e-18 0)
(0.925 6.54883e-18 0)
(0.925 1.38899e-18 0)
(0.925 -2.72666e-17 0)
(0.925 7.29863e-18 0)
(0.925 -1.3592e-17 0)
(0.925 8.67842e-18 0)
(0.925 -3.54467e-18 0)
(0.925 -3.72738e-16 0)
(0.925 -6.52325e-17 0)
(0.975 2.53041e-16 0)
(0.975 6.27361e-17 0)
(0.975 -3.6431e-17 0)
(0.975 1.95841e-17 0)
(0.975 -1.95097e-17 0)
(0.975 1.91963e-17 0)
(0.975 -6.95591e-18 0)
(0.975 2.41097e-18 0)
(0.975 -9.50396e-18 0)
(0.975 2.54946e-18 0)
(0.975 3.507e-19 0)
(0.975 -1.05022e-18 0)
(0.975 1.5111e-18 0)
(0.975 -4.13998e-18 0)
(0.975 1.18528e-18 0)
(0.975 -5.72853e-18 0)
(0.975 3.62625e-18 0)
(0.975 -4.7253e-18 0)
(0.975 -4.81409e-17 0)
(0.975 4.974e-17 0)
)
;

boundaryField
{
    top
    {
        type            fixedValue;
        value           uniform (1 0 0);
    }
    bottom
    {
        type            fixedValue;
        value           uniform (0 0 0);
    }
    inlet
    {
        type            zeroGradient;
    }
    outlet
    {
        type            zeroGradient;
    }
    frontAndBack
    {
        type            empty;
    }
}


// ************************************************************************* //
