/*--------------------------------*- C++ -*----------------------------------*\
| =========                 |                                                 |
| \\      /  F ield         | OpenFOAM: The Open Source CFD Toolbox           |
|  \\    /   O peration     | Version:  4.1                                   |
|   \\  /    A nd           | Web:      www.OpenFOAM.org                      |
|    \\/     M anipulation  |                                                 |
\*---------------------------------------------------------------------------*/
FoamFile
{
    version     2.0;
    format      ascii;
    class       surfaceScalarField;
    location    "0.2";
    object      phi;
}
// * * * * * * * * * * * * * * * * * * * * * * * * * * * * * * * * * * * * * //

dimensions      [0 3 -1 0 0 0 0];

internalField   nonuniform List<scalar> 
760
(
2.79064e-05
-5.92475e-09
2.79034e-05
2.94163e-09
2.79057e-05
-2.30273e-09
2.79048e-05
9.00227e-10
2.7905e-05
-1.58282e-10
2.79054e-05
-4.80115e-10
2.79046e-05
8.8319e-10
2.79057e-05
-1.14667e-09
2.79045e-05
1.2619e-09
2.79057e-05
-1.2976e-09
2.79045e-05
1.22924e-09
2.79057e-05
-1.14279e-09
2.79047e-05
1.01462e-09
2.79055e-05
-8.68055e-10
2.79048e-05
7.01023e-10
2.79054e-05
-5.47268e-10
2.7905e-05
3.73338e-10
2.79052e-05
-1.87001e-10
2.79047e-05
5.03241e-10
-7.25501e-10
7.74758e-05
-1.44497e-08
7.74727e-05
5.95184e-09
7.74755e-05
-5.07165e-09
7.74748e-05
1.6523e-09
7.74748e-05
-1.78909e-10
7.74755e-05
-1.22304e-09
7.74743e-05
2.07758e-09
7.74758e-05
-2.63428e-09
7.74742e-05
2.85604e-09
7.74758e-05
-2.90204e-09
7.74743e-05
2.74498e-09
7.74757e-05
-2.5232e-09
7.74745e-05
2.22028e-09
7.74755e-05
-1.89134e-09
7.74747e-05
1.52322e-09
7.74753e-05
-1.15801e-09
7.7475e-05
7.17441e-10
7.7475e-05
-1.8003e-10
7.74743e-05
1.16958e-09
-1.76556e-09
0.000120987
-2.16622e-08
0.000120986
7.33093e-09
0.000120988
-6.83302e-09
0.000120987
1.82678e-09
0.000120987
9.69614e-12
0.000120988
-1.90125e-09
0.000120987
3.01287e-09
0.000120988
-3.73195e-09
0.000120987
3.98892e-09
0.000120988
-4.0106e-09
0.000120987
3.77476e-09
0.000120988
-3.43997e-09
0.000120987
3.00656e-09
0.000120988
-2.54377e-09
0.000120987
2.0358e-09
0.000120988
-1.50078e-09
0.000120988
7.8772e-10
0.000120987
1.14514e-10
0.000120987
1.73236e-09
-2.67277e-09
0.000158618
-2.6656e-08
0.000158618
7.54549e-09
0.000158619
-7.57505e-09
0.000158619
1.70517e-09
0.000158618
2.85174e-10
0.000158619
-2.39733e-09
0.000158618
3.60764e-09
0.000158619
-4.38171e-09
0.000158618
4.6276e-09
0.000158619
-4.61273e-09
0.000158618
4.31683e-09
0.000158619
-3.90871e-09
0.000158618
3.39895e-09
0.000158619
-2.85483e-09
0.000158619
2.26509e-09
0.000158619
-1.60979e-09
0.000158619
6.44861e-10
0.000158618
5.62984e-10
0.000158618
2.20872e-09
-3.35673e-09
0.000190533
-2.88236e-08
0.000190534
7.03075e-09
0.000190533
-7.34382e-09
0.000190534
1.49706e-09
0.000190533
5.53741e-10
0.000190534
-2.63006e-09
0.000190533
3.81741e-09
0.000190534
-4.56379e-09
0.000190533
4.77172e-09
0.000190533
-4.72282e-09
0.000190533
4.39722e-09
0.000190533
-3.96127e-09
0.000190533
3.43045e-09
0.000190533
-2.86139e-09
0.000190533
2.24596e-09
0.000190533
-1.52309e-09
0.000190534
3.59548e-10
0.000190533
1.05703e-09
0.000190533
2.59816e-09
-3.75311e-09
0.000216882
-2.79052e-08
0.000216883
6.14909e-09
0.000216882
-6.2293e-09
0.000216882
1.3483e-09
0.000216882
7.54697e-10
0.000216882
-2.56125e-09
0.000216882
3.63647e-09
0.000216881
-4.2929e-09
0.000216882
4.4513e-09
0.000216881
-4.3811e-09
0.000216882
4.06151e-09
0.000216882
-3.64458e-09
0.000216882
3.14611e-09
0.000216882
-2.60631e-09
0.000216882
2.01805e-09
0.000216882
-1.283e-09
0.000216882
-1.84259e-12
0.000216881
1.50857e-09
0.000216881
2.88297e-09
-3.82736e-09
0.000237795
-2.39931e-08
0.000237796
5.15722e-09
0.000237794
-4.37162e-09
0.000237794
1.33444e-09
0.000237794
8.56812e-10
0.000237794
-2.19435e-09
0.000237795
3.09481e-09
0.000237794
-3.61621e-09
0.000237795
3.72394e-09
0.000237794
-3.65026e-09
0.000237795
3.37236e-09
0.000237794
-3.01816e-09
0.000237794
2.59996e-09
0.000237794
-2.13747e-09
0.000237794
1.62392e-09
0.000237794
-9.32295e-10
0.000237794
-3.81679e-10
0.000237794
1.85513e-09
0.000237794
3.03544e-09
-3.57948e-09
0.000253382
-1.7506e-08
0.000253383
4.1916e-09
0.00025338
-1.96052e-09
0.00025338
1.4623e-09
0.00025338
8.53192e-10
0.00025338
-1.57012e-09
0.00025338
2.25315e-09
0.000253379
-2.60884e-09
0.00025338
2.67039e-09
0.000253379
-2.61132e-09
0.00025338
2.40622e-09
0.000253379
-2.15126e-09
0.00025338
1.85245e-09
0.00025338
-1.50629e-09
0.00025338
1.10738e-09
0.00025338
-5.11314e-10
0.00025338
-7.35242e-10
0.00025338
2.0621e-09
0.00025338
3.02881e-09
-3.04266e-09
0.000263725
-9.13677e-09
0.000263726
3.27581e-09
0.000263723
7.73248e-10
0.000263723
1.68069e-09
0.000263723
7.55886e-10
0.000263722
-7.59789e-10
0.000263723
1.1966e-09
0.000263722
-1.36807e-09
0.000263723
1.38925e-09
0.000263722
-1.35927e-09
0.000263723
1.24979e-09
0.000263722
-1.1202e-09
0.000263723
9.68449e-10
0.000263722
-7.66439e-10
0.000263723
5.12205e-10
0.000263722
-5.59984e-11
0.000263723
-1.03325e-09
0.000263723
2.1218e-09
0.000263723
2.8479e-09
-2.27781e-09
0.000268882
2.24278e-10
0.000268883
2.34845e-09
0.00026888
3.57453e-09
0.00026888
1.89964e-09
0.00026888
5.90812e-10
0.000268879
1.44247e-10
0.00026888
2.72202e-11
0.000268879
-6.40246e-12
0.00026888
-8.72751e-12
0.000268879
1.53617e-12
0.00026888
-3.42925e-12
0.000268879
-5.79153e-12
0.00026888
1.55063e-11
0.000268879
2.72211e-11
0.00026888
-1.18633e-10
0.00026888
4.02824e-10
0.00026888
-1.26201e-09
0.00026888
2.0494e-09
0.00026888
2.49647e-09
-1.36574e-09
0.000268882
9.5823e-09
0.000268883
1.30673e-09
0.00026888
6.1862e-09
0.00026888
2.01531e-09
0.000268881
3.93037e-10
0.00026888
1.03921e-09
0.000268881
-1.14412e-09
0.000268879
1.35584e-09
0.000268881
-1.40665e-09
0.000268879
1.36203e-09
0.000268881
-1.25662e-09
0.00026888
1.10888e-09
0.000268881
-9.37515e-10
0.00026888
8.19444e-10
0.00026888
-7.43186e-10
0.00026888
8.38925e-10
0.00026888
-1.42102e-09
0.00026888
1.87692e-09
0.000268881
1.99995e-09
-3.98303e-10
0.000263725
1.79407e-08
0.000263726
5.84728e-11
0.000263724
8.37328e-09
0.000263724
1.93694e-09
0.000263724
2.01889e-10
0.000263723
1.82357e-09
0.000263724
-2.2062e-09
0.000263723
2.59836e-09
0.000263724
-2.68763e-09
0.000263723
2.61317e-09
0.000263724
-2.41296e-09
0.000263723
2.14073e-09
0.000263724
-1.82175e-09
0.000263723
1.55519e-09
0.000263724
-1.32038e-09
0.000263724
1.22912e-09
0.000263724
-1.51843e-09
0.000263724
1.64576e-09
0.000263724
1.40355e-09
5.30283e-10
0.000253381
2.44047e-08
0.000253383
-1.4266e-09
0.000253381
9.94387e-09
0.000253381
1.61143e-09
0.000253382
5.52695e-11
0.000253381
2.40838e-09
0.000253382
-3.05605e-09
0.000253381
3.60863e-09
0.000253382
-3.74092e-09
0.000253381
3.65066e-09
0.000253382
-3.37903e-09
0.000253381
3.00889e-09
0.000253382
-2.56963e-09
0.000253381
2.18016e-09
0.000253382
-1.80968e-09
0.000253381
1.55112e-09
0.000253381
-1.56508e-09
0.000253382
1.39878e-09
0.000253382
7.668e-10
1.33131e-09
0.000237795
2.82769e-08
0.000237796
-3.07528e-09
0.000237796
1.07626e-08
0.000237796
1.04197e-09
0.000237796
-1.72779e-11
0.000237796
2.72746e-09
0.000237796
-3.60729e-09
0.000237796
4.28936e-09
0.000237797
-4.46792e-09
0.000237796
4.37964e-09
0.000237796
-4.06825e-09
0.000237796
3.637e-09
0.000237796
-3.11622e-09
0.000237796
2.6415e-09
0.000237796
-2.17084e-09
0.000237796
1.78143e-09
0.000237796
-1.56826e-09
0.000237796
1.17226e-09
0.000237797
1.56209e-10
1.92839e-09
0.000216881
2.91361e-08
0.000216883
-4.6869e-09
0.000216883
1.07538e-08
0.000216884
2.984e-10
0.000216884
-2.66354e-12
0.000216884
2.74569e-09
0.000216884
-3.79784e-09
0.000216884
4.56525e-09
0.000216884
-4.78786e-09
0.000216884
4.7192e-09
0.000216884
-4.40433e-09
0.000216884
3.95576e-09
0.000216884
-3.40095e-09
0.000216884
2.88858e-09
0.000216884
-2.36403e-09
0.000216884
1.89379e-09
0.000216884
-1.52612e-09
0.000216884
9.88285e-10
0.000216884
-3.61987e-10
2.26307e-09
0.000190533
2.68928e-08
0.000190534
-5.93209e-09
0.000190535
9.89461e-09
0.000190536
-4.8157e-10
0.000190535
8.72693e-11
0.000190536
2.46502e-09
0.000190535
-3.5966e-09
0.000190536
4.38887e-09
0.000190536
-4.64309e-09
0.000190536
4.60683e-09
0.000190536
-4.3248e-09
0.000190536
3.90557e-09
0.000190536
-3.36956e-09
0.000190536
2.87424e-09
0.000190536
-2.35042e-09
0.000190536
1.85893e-09
0.000190536
-1.42398e-09
0.000190536
8.48163e-10
0.000190536
-7.2729e-10
2.29914e-09
0.000158618
2.18155e-08
0.000158618
-6.37552e-09
0.00015862
8.20013e-09
0.00015862
-1.0987e-09
0.00015862
2.08226e-10
0.000158621
1.92796e-09
0.00015862
-3.00863e-09
0.000158621
3.745e-09
0.00015862
-4.00345e-09
0.000158621
4.00246e-09
0.00015862
-3.7843e-09
0.000158621
3.43947e-09
0.00015862
-2.97674e-09
0.000158621
2.55598e-09
0.00015862
-2.09338e-09
0.000158621
1.6458e-09
0.000158621
-1.2329e-09
0.000158621
7.27564e-10
0.000158621
-8.87483e-10
2.02552e-09
0.000120987
1.45242e-08
0.000120986
-5.51781e-09
0.000120989
5.70616e-09
0.000120989
-1.3036e-09
0.000120989
2.78499e-10
0.000120989
1.21858e-09
0.000120989
-2.07841e-09
0.00012099
2.65287e-09
0.000120988
-2.86918e-09
0.00012099
2.89188e-09
0.000120989
-2.75697e-09
0.00012099
2.52554e-09
0.000120989
-2.1892e-09
0.000120989
1.89696e-09
0.000120989
-1.56e-09
0.000120989
1.22436e-09
0.000120989
-9.1046e-10
0.000120989
5.74704e-10
0.000120989
-7.98157e-10
1.45676e-09
7.74756e-05
5.94248e-09
7.7473e-05
-2.84007e-09
7.74762e-05
2.47385e-09
7.74757e-05
-7.95415e-10
7.74758e-05
1.82842e-10
7.74765e-05
4.60868e-10
7.74753e-05
-8.87341e-10
7.74768e-05
1.16609e-09
7.74752e-05
-1.27026e-09
7.74768e-05
1.28708e-09
7.74753e-05
-1.23924e-09
7.74767e-05
1.14668e-09
7.74755e-05
-9.86506e-10
7.74765e-05
8.68358e-10
7.74757e-05
-7.23242e-10
7.74763e-05
5.64542e-10
7.74758e-05
-4.13361e-10
7.74761e-05
2.95497e-10
7.74757e-05
-4.19901e-10
6.39014e-10
2.79063e-05
2.79035e-05
2.7906e-05
2.79051e-05
2.79053e-05
2.79058e-05
2.79049e-05
2.79061e-05
2.79048e-05
2.79061e-05
2.79049e-05
2.7906e-05
2.7905e-05
2.79059e-05
2.79052e-05
2.79057e-05
2.79053e-05
2.79056e-05
2.79052e-05
)
;

boundaryField
{
    top
    {
        type            calculated;
        value           uniform 0;
    }
    bottom
    {
        type            calculated;
        value           uniform 0;
    }
    inlet
    {
        type            calculated;
        value           nonuniform List<scalar> 
20
(
-2.79004e-05
-7.74672e-05
-0.00012098
-0.000158613
-0.000190531
-0.000216883
-0.000237799
-0.000253388
-0.000263733
-0.000268891
-0.000268891
-0.000263733
-0.000253388
-0.000237799
-0.000216882
-0.00019053
-0.000158613
-0.00012098
-7.74671e-05
-2.79004e-05
)
;
    }
    outlet
    {
        type            calculated;
        value           nonuniform List<scalar> 
20
(
2.79054e-05
7.74753e-05
0.000120988
0.000158619
0.000190533
0.000216881
0.000237794
0.000253379
0.000263722
0.000268879
0.00026888
0.000263723
0.000253381
0.000237796
0.000216884
0.000190536
0.000158621
0.00012099
7.74765e-05
2.79058e-05
)
;
    }
    frontAndBack
    {
        type            empty;
        value           nonuniform 0();
    }
}


// ************************************************************************* //
