/*--------------------------------*- C++ -*----------------------------------*\
| =========                 |                                                 |
| \\      /  F ield         | OpenFOAM: The Open Source CFD Toolbox           |
|  \\    /   O peration     | Version:  4.1                                   |
|   \\  /    A nd           | Web:      www.OpenFOAM.org                      |
|    \\/     M anipulation  |                                                 |
\*---------------------------------------------------------------------------*/
FoamFile
{
    version     2.0;
    format      ascii;
    class       volVectorField;
    location    "0.2";
    object      U;
}
// * * * * * * * * * * * * * * * * * * * * * * * * * * * * * * * * * * * * * //

dimensions      [0 1 -1 0 0 0 0];

internalField   nonuniform List<vector> 
400
(
(0.558067 -2.9012e-06 0)
(0.558088 1.57617e-06 0)
(0.558116 -1.2227e-06 0)
(0.55807 4.85603e-07 0)
(0.55814 -9.8179e-08 0)
(0.558059 -2.2472e-07 0)
(0.558145 4.38443e-07 0)
(0.558059 -5.86626e-07 0)
(0.558142 6.47677e-07 0)
(0.558066 -6.64157e-07 0)
(0.558134 6.35573e-07 0)
(0.558075 -5.89565e-07 0)
(0.558126 5.22551e-07 0)
(0.558084 -4.51319e-07 0)
(0.558118 3.6698e-07 0)
(0.558091 -2.8574e-07 0)
(0.558112 2.07439e-07 0)
(0.558098 -9.93993e-08 0)
(0.558099 2.4691e-07 0)
(0.558101 -3.78728e-07 0)
(1.54943 -1.01243e-05 0)
(1.54945 4.65873e-06 0)
(1.54957 -3.76809e-06 0)
(1.54939 1.3629e-06 0)
(1.54963 -2.11562e-07 0)
(1.54936 -8.39342e-07 0)
(1.54964 1.4903e-06 0)
(1.54937 -1.90767e-06 0)
(1.54962 2.08726e-06 0)
(1.54939 -2.13846e-06 0)
(1.54959 2.02684e-06 0)
(1.54942 -1.87137e-06 0)
(1.54957 1.65436e-06 0)
(1.54945 -1.41374e-06 0)
(1.54954 1.14203e-06 0)
(1.54947 -8.82166e-07 0)
(1.54953 5.82493e-07 0)
(1.54949 -2.45958e-07 0)
(1.5495 8.35495e-07 0)
(1.5495 -1.22932e-06 0)
(2.41969 -1.82744e-05 0)
(2.41965 6.8928e-06 0)
(2.41989 -6.13708e-06 0)
(2.41955 1.81514e-06 0)
(2.41997 -1.13146e-07 0)
(2.41952 -1.57344e-06 0)
(2.41998 2.58583e-06 0)
(2.41953 -3.25029e-06 0)
(2.41995 3.49961e-06 0)
(2.41958 -3.53539e-06 0)
(2.4199 3.33845e-06 0)
(2.41962 -3.05493e-06 0)
(2.41986 2.67921e-06 0)
(2.41967 -2.27655e-06 0)
(2.41982 1.82953e-06 0)
(2.4197 -1.37211e-06 0)
(2.41979 8.01192e-07 0)
(2.41973 -6.74913e-08 0)
(2.41975 1.45248e-06 0)
(2.41974 -2.25229e-06 0)
(3.17235 -2.47807e-05 0)
(3.17222 7.68937e-06 0)
(3.1726 -7.45458e-06 0)
(3.17208 1.81775e-06 0)
(3.17269 1.3372e-07 0)
(3.17204 -2.20407e-06 0)
(3.17269 3.4016e-06 0)
(3.17207 -4.171e-06 0)
(3.17264 4.43266e-06 0)
(3.17214 -4.43843e-06 0)
(3.17258 4.16677e-06 0)
(3.1722 -3.78373e-06 0)
(3.17251 3.29851e-06 0)
(3.17226 -2.78151e-06 0)
(3.17246 2.21881e-06 0)
(3.17231 -1.61083e-06 0)
(3.17242 7.62774e-07 0)
(3.17235 3.0935e-07 0)
(3.17237 1.99105e-06 0)
(3.17236 -3.07697e-06 0)
(3.81071 -2.85228e-05 0)
(3.81046 7.43425e-06 0)
(3.81098 -7.7031e-06 0)
(3.81029 1.60516e-06 0)
(3.81108 4.2842e-07 0)
(3.81025 -2.5881e-06 0)
(3.81107 3.81493e-06 0)
(3.81029 -4.59432e-06 0)
(3.811 4.82651e-06 0)
(3.81038 -4.79257e-06 0)
(3.81092 4.47299e-06 0)
(3.81046 -4.03904e-06 0)
(3.81084 3.50434e-06 0)
(3.81053 -2.93291e-06 0)
(3.81077 2.31617e-06 0)
(3.81059 -1.61317e-06 0)
(3.81073 5.31895e-07 0)
(3.81063 8.08882e-07 0)
(3.81068 2.42853e-06 0)
(3.81065 -3.63382e-06 0)
(4.33775 -2.91616e-05 0)
(4.33738 6.63865e-06 0)
(4.33804 -6.99304e-06 0)
(4.33717 1.39259e-06 0)
(4.33814 6.76416e-07 0)
(4.33713 -2.67397e-06 0)
(4.33811 3.82386e-06 0)
(4.33719 -4.53855e-06 0)
(4.33803 4.72304e-06 0)
(4.33729 -4.65913e-06 0)
(4.33792 4.32719e-06 0)
(4.33739 -3.88933e-06 0)
(4.33783 3.36154e-06 0)
(4.33748 -2.7939e-06 0)
(4.33775 2.17944e-06 0)
(4.33754 -1.43653e-06 0)
(4.3377 1.90589e-07 0)
(4.33759 1.30156e-06 0)
(4.33765 2.77114e-06 0)
(4.33761 -3.87058e-06 0)
(4.75607 -2.66768e-05 0)
(4.75558 5.64613e-06 0)
(4.75637 -5.46327e-06 0)
(4.75534 1.29976e-06 0)
(4.75646 8.32864e-07 0)
(4.75531 -2.45009e-06 0)
(4.75643 3.45005e-06 0)
(4.75539 -4.04779e-06 0)
(4.75632 4.18011e-06 0)
(4.7555 -4.10327e-06 0)
(4.7562 3.79575e-06 0)
(4.75562 -3.40005e-06 0)
(4.7561 2.93062e-06 0)
(4.75572 -2.41846e-06 0)
(4.75601 1.85666e-06 0)
(4.75579 -1.12974e-06 0)
(4.75596 -1.93778e-07 0)
(4.75583 1.71241e-06 0)
(4.75591 2.99714e-06 0)
(4.75586 -3.77821e-06 0)
(5.06785 -2.13341e-05 0)
(5.06726 4.64878e-06 0)
(5.06815 -3.27646e-06 0)
(5.067 1.36372e-06 0)
(5.06824 8.81257e-07 0)
(5.06697 -1.93996e-06 0)
(5.06819 2.73988e-06 0)
(5.06706 -3.18399e-06 0)
(5.06807 3.26707e-06 0)
(5.06719 -3.19627e-06 0)
(5.06794 2.94773e-06 0)
(5.06731 -2.63526e-06 0)
(5.06783 2.26816e-06 0)
(5.06742 -1.85536e-06 0)
(5.06774 1.39042e-06 0)
(5.06749 -7.34259e-07 0)
(5.06768 -5.69915e-07 0)
(5.06754 1.99371e-06 0)
(5.06764 3.07596e-06 0)
(5.06758 -3.37361e-06 0)
(5.27476 -1.36999e-05 0)
(5.27409 3.71747e-06 0)
(5.27505 -6.43213e-07 0)
(5.27381 1.55685e-06 0)
(5.27513 8.25815e-07 0)
(5.27379 -1.20141e-06 0)
(5.27508 1.76699e-06 0)
(5.27388 -2.03339e-06 0)
(5.27496 2.07338e-06 0)
(5.27402 -2.02581e-06 0)
(5.27481 1.86399e-06 0)
(5.27416 -1.66674e-06 0)
(5.27469 1.43599e-06 0)
(5.27427 -1.15641e-06 0)
(5.2746 8.23853e-07 0)
(5.27434 -2.87825e-07 0)
(5.27454 -9.01002e-07 0)
(5.27439 2.1256e-06 0)
(5.2745 2.98368e-06 0)
(5.27443 -2.70506e-06 0)
(5.37792 -4.58701e-06 0)
(5.37721 2.82306e-06 0)
(5.37821 2.18897e-06 0)
(5.37693 1.80262e-06 0)
(5.3783 6.86733e-07 0)
(5.37691 -3.18739e-07 0)
(5.37824 6.26817e-07 0)
(5.37701 -7.02565e-07 0)
(5.37811 7.0503e-07 0)
(5.37715 -6.92516e-07 0)
(5.37797 6.35306e-07 0)
(5.37729 -5.7351e-07 0)
(5.37784 5.0051e-07 0)
(5.37741 -3.75976e-07 0)
(5.37774 2.00335e-07 0)
(5.37748 1.76242e-07 0)
(5.37768 -1.16591e-06 0)
(5.37753 2.11312e-06 0)
(5.37765 2.71335e-06 0)
(5.37758 -1.84535e-06 0)
(5.37792 5.03487e-06 0)
(5.37721 1.8704e-06 0)
(5.37822 4.95773e-06 0)
(5.37694 1.99718e-06 0)
(5.3783 4.95628e-07 0)
(5.37692 6.07445e-07 0)
(5.37825 -5.71967e-07 0)
(5.37702 6.90017e-07 0)
(5.37812 -7.2252e-07 0)
(5.37716 6.95619e-07 0)
(5.37797 -6.42209e-07 0)
(5.3773 5.61826e-07 0)
(5.37784 -4.69645e-07 0)
(5.37741 4.30673e-07 0)
(5.37775 -4.37614e-07 0)
(5.37749 6.29655e-07 0)
(5.37769 -1.35843e-06 0)
(5.37753 1.98154e-06 0)
(5.37766 2.27969e-06 0)
(5.37759 -8.8293e-07 0)
(5.27475 1.41417e-05 0)
(5.27408 7.47629e-07 0)
(5.27506 7.41097e-06 0)
(5.27383 2.03626e-06 0)
(5.27515 2.90977e-07 0)
(5.27381 1.47192e-06 0)
(5.2751 -1.71607e-06 0)
(5.2739 2.02199e-06 0)
(5.27497 -2.09076e-06 0)
(5.27404 2.02829e-06 0)
(5.27483 -1.87083e-06 0)
(5.27418 1.65559e-06 0)
(5.27471 -1.40527e-06 0)
(5.27429 1.20822e-06 0)
(5.27462 -1.04855e-06 0)
(5.27436 1.04821e-06 0)
(5.27456 -1.48378e-06 0)
(5.2744 1.76939e-06 0)
(5.27454 1.71917e-06 0)
(5.27446 8.7217e-08 0)
(5.06785 2.17605e-05 0)
(5.06725 -6.19264e-07 0)
(5.06816 9.33051e-06 0)
(5.06702 1.84214e-06 0)
(5.06826 1.12965e-07 0)
(5.067 2.17657e-06 0)
(5.06822 -2.69613e-06 0)
(5.06709 3.17489e-06 0)
(5.0681 -3.28423e-06 0)
(5.06722 3.19752e-06 0)
(5.06797 -2.95449e-06 0)
(5.06735 2.62516e-06 0)
(5.06786 -2.23772e-06 0)
(5.06745 1.9018e-06 0)
(5.06777 -1.59169e-06 0)
(5.06752 1.40972e-06 0)
(5.06771 -1.55305e-06 0)
(5.06756 1.52067e-06 0)
(5.06769 1.08604e-06 0)
(5.06762 9.7193e-07 0)
(4.75606 2.7073e-05 0)
(4.75557 -2.2184e-06 0)
(4.75639 1.0551e-05 0)
(4.75537 1.38602e-06 0)
(4.7565 -2.70068e-09 0)
(4.75535 2.64154e-06 0)
(4.75647 -3.4156e-06 0)
(4.75543 4.0422e-06 0)
(4.75636 -4.19694e-06 0)
(4.75554 4.10276e-06 0)
(4.75624 -3.80251e-06 0)
(4.75566 3.39153e-06 0)
(4.75614 -2.90054e-06 0)
(4.75576 2.45773e-06 0)
(4.75605 -2.02685e-06 0)
(4.75582 1.6919e-06 0)
(4.756 -1.57692e-06 0)
(4.75586 1.2768e-06 0)
(4.75598 4.45343e-07 0)
(4.75592 1.68742e-06 0)
(4.33774 2.95085e-05 0)
(4.33737 -3.92074e-06 0)
(4.33806 1.09705e-05 0)
(4.3372 7.01419e-07 0)
(4.33818 -3.21656e-08 0)
(4.33717 2.81485e-06 0)
(4.33816 -3.79934e-06 0)
(4.33724 4.5373e-06 0)
(4.33807 -4.73945e-06 0)
(4.33734 4.65676e-06 0)
(4.33796 -4.33413e-06 0)
(4.33744 3.88255e-06 0)
(4.33787 -3.3319e-06 0)
(4.33752 2.82529e-06 0)
(4.3378 -2.31475e-06 0)
(4.33758 1.87086e-06 0)
(4.33775 -1.56e-06 0)
(4.33762 1.06921e-06 0)
(4.33772 -1.35356e-07 0)
(4.33767 2.16561e-06 0)
(3.8107 2.88011e-05 0)
(3.81046 -5.46455e-06 0)
(3.811 1.05456e-05 0)
(3.81032 -1.09496e-07 0)
(3.81112 2.83811e-08 0)
(3.81029 2.67832e-06 0)
(3.81112 -3.79969e-06 0)
(3.81034 4.59848e-06 0)
(3.81105 -4.84242e-06 0)
(3.81042 4.78793e-06 0)
(3.81096 -4.48046e-06 0)
(3.8105 4.03456e-06 0)
(3.81088 -3.47503e-06 0)
(3.81058 2.95612e-06 0)
(3.81082 -2.41682e-06 0)
(3.81063 1.91973e-06 0)
(3.81078 -1.49531e-06 0)
(3.81066 9.11521e-07 0)
(3.81075 -5.92318e-07 0)
(3.81071 2.35923e-06 0)
(3.17234 2.49763e-05 0)
(3.17221 -6.43123e-06 0)
(3.17262 9.24964e-06 0)
(3.17212 -8.71221e-07 0)
(3.17273 1.51399e-07 0)
(3.17208 2.24906e-06 0)
(3.17273 -3.39341e-06 0)
(3.17211 4.18181e-06 0)
(3.17268 -4.44848e-06 0)
(3.17218 4.43126e-06 0)
(3.17262 -4.1745e-06 0)
(3.17224 3.78152e-06 0)
(3.17255 -3.26946e-06 0)
(3.1723 2.79819e-06 0)
(3.1725 -2.28855e-06 0)
(3.17234 1.80049e-06 0)
(3.17247 -1.35662e-06 0)
(3.17237 7.93269e-07 0)
(3.17244 -8.66113e-07 0)
(3.17241 2.23675e-06 0)
(2.41968 1.83869e-05 0)
(2.41965 -6.23573e-06 0)
(2.4199 7.0748e-06 0)
(2.41958 -1.30891e-06 0)
(2.42 2.64675e-07 0)
(2.41955 1.58504e-06 0)
(2.42001 -2.58918e-06 0)
(2.41957 3.26247e-06 0)
(2.41998 -3.51044e-06 0)
(2.41961 3.52671e-06 0)
(2.41993 -3.35005e-06 0)
(2.41965 3.05787e-06 0)
(2.41989 -2.64927e-06 0)
(2.4197 2.28184e-06 0)
(2.41985 -1.87296e-06 0)
(2.41973 1.47366e-06 0)
(2.41982 -1.09561e-06 0)
(2.41975 6.51823e-07 0)
(2.4198 -8.91532e-07 0)
(2.41978 1.79623e-06 0)
(1.54943 1.01629e-05 0)
(1.54945 -4.43484e-06 0)
(1.54958 4.10671e-06 0)
(1.54941 -1.17399e-06 0)
(1.54965 2.58294e-07 0)
(1.54938 8.21043e-07 0)
(1.54966 -1.48972e-06 0)
(1.54939 1.93171e-06 0)
(1.54964 -2.10177e-06 0)
(1.54941 2.12644e-06 0)
(1.54961 -2.03657e-06 0)
(1.54944 1.87328e-06 0)
(1.54959 -1.62295e-06 0)
(1.54947 1.41959e-06 0)
(1.54956 -1.17216e-06 0)
(1.54949 9.12608e-07 0)
(1.54955 -6.76463e-07 0)
(1.5495 4.60096e-07 0)
(1.54953 -6.50617e-07 0)
(1.54952 1.05861e-06 0)
(0.558066 2.91088e-06 0)
(0.558088 -1.53491e-06 0)
(0.55812 1.28219e-06 0)
(0.558076 -4.48867e-07 0)
(0.558147 1.11397e-07 0)
(0.558066 2.23572e-07 0)
(0.558152 -4.456e-07 0)
(0.558066 5.88426e-07 0)
(0.558149 -6.47223e-07 0)
(0.558073 6.61644e-07 0)
(0.558141 -6.39693e-07 0)
(0.558082 5.92638e-07 0)
(0.558133 -5.12768e-07 0)
(0.558091 4.48905e-07 0)
(0.558125 -3.72838e-07 0)
(0.558097 2.9458e-07 0)
(0.558119 -2.1889e-07 0)
(0.558102 1.38366e-07 0)
(0.558111 -2.20997e-07 0)
(0.558109 3.47742e-07 0)
)
;

boundaryField
{
    top
    {
        type            fixedValue;
        value           uniform (0 0 0);
    }
    bottom
    {
        type            fixedValue;
        value           uniform (0 0 0);
    }
    inlet
    {
        type            zeroGradient;
    }
    outlet
    {
        type            zeroGradient;
    }
    frontAndBack
    {
        type            empty;
    }
}


// ************************************************************************* //
