/*--------------------------------*- C++ -*----------------------------------*\
| =========                 |                                                 |
| \\      /  F ield         | OpenFOAM: The Open Source CFD Toolbox           |
|  \\    /   O peration     | Version:  4.1                                   |
|   \\  /    A nd           | Web:      www.OpenFOAM.org                      |
|    \\/     M anipulation  |                                                 |
\*---------------------------------------------------------------------------*/
FoamFile
{
    version     2.0;
    format      ascii;
    class       volScalarField;
    location    "0.9";
    object      p;
}
// * * * * * * * * * * * * * * * * * * * * * * * * * * * * * * * * * * * * * //

dimensions      [0 2 -2 0 0 0 0];

internalField   nonuniform List<scalar> 
400
(
5.38315e-07
5.48705e-07
4.97275e-07
5.15989e-07
4.55427e-07
4.78692e-07
4.2199e-07
4.36062e-07
3.91348e-07
3.92625e-07
3.60404e-07
3.49936e-07
3.28552e-07
3.08332e-07
2.95189e-07
2.69003e-07
2.58897e-07
2.3432e-07
2.23752e-07
2.3891e-07
5.36384e-07
5.4679e-07
4.97146e-07
5.15943e-07
4.5544e-07
4.78679e-07
4.21999e-07
4.36056e-07
3.91352e-07
3.92622e-07
3.60406e-07
3.49936e-07
3.28551e-07
3.08335e-07
2.95184e-07
2.69005e-07
2.58861e-07
2.34351e-07
2.22155e-07
2.37189e-07
5.35303e-07
5.4541e-07
4.97004e-07
5.1593e-07
4.55424e-07
4.78694e-07
4.21984e-07
4.36069e-07
3.91341e-07
3.9263e-07
3.604e-07
3.49939e-07
3.2855e-07
3.08334e-07
2.95185e-07
2.69001e-07
2.58833e-07
2.3435e-07
2.2082e-07
2.35921e-07
5.34958e-07
5.44747e-07
4.9687e-07
5.15928e-07
4.55403e-07
4.78713e-07
4.21965e-07
4.36085e-07
3.91329e-07
3.92639e-07
3.60394e-07
3.49942e-07
3.28549e-07
3.08333e-07
2.95187e-07
2.68996e-07
2.58813e-07
2.34311e-07
2.19925e-07
2.35142e-07
5.35053e-07
5.44595e-07
4.96744e-07
5.15929e-07
4.55386e-07
4.78728e-07
4.2195e-07
4.36098e-07
3.91319e-07
3.92647e-07
3.60389e-07
3.49945e-07
3.28548e-07
3.08333e-07
2.95188e-07
2.68992e-07
2.58798e-07
2.34248e-07
2.19373e-07
2.34687e-07
5.3544e-07
5.44788e-07
4.96618e-07
5.1593e-07
4.55373e-07
4.78741e-07
4.21939e-07
4.36108e-07
3.91311e-07
3.92653e-07
3.60385e-07
3.49947e-07
3.28548e-07
3.08332e-07
2.9519e-07
2.68989e-07
2.58786e-07
2.34167e-07
2.1909e-07
2.34481e-07
5.36034e-07
5.45226e-07
4.96489e-07
5.15933e-07
4.55361e-07
4.78751e-07
4.21929e-07
4.36116e-07
3.91304e-07
3.92657e-07
3.60382e-07
3.49948e-07
3.28548e-07
3.08331e-07
2.95191e-07
2.68987e-07
2.58777e-07
2.34075e-07
2.19037e-07
2.34484e-07
5.3674e-07
5.45808e-07
4.96356e-07
5.15934e-07
4.55352e-07
4.78759e-07
4.21922e-07
4.36122e-07
3.91299e-07
3.92661e-07
3.6038e-07
3.4995e-07
3.28548e-07
3.08331e-07
2.95193e-07
2.68986e-07
2.58771e-07
2.33979e-07
2.19164e-07
2.34642e-07
5.37462e-07
5.46432e-07
4.9622e-07
5.15934e-07
4.55345e-07
4.78764e-07
4.21917e-07
4.36126e-07
3.91296e-07
3.92663e-07
3.60378e-07
3.4995e-07
3.28548e-07
3.08331e-07
2.95194e-07
2.68986e-07
2.58767e-07
2.33885e-07
2.19406e-07
2.34886e-07
5.38108e-07
5.47005e-07
4.96082e-07
5.15931e-07
4.5534e-07
4.78767e-07
4.21915e-07
4.36128e-07
3.91295e-07
3.92664e-07
3.60378e-07
3.49951e-07
3.28548e-07
3.08331e-07
2.95194e-07
2.68986e-07
2.58763e-07
2.33798e-07
2.19694e-07
2.35148e-07
5.38603e-07
5.47452e-07
4.95944e-07
5.15924e-07
4.55338e-07
4.78767e-07
4.21915e-07
4.36128e-07
3.91295e-07
3.92664e-07
3.60378e-07
3.4995e-07
3.28548e-07
3.08331e-07
2.95195e-07
2.68988e-07
2.58758e-07
2.33724e-07
2.1996e-07
2.3536e-07
5.38893e-07
5.47715e-07
4.95811e-07
5.15914e-07
4.55339e-07
4.78765e-07
4.21918e-07
4.36125e-07
3.91297e-07
3.92663e-07
3.60379e-07
3.4995e-07
3.28548e-07
3.08331e-07
2.95195e-07
2.68989e-07
2.58752e-07
2.33665e-07
2.2014e-07
2.35459e-07
5.38941e-07
5.47762e-07
4.95685e-07
5.159e-07
4.55342e-07
4.78759e-07
4.21923e-07
4.36121e-07
3.91301e-07
3.9266e-07
3.60381e-07
3.49949e-07
3.28549e-07
3.08331e-07
2.95195e-07
2.68992e-07
2.58743e-07
2.33622e-07
2.20179e-07
2.35395e-07
5.38742e-07
5.47588e-07
4.95573e-07
5.15883e-07
4.55348e-07
4.78752e-07
4.2193e-07
4.36114e-07
3.91306e-07
3.92656e-07
3.60383e-07
3.49947e-07
3.28549e-07
3.08332e-07
2.95194e-07
2.68994e-07
2.58731e-07
2.33595e-07
2.20037e-07
2.35131e-07
5.38313e-07
5.47216e-07
4.95478e-07
5.15864e-07
4.55357e-07
4.78741e-07
4.2194e-07
4.36106e-07
3.91313e-07
3.92651e-07
3.60387e-07
3.49945e-07
3.2855e-07
3.08332e-07
2.95194e-07
2.68997e-07
2.58716e-07
2.33584e-07
2.1969e-07
2.34647e-07
5.37706e-07
5.46703e-07
4.95403e-07
5.15844e-07
4.55368e-07
4.78729e-07
4.21952e-07
4.36096e-07
3.91321e-07
3.92645e-07
3.60391e-07
3.49943e-07
3.2855e-07
3.08333e-07
2.95193e-07
2.68999e-07
2.58699e-07
2.33586e-07
2.19142e-07
2.33951e-07
5.36982e-07
5.46128e-07
4.95353e-07
5.15823e-07
4.55382e-07
4.78714e-07
4.21967e-07
4.36083e-07
3.91331e-07
3.92637e-07
3.60396e-07
3.4994e-07
3.28551e-07
3.08334e-07
2.95191e-07
2.69001e-07
2.58678e-07
2.33599e-07
2.18416e-07
2.33061e-07
5.36275e-07
5.45635e-07
4.9533e-07
5.15802e-07
4.554e-07
4.78695e-07
4.21985e-07
4.36067e-07
3.91344e-07
3.92627e-07
3.60402e-07
3.49937e-07
3.28552e-07
3.08335e-07
2.95189e-07
2.69002e-07
2.58656e-07
2.33619e-07
2.17555e-07
2.32017e-07
5.35816e-07
5.45371e-07
4.95331e-07
5.1579e-07
4.55414e-07
4.7868e-07
4.22e-07
4.36054e-07
3.91355e-07
3.92619e-07
3.60408e-07
3.49934e-07
3.28553e-07
3.08336e-07
2.95188e-07
2.69e-07
2.58632e-07
2.33649e-07
2.16578e-07
2.30879e-07
5.3597e-07
5.45402e-07
4.95328e-07
5.15809e-07
4.55399e-07
4.78694e-07
4.21991e-07
4.36061e-07
3.9135e-07
3.92623e-07
3.60406e-07
3.49935e-07
3.28554e-07
3.08334e-07
2.95192e-07
2.68991e-07
2.58613e-07
2.33681e-07
2.15609e-07
2.29909e-07
)
;

boundaryField
{
    top
    {
        type            zeroGradient;
    }
    bottom
    {
        type            zeroGradient;
    }
    inlet
    {
        type            fixedValue;
        value           uniform 0;
    }
    outlet
    {
        type            fixedValue;
        value           uniform 0;
    }
    frontAndBack
    {
        type            empty;
    }
}


// ************************************************************************* //
