/*--------------------------------*- C++ -*----------------------------------*\
| =========                 |                                                 |
| \\      /  F ield         | OpenFOAM: The Open Source CFD Toolbox           |
|  \\    /   O peration     | Version:  4.1                                   |
|   \\  /    A nd           | Web:      www.OpenFOAM.org                      |
|    \\/     M anipulation  |                                                 |
\*---------------------------------------------------------------------------*/
FoamFile
{
    version     2.0;
    format      ascii;
    class       surfaceScalarField;
    location    "0.9";
    object      phi;
}
// * * * * * * * * * * * * * * * * * * * * * * * * * * * * * * * * * * * * * //

dimensions      [0 3 -1 0 0 0 0];

internalField   nonuniform List<scalar> 
760
(
1.24909e-06
-8.42925e-13
1.24909e-06
-5.20616e-13
1.24909e-06
-4.47434e-15
1.24909e-06
-3.54444e-14
1.24909e-06
2.94468e-14
1.24909e-06
-2.82163e-14
1.24909e-06
2.43097e-14
1.24909e-06
-1.9969e-14
1.24909e-06
1.54787e-14
1.24909e-06
-1.12006e-14
1.24909e-06
7.20327e-15
1.24909e-06
-3.50776e-15
1.24909e-06
1.39176e-16
1.24909e-06
2.78207e-15
1.24909e-06
-5.16257e-15
1.24909e-06
5.40722e-15
1.24909e-06
-1.27627e-14
1.24909e-06
1.91191e-14
1.24909e-06
-3.85086e-13
-5.84315e-13
3.7473e-06
-2.51999e-12
3.7473e-06
-1.85411e-12
3.7473e-06
-5.57542e-14
3.7473e-06
-8.92917e-14
3.7473e-06
6.46357e-14
3.7473e-06
-6.23391e-14
3.7473e-06
5.29131e-14
3.7473e-06
-4.32408e-14
3.7473e-06
3.33578e-14
3.7473e-06
-2.40539e-14
3.7473e-06
1.53811e-14
3.7473e-06
-7.35531e-15
3.7473e-06
-4.03929e-18
3.7473e-06
6.46511e-15
3.7473e-06
-1.20784e-14
3.7473e-06
1.1281e-14
3.7473e-06
-3.98448e-14
3.7473e-06
6.32258e-14
3.7473e-06
-1.45749e-12
-1.92431e-12
6.24557e-06
-4.51463e-12
6.24557e-06
-3.6782e-12
6.24557e-06
-1.52768e-13
6.24557e-06
-1.39742e-13
6.24557e-06
8.7507e-14
6.24557e-06
-8.51974e-14
6.24557e-06
7.12151e-14
6.24557e-06
-5.7928e-14
6.24557e-06
4.44783e-14
6.24557e-06
-3.19554e-14
6.24557e-06
2.03015e-14
6.24557e-06
-9.50692e-15
6.24557e-06
-4.41083e-16
6.24557e-06
9.27558e-15
6.24557e-06
-1.74536e-14
6.24557e-06
1.4121e-14
6.24557e-06
-7.415e-14
6.24557e-06
1.24972e-13
6.24557e-06
-3.04968e-12
-3.73877e-12
8.74395e-06
-6.51226e-12
8.74395e-06
-5.65543e-12
8.74395e-06
-2.76499e-13
8.74395e-06
-1.81592e-13
8.74395e-06
9.81885e-14
8.74395e-06
-9.68887e-14
8.74395e-06
7.98311e-14
8.74395e-06
-6.47019e-14
8.74395e-06
4.9468e-14
8.74395e-06
-3.54101e-14
8.74395e-06
2.23382e-14
8.74395e-06
-1.02207e-14
8.74395e-06
-9.84175e-16
8.74395e-06
1.10295e-14
8.74395e-06
-2.09035e-14
8.74395e-06
1.39343e-14
8.74395e-06
-1.11523e-13
8.74395e-06
1.98173e-13
8.74396e-06
-4.94276e-12
-5.80351e-12
1.12425e-05
-8.24204e-12
1.12425e-05
-7.48708e-12
1.12425e-05
-4.06715e-13
1.12425e-05
-2.10394e-13
1.12425e-05
9.76374e-14
1.12425e-05
-9.81045e-14
1.12425e-05
7.97418e-14
1.12425e-05
-6.44403e-14
1.12425e-05
4.90681e-14
1.12425e-05
-3.49829e-14
1.12425e-05
2.18884e-14
1.12425e-05
-9.74026e-15
1.12425e-05
-1.51116e-15
1.12425e-05
1.16802e-14
1.12425e-05
-2.22785e-14
1.12425e-05
1.10115e-14
1.12425e-05
-1.47886e-13
1.12425e-05
2.76425e-13
1.12425e-05
-6.91425e-12
-7.89216e-12
1.37412e-05
-9.50056e-12
1.37412e-05
-8.93909e-12
1.37412e-05
-5.24254e-13
1.37412e-05
-2.23128e-13
1.37412e-05
8.74048e-14
1.37412e-05
-9.0004e-14
1.37412e-05
7.21784e-14
1.37412e-05
-5.81706e-14
1.37412e-05
4.4105e-14
1.37412e-05
-3.12876e-14
1.37412e-05
1.93697e-14
1.37412e-05
-8.30268e-15
1.37412e-05
-1.94387e-15
1.37412e-05
1.12761e-14
1.37412e-05
-2.16221e-14
1.37412e-05
5.83441e-15
1.37412e-05
-1.79653e-13
1.37412e-05
3.5303e-13
1.37412e-05
-8.75363e-12
-9.79183e-12
1.62401e-05
-1.0156e-11
1.62401e-05
-9.84862e-12
1.62401e-05
-6.13148e-13
1.62401e-05
-2.18486e-13
1.62401e-05
6.94289e-14
1.62401e-05
-7.41084e-14
1.62401e-05
5.85439e-14
1.62401e-05
-4.70294e-14
1.62401e-05
3.54683e-14
1.62401e-05
-2.49755e-14
1.62401e-05
1.52155e-14
1.62401e-05
-6.13934e-15
1.62401e-05
-2.23729e-15
1.62401e-05
9.93446e-15
1.62401e-05
-1.91316e-14
1.62401e-05
-9.87885e-16
1.62401e-05
-2.03935e-13
1.62401e-05
4.21214e-13
1.62401e-05
-1.02786e-11
-1.13196e-11
1.87393e-05
-1.01559e-11
1.87393e-05
-1.01344e-11
1.87393e-05
-6.62504e-13
1.87393e-05
-1.97007e-13
1.87393e-05
4.58126e-14
1.87393e-05
-5.21929e-14
1.87393e-05
4.03421e-14
1.87393e-05
-3.22254e-14
1.87393e-05
2.40882e-14
1.87393e-05
-1.67223e-14
1.87393e-05
9.86711e-15
1.87393e-05
-3.4748e-15
1.87393e-05
-2.37214e-15
1.87393e-05
7.82032e-15
1.87393e-05
-1.51192e-14
1.87393e-05
-8.79566e-15
1.87393e-05
-2.18708e-13
1.87393e-05
4.74518e-13
1.87393e-05
-1.13479e-11
-1.23354e-11
2.12388e-05
-9.52323e-12
2.12388e-05
-9.79382e-12
2.12388e-05
-6.67645e-13
2.12388e-05
-1.60974e-13
2.12388e-05
1.86894e-14
2.12388e-05
-2.62078e-14
2.12388e-05
1.91354e-14
2.12388e-05
-1.50144e-14
2.12388e-05
1.09207e-14
2.12388e-05
-7.21776e-15
2.12388e-05
3.76841e-15
2.12388e-05
-5.25323e-16
2.12388e-05
-2.35035e-15
2.12388e-05
5.1334e-15
2.12388e-05
-9.98078e-15
2.12388e-05
-1.69189e-14
2.12388e-05
-2.22885e-13
2.12388e-05
5.0742e-13
2.12388e-05
-1.187e-11
-1.27516e-11
2.37385e-05
-8.34873e-12
2.37385e-05
-8.89712e-12
2.37385e-05
-6.30407e-13
2.37385e-05
-1.14186e-13
2.37385e-05
-9.86305e-15
2.37385e-05
1.78998e-15
2.37385e-05
-3.48867e-15
2.37385e-05
3.32355e-15
2.37385e-05
-3.06722e-15
2.37385e-05
2.84368e-15
2.37385e-05
-2.63975e-15
2.37385e-05
2.50246e-15
2.37385e-05
-2.19126e-15
2.37385e-05
2.09866e-15
2.37385e-05
-4.16994e-15
2.37385e-05
-2.47079e-14
2.37385e-05
-2.16341e-13
2.37385e-05
5.16015e-13
2.37385e-05
-1.18088e-11
-1.25387e-11
2.62385e-05
-6.77736e-12
2.62385e-05
-7.57313e-12
2.62385e-05
-5.58448e-13
2.62385e-05
-6.15695e-14
2.62385e-05
-3.78474e-14
2.62385e-05
2.96963e-14
2.62385e-05
-2.59399e-14
2.62385e-05
2.15035e-14
2.62385e-05
-1.69101e-14
2.62385e-05
1.27715e-14
2.62385e-05
-8.92377e-15
2.62385e-05
5.41232e-15
2.62385e-05
-1.92795e-15
2.62385e-05
-1.04113e-15
2.62385e-05
1.82438e-15
2.62385e-05
-3.15455e-14
2.62385e-05
-1.99886e-13
2.62385e-05
4.9867e-13
2.62385e-05
-1.1184e-11
-1.17265e-11
2.87388e-05
-4.99017e-12
2.87388e-05
-5.99061e-12
2.87388e-05
-4.63713e-13
2.87388e-05
-8.68294e-15
2.87388e-05
-6.33419e-14
2.87388e-05
5.54155e-14
2.87388e-05
-4.66452e-14
2.87388e-05
3.8255e-14
2.87388e-05
-2.96552e-14
2.87388e-05
2.1887e-14
2.87388e-05
-1.46611e-14
2.87388e-05
8.01855e-15
2.87388e-05
-1.60294e-15
2.87388e-05
-4.03276e-15
2.87388e-05
7.49912e-15
2.87388e-05
-3.68597e-14
2.87388e-05
-1.75178e-13
2.87388e-05
4.56485e-13
2.87388e-05
-1.0067e-11
-1.04002e-11
3.12393e-05
-3.18439e-12
3.12393e-05
-4.33688e-12
3.12393e-05
-3.6019e-13
3.12393e-05
3.88593e-14
3.12393e-05
-8.44818e-14
3.12393e-05
7.69164e-14
3.12393e-05
-6.40667e-14
3.12393e-05
5.23393e-14
3.12393e-05
-4.0374e-14
3.12393e-05
2.95304e-14
3.12393e-05
-1.94432e-14
3.12393e-05
1.01453e-14
3.12393e-05
-1.26332e-15
3.12393e-05
-6.62083e-15
3.12393e-05
1.23587e-14
3.12393e-05
-4.01398e-14
3.12393e-05
-1.44581e-13
3.12393e-05
3.9342e-13
3.12393e-05
-8.57355e-12
-8.69245e-12
3.37401e-05
-1.5494e-12
3.37401e-05
-2.79217e-12
3.37401e-05
-2.61418e-13
3.37401e-05
7.60143e-14
3.37401e-05
-9.94488e-14
3.37401e-05
9.22909e-14
3.37401e-05
-7.67198e-14
3.37401e-05
6.25669e-14
3.37401e-05
-4.81708e-14
3.37401e-05
3.50669e-14
3.37401e-05
-2.28773e-14
3.37401e-05
1.16251e-14
3.37401e-05
-9.54793e-16
3.37401e-05
-8.55789e-15
3.37401e-05
1.59395e-14
3.37401e-05
-4.0965e-14
3.37401e-05
-1.10962e-13
3.37401e-05
3.16058e-13
3.37401e-05
-6.85092e-12
-6.77041e-12
3.62412e-05
-2.48566e-13
3.62412e-05
-1.50975e-12
3.62412e-05
-1.77921e-13
3.62412e-05
9.88869e-14
3.62412e-05
-1.06503e-13
3.62412e-05
9.98188e-14
3.62412e-05
-8.31986e-14
3.62412e-05
6.78148e-14
3.62412e-05
-5.21935e-14
3.62412e-05
3.78924e-14
3.62412e-05
-2.45886e-14
3.62412e-05
1.22966e-14
3.62412e-05
-7.14607e-16
3.62412e-05
-9.61869e-15
3.62412e-05
1.78386e-14
3.62412e-05
-3.9053e-14
3.62412e-05
-7.74355e-14
3.62412e-05
2.3283e-13
3.62412e-05
-5.06511e-12
-4.82127e-12
3.87425e-05
6.07435e-13
3.87425e-05
-5.88309e-13
3.87425e-05
-1.15389e-13
3.87425e-05
1.05229e-13
3.87425e-05
-1.0406e-13
3.87425e-05
9.80418e-14
3.87425e-05
-8.22088e-14
3.87425e-05
6.70447e-14
3.87425e-05
-5.16422e-14
3.87425e-05
3.74378e-14
3.87425e-05
-2.422e-14
3.87425e-05
1.20011e-14
3.87425e-05
-5.62302e-16
3.87425e-05
-9.61893e-15
3.87425e-05
1.77499e-14
3.87425e-05
-3.4323e-14
3.87425e-05
-4.70677e-14
3.87425e-05
1.5299e-13
3.87425e-05
-3.38021e-12
-3.03026e-12
4.1244e-05
9.66128e-13
4.1244e-05
-6.58163e-14
4.1244e-05
-7.33295e-14
4.1244e-05
9.46724e-14
4.1244e-05
-9.08534e-14
4.1244e-05
8.58622e-14
4.1244e-05
-7.26262e-14
4.1244e-05
5.93316e-14
4.1244e-05
-4.57841e-14
4.1244e-05
3.31756e-14
4.1244e-05
-2.14339e-14
4.1244e-05
1.05776e-14
4.1244e-05
-4.86567e-16
4.1244e-05
-8.44463e-15
4.1244e-05
1.55105e-14
4.1244e-05
-2.69781e-14
4.1244e-05
-2.2599e-14
4.1244e-05
8.50662e-14
4.1244e-05
-1.94656e-12
-1.56654e-12
4.37456e-05
8.65252e-13
4.37456e-05
1.11623e-13
4.37456e-05
-4.54471e-14
4.37456e-05
6.8749e-14
4.37456e-05
-6.61138e-14
4.37456e-05
6.2637e-14
4.37456e-05
-5.3564e-14
4.37456e-05
4.38933e-14
4.37456e-05
-3.39663e-14
4.37456e-05
2.46236e-14
4.37456e-05
-1.59099e-14
4.37456e-05
7.85494e-15
4.37456e-05
-4.2789e-16
4.37456e-05
-6.08561e-15
4.37456e-05
1.1145e-14
4.37456e-05
-1.75747e-14
4.37456e-05
-6.20335e-15
4.37456e-05
3.55979e-14
4.37456e-05
-8.71825e-13
-5.52572e-13
4.62473e-05
4.12669e-13
4.62473e-05
6.88047e-14
4.62473e-05
-2.04521e-14
4.62473e-05
3.03901e-14
4.62473e-05
-2.97883e-14
4.62473e-05
2.82943e-14
4.62473e-05
-2.44762e-14
4.62473e-05
2.01368e-14
4.62473e-05
-1.56352e-14
4.62473e-05
1.13473e-14
4.62473e-05
-7.33955e-15
4.62473e-05
3.63645e-15
4.62473e-05
-2.50355e-16
4.62473e-05
-2.68563e-15
4.62473e-05
4.9185e-15
4.62473e-05
-7.06871e-15
4.62473e-05
6.59543e-16
4.62473e-05
7.52241e-15
4.62473e-05
-2.20115e-13
-6.12012e-14
4.87491e-05
4.87491e-05
4.87491e-05
4.87491e-05
4.87491e-05
4.87491e-05
4.87491e-05
4.87491e-05
4.87491e-05
4.87491e-05
4.87491e-05
4.87491e-05
4.87491e-05
4.87491e-05
4.87491e-05
4.87491e-05
4.87491e-05
4.87491e-05
4.87491e-05
)
;

boundaryField
{
    top
    {
        type            calculated;
        value           uniform 0;
    }
    bottom
    {
        type            calculated;
        value           uniform 0;
    }
    inlet
    {
        type            calculated;
        value           nonuniform List<scalar> 
20
(
-1.24909e-06
-3.74729e-06
-6.24557e-06
-8.74395e-06
-1.12425e-05
-1.37412e-05
-1.62401e-05
-1.87393e-05
-2.12388e-05
-2.37385e-05
-2.62385e-05
-2.87388e-05
-3.12393e-05
-3.37401e-05
-3.62412e-05
-3.87425e-05
-4.1244e-05
-4.37456e-05
-4.62473e-05
-4.87491e-05
)
;
    }
    outlet
    {
        type            calculated;
        value           nonuniform List<scalar> 
20
(
1.24909e-06
3.7473e-06
6.24557e-06
8.74396e-06
1.12425e-05
1.37412e-05
1.62401e-05
1.87393e-05
2.12388e-05
2.37385e-05
2.62385e-05
2.87388e-05
3.12393e-05
3.37401e-05
3.62412e-05
3.87425e-05
4.1244e-05
4.37456e-05
4.62473e-05
4.87491e-05
)
;
    }
    frontAndBack
    {
        type            empty;
        value           nonuniform 0();
    }
}


// ************************************************************************* //
