/*--------------------------------*- C++ -*----------------------------------*\
| =========                 |                                                 |
| \\      /  F ield         | OpenFOAM: The Open Source CFD Toolbox           |
|  \\    /   O peration     | Version:  4.1                                   |
|   \\  /    A nd           | Web:      www.OpenFOAM.org                      |
|    \\/     M anipulation  |                                                 |
\*---------------------------------------------------------------------------*/
FoamFile
{
    version     2.0;
    format      ascii;
    class       volVectorField;
    location    "0.9";
    object      U;
}
// * * * * * * * * * * * * * * * * * * * * * * * * * * * * * * * * * * * * * //

dimensions      [0 1 -1 0 0 0 0];

internalField   nonuniform List<vector> 
400
(
(0.0249818 -3.77144e-10 0)
(0.0249818 -2.06071e-10 0)
(0.0249818 1.72153e-12 0)
(0.0249818 -1.75548e-11 0)
(0.0249818 1.53599e-11 0)
(0.0249818 -1.46732e-11 0)
(0.0249818 1.26846e-11 0)
(0.0249818 -1.04237e-11 0)
(0.0249818 8.08558e-12 0)
(0.0249818 -5.855e-12 0)
(0.0249818 3.77145e-12 0)
(0.0249818 -1.84522e-12 0)
(0.0249818 8.94649e-14 0)
(0.0249818 1.43138e-12 0)
(0.0249818 -2.64829e-12 0)
(0.0249818 2.8823e-12 0)
(0.0249818 -5.71657e-12 0)
(0.0249818 6.53722e-12 0)
(0.0249818 -1.39849e-10 0)
(0.0249818 -2.39166e-10 0)
(0.0749459 -1.57044e-09 0)
(0.0749459 -1.05575e-09 0)
(0.0749459 -1.87734e-11 0)
(0.0749459 -6.09894e-11 0)
(0.0749459 4.80734e-11 0)
(0.0749459 -4.61465e-11 0)
(0.0749459 3.9509e-11 0)
(0.0749459 -3.23751e-11 0)
(0.0749459 2.50414e-11 0)
(0.0749459 -1.80922e-11 0)
(0.0749459 1.16075e-11 0)
(0.0749459 -5.60975e-12 0)
(0.0749459 1.26095e-13 0)
(0.0749459 4.65337e-12 0)
(0.0749459 -8.65602e-12 0)
(0.0749459 8.69349e-12 0)
(0.0749459 -2.39382e-11 0)
(0.0749459 3.8072e-11 0)
(0.0749459 -7.92926e-10 0)
(0.074946 -1.12637e-09 0)
(0.124911 -3.45519e-09 0)
(0.124911 -2.67518e-09 0)
(0.124911 -9.55626e-11 0)
(0.124911 -1.15046e-10 0)
(0.124911 7.81651e-11 0)
(0.124911 -7.56383e-11 0)
(0.124911 6.37362e-11 0)
(0.124911 -5.19597e-11 0)
(0.124911 3.99924e-11 0)
(0.124911 -2.87894e-11 0)
(0.124911 1.83568e-11 0)
(0.124911 -8.69795e-12 0)
(0.124911 -1.83168e-13 0)
(0.124911 8.02621e-12 0)
(0.124911 -1.50447e-11 0)
(0.124911 1.32757e-11 0)
(0.124911 -5.55271e-11 0)
(0.124911 8.91158e-11 0)
(0.124911 -2.1446e-09 0)
(0.124911 -2.72695e-09 0)
(0.174879 -5.53695e-09 0)
(0.174879 -4.65549e-09 0)
(0.174879 -2.09788e-10 0)
(0.174879 -1.63242e-10 0)
(0.174879 9.57905e-11 0)
(0.174879 -9.37531e-11 0)
(0.174879 7.78348e-11 0)
(0.174879 -6.31963e-11 0)
(0.174879 4.84248e-11 0)
(0.174879 -3.47332e-11 0)
(0.174879 2.19982e-11 0)
(0.174879 -1.01978e-11 0)
(0.174879 -6.97732e-13 0)
(0.174879 1.0419e-11 0)
(0.174879 -1.96727e-11 0)
(0.174879 1.4754e-11 0)
(0.174879 -9.24585e-11 0)
(0.174879 1.59117e-10 0)
(0.174879 -3.94232e-09 0)
(0.174879 -4.72982e-09 0)
(0.22485 -7.46884e-09 0)
(0.22485 -6.63453e-09 0)
(0.22485 -3.42281e-10 0)
(0.22485 -1.99766e-10 0)
(0.22485 1.0066e-10 0)
(0.22485 -1.00091e-10 0)
(0.22485 8.19097e-11 0)
(0.22485 -6.62832e-11 0)
(0.22485 5.05749e-11 0)
(0.22485 -3.61357e-11 0)
(0.22485 2.27121e-11 0)
(0.22485 -1.02638e-11 0)
(0.22485 -1.26103e-12 0)
(0.22485 1.16368e-11 0)
(0.22485 -2.21284e-11 0)
(0.22485 1.31221e-11 0)
(0.22485 -1.30441e-10 0)
(0.22485 2.36418e-10 0)
(0.22485 -5.93419e-09 0)
(0.22485 -6.86774e-09 0)
(0.274824 -9.00484e-09 0)
(0.274824 -8.32715e-09 0)
(0.274824 -4.70824e-10 0)
(0.274824 -2.20998e-10 0)
(0.274824 9.47287e-11 0)
(0.274824 -9.62203e-11 0)
(0.274824 7.76718e-11 0)
(0.274824 -6.26801e-11 0)
(0.274824 4.7627e-11 0)
(0.274824 -3.38786e-11 0)
(0.274824 2.10969e-11 0)
(0.274824 -9.23388e-12 0)
(0.274824 -1.7574e-12 0)
(0.274824 1.17307e-11 0)
(0.274824 -2.24412e-11 0)
(0.274824 8.91515e-12 0)
(0.274824 -1.65297e-10 0)
(0.274824 3.15565e-10 0)
(0.274824 -7.88928e-09 0)
(0.274824 -8.91154e-09 0)
(0.324803 -9.98419e-09 0)
(0.324803 -9.53826e-09 0)
(0.324803 -5.77568e-10 0)
(0.324803 -2.25109e-10 0)
(0.324803 8.00819e-11 0)
(0.324803 -8.37794e-11 0)
(0.324803 6.66841e-11 0)
(0.324803 -5.36614e-11 0)
(0.324803 4.05843e-11 0)
(0.324803 -2.8698e-11 0)
(0.324803 1.7644e-11 0)
(0.324803 -7.37296e-12 0)
(0.324803 -2.12849e-12 0)
(0.324803 1.08194e-11 0)
(0.324803 -2.07973e-11 0)
(0.324803 2.75048e-12 0)
(0.324803 -1.93917e-10 0)
(0.324803 3.89641e-10 0)
(0.324803 -9.61162e-09 0)
(0.324803 -1.06653e-08 0)
(0.374786 -1.03155e-08 0)
(0.374786 -1.01464e-08 0)
(0.374786 -6.48754e-10 0)
(0.374786 -2.11697e-10 0)
(0.374786 5.87547e-11 0)
(0.374786 -6.44096e-11 0)
(0.374786 5.03852e-11 0)
(0.374786 -4.03832e-11 0)
(0.374786 3.03421e-11 0)
(0.374786 -2.12462e-11 0)
(0.374786 1.2783e-11 0)
(0.374786 -4.90435e-12 0)
(0.374786 -2.3447e-12 0)
(0.374786 9.04609e-12 0)
(0.374786 -1.74566e-11 0)
(0.374786 -4.72908e-12 0)
(0.374786 -2.13825e-10 0)
(0.374786 4.51973e-10 0)
(0.374786 -1.09377e-08 0)
(0.374786 -1.19656e-08 0)
(0.424775 -9.98504e-09 0)
(0.424775 -1.01107e-08 0)
(0.424775 -6.76427e-10 0)
(0.424775 -1.82185e-10 0)
(0.424775 3.28598e-11 0)
(0.424775 -3.99608e-11 0)
(0.424775 3.02901e-11 0)
(0.424775 -2.4061e-11 0)
(0.424775 1.78298e-11 0)
(0.424775 -1.21955e-11 0)
(0.424775 6.94965e-12 0)
(0.424775 -2.04486e-12 0)
(0.424775 -2.39857e-12 0)
(0.424775 6.5929e-12 0)
(0.424775 -1.27749e-11 0)
(0.424775 -1.2857e-11 0)
(0.424775 -2.23449e-10 0)
(0.424775 4.96368e-10 0)
(0.424775 -1.17494e-08 0)
(0.424775 -1.26964e-08 0)
(0.474769 -9.052e-09 0)
(0.474769 -9.46732e-09 0)
(0.474769 -6.59193e-10 0)
(0.474769 -1.39681e-10 0)
(0.474769 4.51273e-12 0)
(0.474769 -1.24486e-11 0)
(0.474769 7.97781e-12 0)
(0.474769 -5.96591e-12 0)
(0.474769 4.01058e-12 0)
(0.474769 -2.23942e-12 0)
(0.474769 5.86957e-13 0)
(0.474769 9.94093e-13 0)
(0.474769 -2.30153e-12 0)
(0.474769 3.67369e-12 0)
(0.474769 -7.18185e-12 0)
(0.474769 -2.09691e-11 0)
(0.474769 -2.22181e-10 0)
(0.474769 5.1793e-10 0)
(0.474769 -1.1982e-08 0)
(0.474769 -1.27982e-08 0)
(0.524769 -7.63838e-09 0)
(0.524769 -8.31989e-09 0)
(0.524769 -6.02075e-10 0)
(0.524769 -8.86595e-11 0)
(0.524769 -2.42447e-11 0)
(0.524769 1.60297e-11 0)
(0.524769 -1.49553e-11 0)
(0.524769 1.26128e-11 0)
(0.524769 -1.01448e-11 0)
(0.524769 7.92651e-12 0)
(0.524769 -5.86618e-12 0)
(0.524769 4.0106e-12 0)
(0.524769 -2.08074e-12 0)
(0.524769 5.2431e-13 0)
(0.524769 -1.15459e-12 0)
(0.524769 -2.84292e-11 0)
(0.524769 -2.10377e-10 0)
(0.524769 5.13734e-10 0)
(0.524769 -1.16277e-08 0)
(0.524769 -1.22715e-08 0)
(0.574775 -5.91197e-09 0)
(0.574775 -6.82227e-09 0)
(0.574775 -5.1536e-10 0)
(0.574775 -3.44996e-11 0)
(0.574775 -5.1455e-11 0)
(0.574775 4.33587e-11 0)
(0.574775 -3.69217e-11 0)
(0.574775 3.03919e-11 0)
(0.574775 -2.36736e-11 0)
(0.574775 1.76152e-11 0)
(0.574775 -1.19805e-11 0)
(0.574775 6.81358e-12 0)
(0.574775 -1.77512e-12 0)
(0.574775 -2.60517e-12 0)
(0.574775 4.80535e-12 0)
(0.574775 -3.46391e-11 0)
(0.574775 -1.89297e-10 0)
(0.574775 4.83423e-10 0)
(0.574775 -1.07335e-08 0)
(0.574775 -1.11751e-08 0)
(0.624786 -4.06754e-09 0)
(0.624786 -5.1585e-09 0)
(0.624786 -4.12622e-10 0)
(0.624786 1.70579e-11 0)
(0.624786 -7.52271e-11 0)
(0.624786 6.74584e-11 0)
(0.624786 -5.63592e-11 0)
(0.624786 4.61104e-11 0)
(0.624786 -3.56312e-11 0)
(0.624786 2.61546e-11 0)
(0.624786 -1.7339e-11 0)
(0.624786 9.22216e-12 0)
(0.624786 -1.4308e-12 0)
(0.624786 -5.45797e-12 0)
(0.624786 1.01926e-11 0)
(0.624786 -3.9052e-11 0)
(0.624786 -1.60996e-10 0)
(0.624786 4.2953e-10 0)
(0.624786 -9.39552e-09 0)
(0.624786 -9.62073e-09 0)
(0.674803 -2.30352e-09 0)
(0.674803 -3.51795e-09 0)
(0.674803 -3.08286e-10 0)
(0.674803 6.05378e-11 0)
(0.674803 -9.37219e-11 0)
(0.674803 8.63475e-11 0)
(0.674803 -7.17542e-11 0)
(0.674803 5.85523e-11 0)
(0.674803 -4.51047e-11 0)
(0.674803 3.28973e-11 0)
(0.674803 -2.15416e-11 0)
(0.674803 1.10655e-11 0)
(0.674803 -1.09572e-12 0)
(0.674803 -7.78012e-12 0)
(0.674803 1.45217e-11 0)
(0.674803 -4.11943e-11 0)
(0.674803 -1.28148e-10 0)
(0.674803 3.57446e-10 0)
(0.674803 -7.7486e-09 0)
(0.674803 -7.76174e-09 0)
(0.724824 -8.01709e-10 0)
(0.724824 -2.07358e-09 0)
(0.724824 -2.14987e-10 0)
(0.724824 9.13627e-11 0)
(0.724824 -1.0518e-10 0)
(0.724824 9.82258e-11 0)
(0.724824 -8.16819e-11 0)
(0.724824 6.65793e-11 0)
(0.724824 -5.12354e-11 0)
(0.724824 3.72352e-11 0)
(0.724824 -2.42121e-11 0)
(0.724824 1.2184e-11 0)
(0.724824 -8.13622e-13 0)
(0.724824 -9.33428e-12 0)
(0.724824 1.73569e-11 0)
(0.724824 -4.07067e-11 0)
(0.724824 -9.38038e-11 0)
(0.724824 2.74921e-10 0)
(0.724824 -5.95367e-09 0)
(0.724824 -5.77985e-09 0)
(0.77485 2.96872e-10 0)
(0.77485 -9.5578e-10 0)
(0.77485 -1.41314e-10 0)
(0.77485 1.06389e-10 0)
(0.77485 -1.07942e-10 0)
(0.77485 1.01513e-10 0)
(0.77485 -8.48089e-11 0)
(0.77485 6.91287e-11 0)
(0.77485 -5.3213e-11 0)
(0.77485 3.85939e-11 0)
(0.77485 -2.49934e-11 0)
(0.77485 1.24229e-11 0)
(0.77485 -6.16208e-13 0)
(0.77485 -9.91212e-12 0)
(0.77485 1.83377e-11 0)
(0.77485 -3.73912e-11 0)
(0.77485 -6.11142e-11 0)
(0.77485 1.91083e-10 0)
(0.77485 -4.17947e-09 0)
(0.77485 -3.8652e-09 0)
(0.824879 9.01095e-10 0)
(0.824879 -2.38993e-10 0)
(0.824879 -8.98888e-11 0)
(0.824879 1.03961e-10 0)
(0.824879 -1.00243e-10 0)
(0.824879 9.46335e-11 0)
(0.824879 -7.9682e-11 0)
(0.824879 6.50273e-11 0)
(0.824879 -5.01263e-11 0)
(0.824879 3.63218e-11 0)
(0.824879 -2.34725e-11 0)
(0.824879 1.15923e-11 0)
(0.824879 -5.11535e-13 0)
(0.824879 -9.32779e-12 0)
(0.824879 1.71648e-11 0)
(0.824879 -3.12089e-11 0)
(0.824879 -3.30362e-11 0)
(0.824879 1.15301e-10 0)
(0.824879 -2.58633e-09 0)
(0.824879 -2.20023e-09 0)
(0.874911 1.00212e-09 0)
(0.874911 9.11196e-11 0)
(0.874911 -5.61435e-11 0)
(0.874911 8.42485e-11 0)
(0.874911 -8.03986e-11 0)
(0.874911 7.60798e-11 0)
(0.874911 -6.46972e-11 0)
(0.874911 5.29216e-11 0)
(0.874911 -4.08884e-11 0)
(0.874911 2.96277e-11 0)
(0.874911 -1.91349e-11 0)
(0.874911 9.4335e-12 0)
(0.874911 -4.52615e-13 0)
(0.874911 -7.4633e-12 0)
(0.874911 1.36775e-11 0)
(0.874911 -2.24797e-11 0)
(0.874911 -1.23462e-11 0)
(0.874911 5.45825e-11 0)
(0.874911 -1.30909e-09 0)
(0.874911 -9.40167e-10 0)
(0.924946 6.82741e-10 0)
(0.924946 1.23896e-10 0)
(0.924946 -3.15856e-11 0)
(0.924946 5.04391e-11 0)
(0.924946 -4.8791e-11 0)
(0.924946 4.63004e-11 0)
(0.924946 -3.9853e-11 0)
(0.924946 3.27216e-11 0)
(0.924946 -2.53652e-11 0)
(0.924946 1.83959e-11 0)
(0.924946 -1.18895e-11 0)
(0.924946 5.8759e-12 0)
(0.924946 -3.56716e-13 0)
(0.924946 -4.45665e-12 0)
(0.924946 8.14483e-12 0)
(0.924946 -1.21521e-11 0)
(0.924946 -7.48071e-13 0)
(0.924946 1.74368e-11 0)
(0.924946 -4.50034e-10 0)
(0.924946 -1.97653e-10 0)
(0.974982 2.29102e-10 0)
(0.974982 5.06135e-11 0)
(0.974982 -9.79767e-12 0)
(0.974982 1.57567e-11 0)
(0.974982 -1.54821e-11 0)
(0.974982 1.46975e-11 0)
(0.974982 -1.27413e-11 0)
(0.974982 1.04818e-11 0)
(0.974982 -8.13988e-12 0)
(0.974982 5.90606e-12 0)
(0.974982 -3.81887e-12 0)
(0.974982 1.89014e-12 0)
(0.974982 -1.27793e-13 0)
(0.974982 -1.39845e-12 0)
(0.974982 2.55519e-12 0)
(0.974982 -3.55369e-12 0)
(0.974982 1.03539e-12 0)
(0.974982 6.35399e-13 0)
(0.974982 -7.03292e-11 0)
(0.974982 1.72739e-11 0)
)
;

boundaryField
{
    top
    {
        type            fixedValue;
        value           uniform (1 0 0);
    }
    bottom
    {
        type            fixedValue;
        value           uniform (0 0 0);
    }
    inlet
    {
        type            zeroGradient;
    }
    outlet
    {
        type            zeroGradient;
    }
    frontAndBack
    {
        type            empty;
    }
}


// ************************************************************************* //
