/*--------------------------------*- C++ -*----------------------------------*\
| =========                 |                                                 |
| \\      /  F ield         | OpenFOAM: The Open Source CFD Toolbox           |
|  \\    /   O peration     | Version:  4.1                                   |
|   \\  /    A nd           | Web:      www.OpenFOAM.org                      |
|    \\/     M anipulation  |                                                 |
\*---------------------------------------------------------------------------*/
FoamFile
{
    version     2.0;
    format      ascii;
    class       volScalarField;
    location    "2.2";
    object      p;
}
// * * * * * * * * * * * * * * * * * * * * * * * * * * * * * * * * * * * * * //

dimensions      [0 2 -2 0 0 0 0];

internalField   nonuniform List<scalar> 
400
(
4.92489e-09
5.49385e-09
4.69054e-09
5.01417e-09
4.42299e-09
4.59234e-09
4.14498e-09
4.1914e-09
3.85167e-09
3.80296e-09
3.54858e-09
3.42194e-09
3.24022e-09
3.04427e-09
2.93033e-09
2.66656e-09
2.62348e-09
2.29207e-09
2.34265e-09
2.21144e-09
4.90702e-09
5.47551e-09
4.68916e-09
5.0138e-09
4.42301e-09
4.59228e-09
4.14502e-09
4.19137e-09
3.85169e-09
3.80295e-09
3.54859e-09
3.42194e-09
3.24022e-09
3.04428e-09
2.93031e-09
2.66657e-09
2.62328e-09
2.2922e-09
2.33043e-09
2.19851e-09
4.89692e-09
5.46253e-09
4.68749e-09
5.01377e-09
4.42279e-09
4.59242e-09
4.1449e-09
4.19146e-09
3.85162e-09
3.803e-09
3.54855e-09
3.42195e-09
3.24022e-09
3.04426e-09
2.93035e-09
2.6665e-09
2.62319e-09
2.29207e-09
2.32083e-09
2.18964e-09
4.89375e-09
5.45646e-09
4.68589e-09
5.01382e-09
4.42255e-09
4.59259e-09
4.14476e-09
4.19157e-09
3.85154e-09
3.80306e-09
3.54852e-09
3.42197e-09
3.24022e-09
3.04424e-09
2.93038e-09
2.66643e-09
2.62316e-09
2.29174e-09
2.31533e-09
2.18511e-09
4.89475e-09
5.4552e-09
4.68439e-09
5.01384e-09
4.42235e-09
4.59272e-09
4.14465e-09
4.19166e-09
3.85148e-09
3.8031e-09
3.54849e-09
3.42198e-09
3.24022e-09
3.04422e-09
2.93042e-09
2.66637e-09
2.62314e-09
2.29132e-09
2.31302e-09
2.18354e-09
4.8985e-09
5.45716e-09
4.6829e-09
5.01385e-09
4.42218e-09
4.59283e-09
4.14456e-09
4.19172e-09
3.85142e-09
3.80314e-09
3.54847e-09
3.42199e-09
3.24023e-09
3.04421e-09
2.93044e-09
2.66633e-09
2.62313e-09
2.29084e-09
2.31327e-09
2.18428e-09
4.90418e-09
5.46137e-09
4.68137e-09
5.01385e-09
4.42205e-09
4.59291e-09
4.14449e-09
4.19178e-09
3.85138e-09
3.80317e-09
3.54845e-09
3.422e-09
3.24023e-09
3.0442e-09
2.93047e-09
2.6663e-09
2.62313e-09
2.29035e-09
2.31565e-09
2.18694e-09
4.91087e-09
5.46684e-09
4.6798e-09
5.01381e-09
4.42194e-09
4.59298e-09
4.14444e-09
4.19182e-09
3.85135e-09
3.80319e-09
3.54844e-09
3.422e-09
3.24023e-09
3.04419e-09
2.93048e-09
2.66627e-09
2.62314e-09
2.28989e-09
2.31966e-09
2.19098e-09
4.91764e-09
5.47261e-09
4.67818e-09
5.01374e-09
4.42185e-09
4.59302e-09
4.1444e-09
4.19185e-09
3.85133e-09
3.8032e-09
3.54843e-09
3.42201e-09
3.24023e-09
3.04418e-09
2.9305e-09
2.66626e-09
2.62316e-09
2.28949e-09
2.32469e-09
2.19579e-09
4.9236e-09
5.47776e-09
4.67651e-09
5.01363e-09
4.42179e-09
4.59304e-09
4.14438e-09
4.19186e-09
3.85132e-09
3.80321e-09
3.54842e-09
3.42201e-09
3.24024e-09
3.04418e-09
2.93051e-09
2.66625e-09
2.62317e-09
2.28918e-09
2.33007e-09
2.20071e-09
4.92802e-09
5.48152e-09
4.67483e-09
5.01347e-09
4.42176e-09
4.59303e-09
4.14439e-09
4.19186e-09
3.85132e-09
3.80321e-09
3.54842e-09
3.42201e-09
3.24024e-09
3.04418e-09
2.93051e-09
2.66626e-09
2.62316e-09
2.28898e-09
2.33514e-09
2.20512e-09
4.93035e-09
5.48334e-09
4.67316e-09
5.01325e-09
4.42175e-09
4.593e-09
4.14441e-09
4.19184e-09
3.85134e-09
3.8032e-09
3.54843e-09
3.422e-09
3.24024e-09
3.04418e-09
2.93051e-09
2.66627e-09
2.62314e-09
2.28888e-09
2.33932e-09
2.20844e-09
4.93021e-09
5.48286e-09
4.67154e-09
5.01298e-09
4.42176e-09
4.59295e-09
4.14444e-09
4.19181e-09
3.85136e-09
3.80318e-09
3.54844e-09
3.422e-09
3.24024e-09
3.04418e-09
2.9305e-09
2.66629e-09
2.62309e-09
2.28889e-09
2.3421e-09
2.21021e-09
4.92752e-09
5.48001e-09
4.67003e-09
5.01265e-09
4.42181e-09
4.59287e-09
4.1445e-09
4.19177e-09
3.85139e-09
3.80316e-09
3.54846e-09
3.42199e-09
3.24024e-09
3.04419e-09
2.93049e-09
2.66632e-09
2.62301e-09
2.28899e-09
2.34312e-09
2.21011e-09
4.9224e-09
5.47498e-09
4.66866e-09
5.01229e-09
4.42187e-09
4.59278e-09
4.14457e-09
4.19171e-09
3.85144e-09
3.80313e-09
3.54848e-09
3.42198e-09
3.24024e-09
3.0442e-09
2.93047e-09
2.66636e-09
2.6229e-09
2.28916e-09
2.34218e-09
2.20797e-09
4.91534e-09
5.46828e-09
4.66748e-09
5.01189e-09
4.42197e-09
4.59266e-09
4.14466e-09
4.19164e-09
3.85149e-09
3.80309e-09
3.5485e-09
3.42197e-09
3.24024e-09
3.04421e-09
2.93044e-09
2.6664e-09
2.62276e-09
2.28937e-09
2.33933e-09
2.20387e-09
4.90694e-09
5.46068e-09
4.66655e-09
5.01145e-09
4.4221e-09
4.59251e-09
4.14477e-09
4.19155e-09
3.85156e-09
3.80304e-09
3.54853e-09
3.42195e-09
3.24024e-09
3.04423e-09
2.93041e-09
2.66645e-09
2.62259e-09
2.28962e-09
2.3348e-09
2.19802e-09
4.89842e-09
5.45356e-09
4.6659e-09
5.01097e-09
4.42228e-09
4.59233e-09
4.14491e-09
4.19144e-09
3.85164e-09
3.80298e-09
3.54857e-09
3.42194e-09
3.24023e-09
3.04425e-09
2.93037e-09
2.6665e-09
2.62239e-09
2.28986e-09
2.32912e-09
2.19089e-09
4.89185e-09
5.44828e-09
4.66543e-09
5.01055e-09
4.42243e-09
4.59217e-09
4.14503e-09
4.19134e-09
3.85171e-09
3.80293e-09
3.5486e-09
3.42192e-09
3.24023e-09
3.04427e-09
2.93034e-09
2.66654e-09
2.62219e-09
2.29008e-09
2.32268e-09
2.18321e-09
4.89066e-09
5.44595e-09
4.66481e-09
5.01046e-09
4.42233e-09
4.59222e-09
4.14499e-09
4.19138e-09
3.85169e-09
3.80295e-09
3.54859e-09
3.42193e-09
3.24023e-09
3.04426e-09
2.93035e-09
2.6665e-09
2.62207e-09
2.29016e-09
2.31661e-09
2.17727e-09
)
;

boundaryField
{
    top
    {
        type            zeroGradient;
    }
    bottom
    {
        type            zeroGradient;
    }
    inlet
    {
        type            fixedValue;
        value           uniform 0;
    }
    outlet
    {
        type            fixedValue;
        value           uniform 0;
    }
    frontAndBack
    {
        type            empty;
    }
}


// ************************************************************************* //
