/*--------------------------------*- C++ -*----------------------------------*\
| =========                 |                                                 |
| \\      /  F ield         | OpenFOAM: The Open Source CFD Toolbox           |
|  \\    /   O peration     | Version:  4.1                                   |
|   \\  /    A nd           | Web:      www.OpenFOAM.org                      |
|    \\/     M anipulation  |                                                 |
\*---------------------------------------------------------------------------*/
FoamFile
{
    version     2.0;
    format      ascii;
    class       surfaceScalarField;
    location    "2.2";
    object      phi;
}
// * * * * * * * * * * * * * * * * * * * * * * * * * * * * * * * * * * * * * //

dimensions      [0 3 -1 0 0 0 0];

internalField   nonuniform List<scalar> 
760
(
1.24999e-06
-7.65407e-15
1.24999e-06
-5.25402e-15
1.24999e-06
6.37081e-17
1.24999e-06
-3.70423e-16
1.24999e-06
2.46451e-16
1.24999e-06
-2.08471e-16
1.24999e-06
1.64896e-16
1.24999e-06
-1.2916e-16
1.24999e-06
9.71306e-17
1.24999e-06
-6.84599e-17
1.24999e-06
4.22498e-17
1.24999e-06
-1.77792e-17
1.24999e-06
-5.57541e-18
1.24999e-06
2.8324e-17
1.24999e-06
-5.20115e-17
1.24999e-06
7.1454e-17
1.24999e-06
-1.37317e-16
1.24999e-06
1.94156e-16
1.24999e-06
-3.14748e-15
-4.6432e-15
3.74997e-06
-2.31327e-14
3.74997e-06
-1.8387e-14
3.74997e-06
-3.85505e-16
3.74997e-06
-9.01867e-16
3.74997e-06
5.16438e-16
3.74997e-06
-4.51725e-16
3.74997e-06
3.54028e-16
3.74997e-06
-2.77676e-16
3.74997e-06
2.08494e-16
3.74997e-06
-1.46681e-16
3.74997e-06
9.01311e-17
3.74997e-06
-3.7283e-17
3.74997e-06
-1.31742e-17
3.74997e-06
6.21658e-17
3.74997e-06
-1.14688e-16
3.74997e-06
1.49534e-16
3.74997e-06
-3.61433e-16
3.74997e-06
5.13045e-16
3.74997e-06
-1.15949e-14
-1.49907e-14
6.24996e-06
-4.18491e-14
6.24996e-06
-3.62559e-14
6.24996e-06
-1.42149e-15
6.24996e-06
-1.38431e-15
6.24996e-06
6.6428e-16
6.24996e-06
-6.0744e-16
6.24996e-06
4.70422e-16
6.24996e-06
-3.69639e-16
6.24996e-06
2.76996e-16
6.24996e-06
-1.94426e-16
6.24996e-06
1.18811e-16
6.24996e-06
-4.80619e-17
6.24996e-06
-1.95165e-17
6.24996e-06
8.48641e-17
6.24996e-06
-1.57484e-16
6.24996e-06
1.92312e-16
6.24996e-06
-5.97145e-16
6.24996e-06
8.61595e-16
6.24996e-06
-2.38147e-14
-2.86599e-14
8.74994e-06
-6.09798e-14
8.74994e-06
-5.57764e-14
8.74994e-06
-2.84928e-15
8.74994e-06
-1.79734e-15
8.74994e-06
7.05258e-16
8.74994e-06
-6.83806e-16
8.74994e-06
5.21624e-16
8.74994e-06
-4.10874e-16
8.74994e-06
3.07148e-16
8.74994e-06
-2.15008e-16
8.74994e-06
1.30523e-16
8.74994e-06
-5.13586e-17
8.74994e-06
-2.42892e-17
8.74994e-06
9.70603e-17
8.74994e-06
-1.8154e-16
8.74994e-06
2.04127e-16
8.74994e-06
-8.28507e-16
8.74994e-06
1.21593e-15
8.74994e-06
-3.80038e-14
-4.38517e-14
1.12499e-05
-7.80914e-14
1.12499e-05
-7.42325e-14
1.12499e-05
-4.45983e-15
1.12499e-05
-2.11909e-15
1.12499e-05
6.56181e-16
1.12499e-05
-6.89845e-16
1.12499e-05
5.15906e-16
1.12499e-05
-4.07735e-16
1.12499e-05
3.03864e-16
1.12499e-05
-2.12006e-16
1.12499e-05
1.27636e-16
1.12499e-05
-4.84395e-17
1.12499e-05
-2.72756e-17
1.12499e-05
9.96119e-17
1.12499e-05
-1.88305e-16
1.12499e-05
1.89655e-16
1.12499e-05
-1.03853e-15
1.12499e-05
1.55314e-15
1.12499e-05
-5.24308e-14
-5.88448e-14
1.37499e-05
-9.13189e-14
1.37499e-05
-8.94689e-14
1.37499e-05
-6.04788e-15
1.37499e-05
-2.33003e-15
1.37499e-05
5.34941e-16
1.37499e-05
-6.35431e-16
1.37499e-05
4.62199e-16
1.37499e-05
-3.671e-16
1.37499e-05
2.7242e-16
1.37499e-05
-1.89233e-16
1.37499e-05
1.12634e-16
1.37499e-05
-4.05639e-17
1.37499e-05
-2.83717e-17
1.37499e-05
9.35949e-17
1.37499e-05
-1.79582e-16
1.37499e-05
1.53819e-16
1.37499e-05
-1.21112e-15
1.37499e-05
1.84933e-15
1.37499e-05
-6.55312e-14
-7.20907e-14
1.62499e-05
-9.93754e-14
1.62499e-05
-9.9917e-14
1.62499e-05
-7.42956e-15
1.62499e-05
-2.41569e-15
1.62499e-05
3.59976e-16
1.62499e-05
-5.31221e-16
1.62499e-05
3.69984e-16
1.62499e-05
-2.96262e-16
1.62499e-05
2.18393e-16
1.62499e-05
-1.50674e-16
1.62499e-05
8.80903e-17
1.62499e-05
-2.89872e-17
1.62499e-05
-2.75845e-17
1.62499e-05
8.02834e-17
1.62499e-05
-1.57535e-16
1.62499e-05
1.01698e-16
1.62499e-05
-1.33253e-15
1.62499e-05
2.08005e-15
1.62499e-05
-7.60159e-14
-8.23232e-14
1.87499e-05
-1.01619e-13
1.87499e-05
-1.04678e-13
1.87499e-05
-8.4582e-15
1.87499e-05
-2.36927e-15
1.87499e-05
1.49681e-16
1.87499e-05
-3.88541e-16
1.87499e-05
2.4912e-16
1.87499e-05
-2.02813e-16
1.87499e-05
1.47548e-16
1.87499e-05
-1.00446e-16
1.87499e-05
5.6608e-17
1.87499e-05
-1.49045e-17
1.87499e-05
-2.50489e-17
1.87499e-05
6.11567e-17
1.87499e-05
-1.24652e-16
1.87499e-05
3.84339e-17
1.87499e-05
-1.39268e-15
1.87499e-05
2.22228e-15
1.87499e-05
-8.29403e-14
-8.86307e-14
2.12499e-05
-9.80224e-14
2.12499e-05
-1.03504e-13
2.12499e-05
-9.03685e-15
2.12499e-05
-2.19328e-15
2.12499e-05
-7.81191e-17
2.12499e-05
-2.19272e-16
2.12499e-05
1.097e-16
2.12499e-05
-9.4547e-17
2.12499e-05
6.57999e-17
2.12499e-05
-4.27208e-17
2.12499e-05
2.07915e-17
2.12499e-05
5.25531e-19
2.12499e-05
-2.10112e-17
2.12499e-05
3.78438e-17
2.12499e-05
-8.37327e-17
2.12499e-05
-3.0864e-17
2.12499e-05
-1.38616e-15
2.12499e-05
2.2576e-15
2.12499e-05
-8.57539e-14
-9.05076e-14
2.37499e-05
-8.91432e-14
2.37499e-05
-9.67764e-14
2.37499e-05
-9.12521e-15
2.37499e-05
-1.90059e-15
2.37499e-05
-3.06563e-16
2.37499e-05
-3.57077e-17
2.37499e-05
-3.80907e-17
2.37499e-05
2.06473e-17
2.37499e-05
-2.08937e-17
2.37499e-05
1.82928e-17
2.37499e-05
-1.67789e-17
2.37499e-05
1.62216e-17
2.37499e-05
-1.58074e-17
2.37499e-05
1.20883e-17
2.37499e-05
-3.78289e-17
2.37499e-05
-1.01134e-16
2.37499e-05
-1.3129e-15
2.37499e-05
2.17587e-15
2.37499e-05
-8.43175e-14
-8.7876e-14
2.62499e-05
-7.60357e-14
2.62499e-05
-8.54224e-14
2.62499e-05
-8.74059e-15
2.62499e-05
-1.51442e-15
2.62499e-05
-5.20077e-16
2.62499e-05
1.49533e-16
2.62499e-05
-1.84103e-16
2.62499e-05
1.34883e-16
2.62499e-05
-1.06627e-16
2.62499e-05
7.84671e-17
2.62499e-05
-5.35621e-17
2.62499e-05
3.11567e-17
2.62499e-05
-9.86439e-18
2.62499e-05
-1.42492e-17
2.62499e-05
9.78498e-18
2.62499e-05
-1.67491e-16
2.62499e-05
-1.17848e-15
2.62499e-05
1.97836e-15
2.62499e-05
-7.88925e-14
-8.1077e-14
2.87499e-05
-6.01365e-14
2.87499e-05
-7.07942e-14
2.87499e-05
-7.9522e-15
2.87499e-05
-1.06728e-15
2.87499e-05
-7.04551e-16
2.87499e-05
3.23689e-16
2.87499e-05
-3.18335e-16
2.87499e-05
2.40344e-16
2.87499e-05
-1.85536e-16
2.87499e-05
1.33694e-16
2.87499e-05
-8.70959e-17
2.87499e-05
4.43864e-17
2.87499e-05
-3.67874e-18
2.87499e-05
-3.92638e-17
2.87499e-05
5.57149e-17
2.87499e-05
-2.25232e-16
2.87499e-05
-9.93915e-16
2.87499e-05
1.67986e-15
2.87499e-05
-7.00984e-14
-7.08287e-14
3.12499e-05
-4.3128e-14
3.12499e-05
-5.45258e-14
3.12499e-05
-6.86866e-15
3.12499e-05
-5.9892e-16
3.12499e-05
-8.47329e-16
3.12499e-05
4.7398e-16
3.12499e-05
-4.3106e-16
3.12499e-05
3.29387e-16
3.12499e-05
-2.51909e-16
3.12499e-05
1.8e-16
3.12499e-05
-1.14997e-16
3.12499e-05
5.50127e-17
3.12499e-05
2.21833e-18
3.12499e-05
-6.10476e-17
3.12499e-05
9.6469e-17
3.12499e-05
-2.69921e-16
3.12499e-05
-7.75095e-16
3.12499e-05
1.30865e-15
3.12499e-05
-5.88506e-14
-5.81624e-14
3.37499e-05
-2.67515e-14
3.37499e-05
-3.83327e-14
3.37499e-05
-5.6212e-15
3.37499e-05
-1.53552e-16
3.37499e-05
-9.37175e-16
3.37499e-05
5.87864e-16
3.37499e-05
-5.12924e-16
3.37499e-05
3.94609e-16
3.37499e-05
-3.00249e-16
3.37499e-05
2.13571e-16
3.37499e-05
-1.34966e-16
3.37499e-05
6.21732e-17
3.37499e-05
7.28698e-18
3.37499e-05
-7.77008e-17
3.37499e-05
1.28578e-16
3.37499e-05
-2.9751e-16
3.37499e-05
-5.41763e-16
3.37499e-05
9.04763e-16
3.37499e-05
-4.6258e-14
-4.43167e-14
3.62499e-05
-1.26588e-14
3.62499e-05
-2.38455e-14
3.62499e-05
-4.34146e-15
3.62499e-05
2.23417e-16
3.62499e-05
-9.63932e-16
3.62499e-05
6.5311e-16
3.62499e-05
-5.55016e-16
3.62499e-05
4.28945e-16
3.62499e-05
-3.25306e-16
3.62499e-05
2.30745e-16
3.62499e-05
-1.44849e-16
3.62499e-05
6.51057e-17
3.62499e-05
1.10091e-17
3.62499e-05
-8.74624e-17
3.62499e-05
1.48687e-16
3.62499e-05
-3.04431e-16
3.62499e-05
-3.16147e-16
3.62499e-05
5.15043e-16
3.62499e-05
-3.3533e-14
-3.0639e-14
3.87499e-05
-2.15207e-15
3.87499e-05
-1.23351e-14
3.87499e-05
-3.14177e-15
3.87499e-05
4.8899e-16
3.87499e-05
-9.18327e-16
3.87499e-05
6.58065e-16
3.87499e-05
-5.48945e-16
3.87499e-05
4.25674e-16
3.87499e-05
-3.22104e-16
3.87499e-05
2.2808e-16
3.87499e-05
-1.42528e-16
3.87499e-05
6.29918e-17
3.87499e-05
1.29241e-17
3.87499e-05
-8.8665e-17
3.87499e-05
1.53614e-16
3.87499e-05
-2.8772e-16
3.87499e-05
-1.21429e-16
3.87499e-05
1.87654e-16
3.87499e-05
-2.18285e-14
-1.84156e-14
4.12499e-05
3.89889e-15
4.12499e-05
-4.611e-15
4.12499e-05
-2.09261e-15
4.12499e-05
6.05516e-16
4.12499e-05
-7.91648e-16
4.12499e-05
5.91829e-16
4.12499e-05
-4.86914e-16
4.12499e-05
3.7855e-16
4.12499e-05
-2.86011e-16
4.12499e-05
2.02308e-16
4.12499e-05
-1.26042e-16
4.12499e-05
5.50801e-17
4.12499e-05
1.26537e-17
4.12499e-05
-7.98574e-17
4.12499e-05
1.40424e-16
4.12499e-05
-2.45193e-16
4.12499e-05
1.99496e-17
4.12499e-05
-3.69045e-17
4.12499e-05
-1.21674e-14
-8.78789e-15
4.375e-05
5.42631e-15
4.375e-05
-6.45969e-16
4.375e-05
-1.2137e-15
4.375e-05
5.432e-16
4.375e-05
-5.75459e-16
4.375e-05
4.44372e-16
4.375e-05
-3.61743e-16
4.375e-05
2.8183e-16
4.375e-05
-2.12722e-16
4.375e-05
1.50371e-16
4.375e-05
-9.34996e-17
4.375e-05
4.05667e-17
4.375e-05
9.95011e-18
4.375e-05
-5.98439e-17
4.375e-05
1.06568e-16
4.375e-05
-1.75511e-16
4.375e-05
8.78127e-17
4.375e-05
-1.31699e-16
4.375e-05
-5.19608e-15
-2.49846e-15
4.625e-05
3.04734e-15
4.625e-05
3.16105e-16
4.625e-05
-4.64826e-16
4.625e-05
2.80564e-16
4.625e-05
-2.61235e-16
4.625e-05
2.06613e-16
4.625e-05
-1.66884e-16
4.625e-05
1.30237e-16
4.625e-05
-9.82269e-17
4.625e-05
6.94089e-17
4.625e-05
-4.31118e-17
4.625e-05
1.86316e-17
4.625e-05
4.74115e-18
4.625e-05
-2.77255e-17
4.625e-05
4.98877e-17
4.625e-05
-7.83126e-17
4.625e-05
6.53546e-17
4.625e-05
-9.27314e-17
4.625e-05
-1.2174e-15
8.71998e-17
4.875e-05
4.875e-05
4.875e-05
4.875e-05
4.875e-05
4.875e-05
4.875e-05
4.875e-05
4.875e-05
4.875e-05
4.875e-05
4.875e-05
4.875e-05
4.875e-05
4.875e-05
4.875e-05
4.875e-05
4.875e-05
4.875e-05
)
;

boundaryField
{
    top
    {
        type            calculated;
        value           uniform 0;
    }
    bottom
    {
        type            calculated;
        value           uniform 0;
    }
    inlet
    {
        type            calculated;
        value           nonuniform List<scalar> 
20
(
-1.24999e-06
-3.74997e-06
-6.24996e-06
-8.74994e-06
-1.12499e-05
-1.37499e-05
-1.62499e-05
-1.87499e-05
-2.12499e-05
-2.37499e-05
-2.62499e-05
-2.87499e-05
-3.12499e-05
-3.37499e-05
-3.62499e-05
-3.87499e-05
-4.12499e-05
-4.375e-05
-4.625e-05
-4.875e-05
)
;
    }
    outlet
    {
        type            calculated;
        value           nonuniform List<scalar> 
20
(
1.24999e-06
3.74997e-06
6.24996e-06
8.74994e-06
1.12499e-05
1.37499e-05
1.62499e-05
1.87499e-05
2.12499e-05
2.37499e-05
2.62499e-05
2.87499e-05
3.12499e-05
3.37499e-05
3.62499e-05
3.87499e-05
4.12499e-05
4.375e-05
4.625e-05
4.875e-05
)
;
    }
    frontAndBack
    {
        type            empty;
        value           nonuniform 0();
    }
}


// ************************************************************************* //
