/*--------------------------------*- C++ -*----------------------------------*\
| =========                 |                                                 |
| \\      /  F ield         | OpenFOAM: The Open Source CFD Toolbox           |
|  \\    /   O peration     | Version:  4.1                                   |
|   \\  /    A nd           | Web:      www.OpenFOAM.org                      |
|    \\/     M anipulation  |                                                 |
\*---------------------------------------------------------------------------*/
FoamFile
{
    version     2.0;
    format      ascii;
    class       volVectorField;
    location    "2.2";
    object      U;
}
// * * * * * * * * * * * * * * * * * * * * * * * * * * * * * * * * * * * * * //

dimensions      [0 1 -1 0 0 0 0];

internalField   nonuniform List<vector> 
400
(
(0.0249998 -3.39344e-12 0)
(0.0249998 -2.10476e-12 0)
(0.0249998 7.74936e-14 0)
(0.0249998 -1.8488e-13 0)
(0.0249998 1.29782e-13 0)
(0.0249998 -1.08629e-13 0)
(0.0249998 8.62047e-14 0)
(0.0249998 -6.74923e-14 0)
(0.0249998 5.07876e-14 0)
(0.0249998 -3.58239e-14 0)
(0.0249998 2.21481e-14 0)
(0.0249998 -9.38384e-15 0)
(0.0249998 -2.79686e-15 0)
(0.0249998 1.46758e-14 0)
(0.0249998 -2.69162e-14 0)
(0.0249998 3.75573e-14 0)
(0.0249998 -6.63434e-14 0)
(0.0249998 8.58511e-14 0)
(0.0249998 -1.18502e-12 0)
(0.0249998 -1.94154e-12 0)
(0.0749995 -1.43304e-11 0)
(0.0749995 -1.05583e-11 0)
(0.0749995 -3.07384e-14 0)
(0.0749995 -6.26385e-13 0)
(0.0749995 3.94823e-13 0)
(0.0749995 -3.37854e-13 0)
(0.0749995 2.66354e-13 0)
(0.0749995 -2.08727e-13 0)
(0.0749995 1.56874e-13 0)
(0.0749995 -1.10489e-13 0)
(0.0749995 6.80726e-14 0)
(0.0749995 -2.84561e-14 0)
(0.0749995 -9.36019e-15 0)
(0.0749995 4.61492e-14 0)
(0.0749995 -8.48863e-14 0)
(0.0749995 1.14381e-13 0)
(0.0749995 -2.39598e-13 0)
(0.0749995 3.45867e-13 0)
(0.0749995 -6.43924e-12 0)
(0.0749995 -8.90798e-12 0)
(0.124999 -3.18294e-11 0)
(0.124999 -2.64079e-11 0)
(0.124999 -7.89069e-13 0)
(0.124999 -1.14659e-12 0)
(0.124999 6.1015e-13 0)
(0.124999 -5.43186e-13 0)
(0.124999 4.23686e-13 0)
(0.124999 -3.32544e-13 0)
(0.124999 2.49491e-13 0)
(0.124999 -1.75357e-13 0)
(0.124999 1.07508e-13 0)
(0.124999 -4.40705e-14 0)
(0.124999 -1.65085e-14 0)
(0.124999 7.52323e-14 0)
(0.124999 -1.39116e-13 0)
(0.124999 1.76583e-13 0)
(0.124999 -4.74774e-13 0)
(0.124999 6.72149e-13 0)
(0.124999 -1.69327e-11 0)
(0.124999 -2.11082e-11 0)
(0.174999 -5.15225e-11 0)
(0.174999 -4.58414e-11 0)
(0.174999 -2.05529e-12 0)
(0.174999 -1.60979e-12 0)
(0.174999 7.09768e-13 0)
(0.174999 -6.64439e-13 0)
(0.174999 5.11413e-13 0)
(0.174999 -4.02237e-13 0)
(0.174999 3.01119e-13 0)
(0.174999 -2.11116e-13 0)
(0.174999 1.28653e-13 0)
(0.174999 -5.14481e-14 0)
(0.174999 -2.23102e-14 0)
(0.174999 9.3482e-14 0)
(0.174999 -1.7402e-13 0)
(0.174999 2.05454e-13 0)
(0.174999 -7.15445e-13 0)
(0.174999 1.03762e-12 0)
(0.174999 -3.05841e-11 0)
(0.174999 -3.60381e-11 0)
(0.224999 -7.02588e-11 0)
(0.224999 -6.5512e-11 0)
(0.224999 -3.63199e-12 0)
(0.224999 -1.98445e-12 0)
(0.224999 7.02058e-13 0)
(0.224999 -7.03994e-13 0)
(0.224999 5.32544e-13 0)
(0.224999 -4.20056e-13 0)
(0.224999 3.13597e-13 0)
(0.224999 -2.19204e-13 0)
(0.224999 1.32591e-13 0)
(0.224999 -5.13707e-14 0)
(0.224999 -2.62594e-14 0)
(0.224999 1.00721e-13 0)
(0.224999 -1.89219e-13 0)
(0.224999 2.03116e-13 0)
(0.224999 -9.412e-13 0)
(0.224999 1.38921e-12 0)
(0.224999 -4.53436e-11 0)
(0.224999 -5.15848e-11 0)
(0.274998 -8.58219e-11 0)
(0.274998 -8.28328e-11 0)
(0.274998 -5.28303e-12 0)
(0.274998 -2.25415e-12 0)
(0.274998 6.11493e-13 0)
(0.274998 -6.76557e-13 0)
(0.274998 4.99979e-13 0)
(0.274998 -3.95969e-13 0)
(0.274998 2.94552e-13 0)
(0.274998 -2.05111e-13 0)
(0.274998 1.2287e-13 0)
(0.274998 -4.55954e-14 0)
(0.274998 -2.83006e-14 0)
(0.274998 9.86075e-14 0)
(0.274998 -1.87583e-13 0)
(0.274998 1.76473e-13 0)
(0.274998 -1.13591e-12 0)
(0.274998 1.71198e-12 0)
(0.274998 -5.9466e-11 0)
(0.274998 -6.60548e-11 0)
(0.324998 -9.66995e-11 0)
(0.324998 -9.59813e-11 0)
(0.324998 -6.81091e-12 0)
(0.324998 -2.40487e-12 0)
(0.324998 4.58523e-13 0)
(0.324998 -5.94298e-13 0)
(0.324998 4.24441e-13 0)
(0.324998 -3.38247e-13 0)
(0.324998 2.50304e-13 0)
(0.324998 -1.73365e-13 0)
(0.324998 1.02409e-13 0)
(0.324998 -3.55439e-14 0)
(0.324998 -2.84337e-14 0)
(0.324998 8.85743e-14 0)
(0.324998 -1.71568e-13 0)
(0.324998 1.31157e-13 0)
(0.324998 -1.28574e-12 0)
(0.324998 1.98166e-12 0)
(0.324998 -7.15327e-11 0)
(0.324998 -7.8061e-11 0)
(0.374998 -1.01934e-10 0)
(0.374998 -1.0373e-10 0)
(0.374998 -8.04778e-12 0)
(0.374998 -2.42519e-12 0)
(0.374998 2.61374e-13 0)
(0.374998 -4.67983e-13 0)
(0.374998 3.1543e-13 0)
(0.374998 -2.54198e-13 0)
(0.374998 1.8642e-13 0)
(0.374998 -1.27944e-13 0)
(0.374998 7.37504e-14 0)
(0.374998 -2.24216e-14 0)
(0.374998 -2.67268e-14 0)
(0.374998 7.19729e-14 0)
(0.374998 -1.43448e-13 0)
(0.374998 7.22054e-14 0)
(0.374998 -1.37844e-12 0)
(0.374998 2.17406e-12 0)
(0.374998 -8.04216e-11 0)
(0.374998 -8.6507e-11 0)
(0.424998 -1.01194e-10 0)
(0.424998 -1.05511e-10 0)
(0.424998 -8.86968e-12 0)
(0.424998 -2.31224e-12 0)
(0.424998 3.79912e-14 0)
(0.424998 -3.09015e-13 0)
(0.424998 1.82772e-13 0)
(0.424998 -1.51395e-13 0)
(0.424998 1.08653e-13 0)
(0.424998 -7.29289e-14 0)
(0.424998 3.94565e-14 0)
(0.424998 -7.38751e-15 0)
(0.424998 -2.33679e-14 0)
(0.424998 5.0334e-14 0)
(0.424998 -1.05821e-13 0)
(0.424998 4.67485e-15 0)
(0.424998 -1.40597e-12 0)
(0.424998 2.26726e-12 0)
(0.424998 -8.53763e-11 0)
(0.424998 -9.06728e-11 0)
(0.474998 -9.47582e-11 0)
(0.474998 -1.01401e-10 0)
(0.474998 -9.20672e-12 0)
(0.474998 -2.07353e-12 0)
(0.474998 -1.94211e-13 0)
(0.474998 -1.29487e-13 0)
(0.474998 3.66235e-14 0)
(0.474998 -3.76922e-14 0)
(0.474998 2.29476e-14 0)
(0.474998 -1.25168e-14 0)
(0.474998 2.12322e-15 0)
(0.474998 8.43865e-15 0)
(0.474998 -1.86503e-14 0)
(0.474998 2.53486e-14 0)
(0.474998 -6.16174e-14 0)
(0.474998 -6.63404e-14 0)
(0.474998 -1.36542e-12 0)
(0.474998 2.24601e-12 0)
(0.474998 -8.60499e-11 0)
(0.474998 -9.02638e-11 0)
(0.524998 -8.34573e-11 0)
(0.524998 -9.20804e-11 0)
(0.524998 -9.04784e-12 0)
(0.524998 -1.72724e-12 0)
(0.524998 -4.18923e-13 0)
(0.524998 5.80886e-14 0)
(0.524998 -1.128e-13 0)
(0.524998 7.89879e-14 0)
(0.524998 -6.47407e-14 0)
(0.524998 4.91098e-14 0)
(0.524998 -3.56787e-14 0)
(0.524998 2.39998e-14 0)
(0.524998 -1.29604e-14 0)
(0.524998 -1.1691e-15 0)
(0.524998 -1.40213e-14 0)
(0.524998 -1.35847e-13 0)
(0.524998 -1.25955e-12 0)
(0.524998 2.10511e-12 0)
(0.524998 -8.25104e-11 0)
(0.524998 -8.54177e-11 0)
(0.574998 -6.85684e-11 0)
(0.574998 -7.87206e-11 0)
(0.574998 -8.43858e-12 0)
(0.574998 -1.30161e-12 0)
(0.574998 -6.21267e-13 0)
(0.574998 2.40973e-13 0)
(0.574998 -2.55386e-13 0)
(0.574998 1.90766e-13 0)
(0.574998 -1.48503e-13 0)
(0.574998 1.07814e-13 0)
(0.574998 -7.14411e-14 0)
(0.574998 3.83124e-14 0)
(0.574998 -6.76673e-15 0)
(0.574998 -2.73243e-14 0)
(0.574998 3.36143e-14 0)
(0.574998 -1.99029e-13 0)
(0.574998 -1.09674e-12 0)
(0.574998 1.85226e-12 0)
(0.574998 -7.52112e-11 0)
(0.574998 -7.66776e-11 0)
(0.624998 -5.16922e-11 0)
(0.624998 -6.28589e-11 0)
(0.624998 -7.47151e-12 0)
(0.624998 -8.33405e-13 0)
(0.624998 -7.87845e-13 0)
(0.624998 4.06334e-13 0)
(0.624998 -3.81226e-13 0)
(0.624998 2.89879e-13 0)
(0.624998 -2.22529e-13 0)
(0.624998 1.59544e-13 0)
(0.624998 -1.02735e-13 0)
(0.624998 5.0453e-14 0)
(0.624998 -5.89788e-16 0)
(0.624998 -5.11979e-14 0)
(0.624998 7.78211e-14 0)
(0.624998 -2.51292e-13 0)
(0.624998 -8.9066e-13 0)
(0.624998 1.50914e-12 0)
(0.624998 -6.49408e-11 0)
(0.624998 -6.49398e-11 0)
(0.674998 -3.45813e-11 0)
(0.674998 -4.62147e-11 0)
(0.674998 -6.27165e-12 0)
(0.674998 -3.65359e-13 0)
(0.674998 -9.0678e-13 0)
(0.674998 5.41484e-13 0)
(0.674998 -4.80775e-13 0)
(0.674998 3.68799e-13 0)
(0.674998 -2.81214e-13 0)
(0.674998 2.00404e-13 0)
(0.674998 -1.27219e-13 0)
(0.674998 5.9546e-14 0)
(0.674998 5.02811e-15 0)
(0.674998 -7.08728e-14 0)
(0.674998 1.15102e-13 0)
(0.674998 -2.88378e-13 0)
(0.674998 -6.59406e-13 0)
(0.674998 1.11071e-12 0)
(0.674998 -5.27351e-11 0)
(0.674998 -5.13646e-11 0)
(0.724998 -1.89815e-11 0)
(0.724998 -3.05177e-11 0)
(0.724998 -4.97627e-12 0)
(0.724998 5.7216e-14 0)
(0.724998 -9.67729e-13 0)
(0.724998 6.34226e-13 0)
(0.724998 -5.45069e-13 0)
(0.724998 4.20419e-13 0)
(0.724998 -3.19279e-13 0)
(0.724998 2.26727e-13 0)
(0.724998 -1.42717e-13 0)
(0.724998 6.48058e-14 0)
(0.724998 9.55435e-15 0)
(0.724998 -8.45408e-14 0)
(0.724998 1.42081e-13 0)
(0.724998 -3.0653e-13 0)
(0.724998 -4.24218e-13 0)
(0.724998 7.01642e-13 0)
(0.724998 -3.97876e-11 0)
(0.724998 -3.72783e-11 0)
(0.774999 -6.41128e-12 0)
(0.774999 -1.7268e-11 0)
(0.774999 -3.71346e-12 0)
(0.774999 3.89706e-13 0)
(0.774999 -9.61348e-13 0)
(0.774999 6.72819e-13 0)
(0.774999 -5.65636e-13 0)
(0.774999 4.37987e-13 0)
(0.774999 -3.31722e-13 0)
(0.774999 2.35043e-13 0)
(0.774999 -1.47141e-13 0)
(0.774999 6.54629e-14 0)
(0.774999 1.24981e-14 0)
(0.774999 -9.0505e-14 0)
(0.774999 1.55531e-13 0)
(0.774999 -3.02527e-13 0)
(0.774999 -2.08022e-13 0)
(0.774999 3.31122e-13 0)
(0.774999 -2.73077e-11 0)
(0.774999 -2.40254e-11 0)
(0.824999 1.95248e-12 0)
(0.824999 -7.57455e-12 0)
(0.824999 -2.5743e-12 0)
(0.824999 5.88831e-13 0)
(0.824999 -8.76326e-13 0)
(0.824999 6.44102e-13 0)
(0.824999 -5.3287e-13 0)
(0.824999 4.13836e-13 0)
(0.824999 -3.12849e-13 0)
(0.824999 2.21367e-13 0)
(0.824999 -1.38062e-13 0)
(0.824999 6.05749e-14 0)
(0.824999 1.33879e-14 0)
(0.824999 -8.69432e-14 0)
(0.824999 1.51925e-13 0)
(0.824999 -2.73036e-13 0)
(0.824999 -3.44575e-14 0)
(0.824999 4.69172e-14 0)
(0.824999 -1.64147e-11 0)
(0.824999 -1.28656e-11 0)
(0.874999 5.58777e-12 0)
(0.874999 -1.81636e-12 0)
(0.874999 -1.59916e-12 0)
(0.874999 6.10845e-13 0)
(0.874999 -6.97996e-13 0)
(0.874999 5.32233e-13 0)
(0.874999 -4.35063e-13 0)
(0.874999 3.38661e-13 0)
(0.874999 -2.55699e-13 0)
(0.874999 1.80781e-13 0)
(0.874999 -1.12475e-13 0)
(0.874999 4.8901e-14 0)
(0.874999 1.17767e-14 0)
(0.874999 -7.18186e-14 0)
(0.874999 1.27195e-13 0)
(0.874999 -2.14589e-13 0)
(0.874999 7.11438e-14 0)
(0.874999 -1.16482e-13 0)
(0.874999 -7.96812e-12 0)
(0.874999 -4.79969e-12 0)
(0.924999 4.83476e-12 0)
(0.924999 3.85308e-13 0)
(0.924999 -7.85628e-13 0)
(0.924999 4.4059e-13 0)
(0.924999 -4.25368e-13 0)
(0.924999 3.33987e-13 0)
(0.924999 -2.70473e-13 0)
(0.924999 2.10949e-13 0)
(0.924999 -1.5914e-13 0)
(0.924999 1.1246e-13 0)
(0.924999 -6.98673e-14 0)
(0.924999 3.02162e-14 0)
(0.924999 7.63083e-15 0)
(0.924999 -4.49218e-14 0)
(0.924999 8.04756e-14 0)
(0.924999 -1.28702e-13 0)
(0.924999 9.25e-14 0)
(0.924999 -1.33653e-13 0)
(0.924999 -2.56771e-12 0)
(0.924999 -4.82024e-13 0)
(0.975 1.80364e-12 0)
(0.975 4.00759e-13 0)
(0.975 -2.16414e-13 0)
(0.975 1.52286e-13 0)
(0.975 -1.35247e-13 0)
(0.975 1.07917e-13 0)
(0.975 -8.69066e-14 0)
(0.975 6.78679e-14 0)
(0.975 -5.11735e-14 0)
(0.975 3.61585e-14 0)
(0.975 -2.24487e-14 0)
(0.975 9.68442e-15 0)
(0.975 2.50186e-15 0)
(0.975 -1.44686e-14 0)
(0.975 2.61221e-14 0)
(0.975 -4.04329e-14 0)
(0.975 3.87914e-14 0)
(0.975 -6.10885e-14 0)
(0.975 -3.34292e-13 0)
(0.975 3.64317e-13 0)
)
;

boundaryField
{
    top
    {
        type            fixedValue;
        value           uniform (1 0 0);
    }
    bottom
    {
        type            fixedValue;
        value           uniform (0 0 0);
    }
    inlet
    {
        type            zeroGradient;
    }
    outlet
    {
        type            zeroGradient;
    }
    frontAndBack
    {
        type            empty;
    }
}


// ************************************************************************* //
