/*--------------------------------*- C++ -*----------------------------------*\
| =========                 |                                                 |
| \\      /  F ield         | OpenFOAM: The Open Source CFD Toolbox           |
|  \\    /   O peration     | Version:  4.1                                   |
|   \\  /    A nd           | Web:      www.OpenFOAM.org                      |
|    \\/     M anipulation  |                                                 |
\*---------------------------------------------------------------------------*/
FoamFile
{
    version     2.0;
    format      ascii;
    class       surfaceScalarField;
    location    "1.1";
    object      phi;
}
// * * * * * * * * * * * * * * * * * * * * * * * * * * * * * * * * * * * * * //

dimensions      [0 3 -1 0 0 0 0];

internalField   nonuniform List<scalar> 
760
(
-1.91629e-05
1.77484e-12
-1.91629e-05
7.05469e-12
-1.91629e-05
4.31082e-12
-1.91629e-05
1.27057e-11
-1.91629e-05
1.48588e-12
-1.91629e-05
1.92678e-11
-1.91629e-05
-6.15534e-13
-1.91629e-05
2.31141e-11
-1.91629e-05
-8.18735e-13
-1.91629e-05
2.35678e-11
-1.91629e-05
-1.43602e-13
-1.91629e-05
2.16701e-11
-1.91629e-05
8.06235e-13
-1.91629e-05
1.74665e-11
-1.91629e-05
2.72262e-12
-1.91629e-05
1.16321e-11
-1.91629e-05
3.24685e-12
-1.91629e-05
7.01438e-12
-1.91629e-05
6.51473e-13
4.9871e-12
-5.11558e-05
7.53508e-12
-5.11559e-05
1.9685e-11
-5.11559e-05
1.35364e-11
-5.11559e-05
2.57872e-11
-5.11559e-05
5.40285e-12
-5.11559e-05
3.67738e-11
-5.11559e-05
1.37173e-12
-5.11559e-05
4.35219e-11
-5.11559e-05
1.23106e-12
-5.11559e-05
4.40946e-11
-5.11559e-05
2.53287e-12
-5.11559e-05
4.03477e-11
-5.11559e-05
4.13062e-12
-5.11559e-05
3.23554e-11
-5.11559e-05
7.18516e-12
-5.11559e-05
2.15816e-11
-5.11559e-05
7.567e-12
-5.11559e-05
1.17894e-11
-5.11559e-05
1.87708e-12
1.26146e-11
-7.68161e-05
1.81598e-11
-7.68161e-05
3.8649e-11
-7.68161e-05
2.73878e-11
-7.68161e-05
4.14295e-11
-7.68161e-05
1.27729e-11
-7.68161e-05
5.5788e-11
-7.68161e-05
7.43712e-12
-7.68161e-05
6.48178e-11
-7.68161e-05
7.87673e-12
-7.68161e-05
6.50602e-11
-7.68161e-05
9.84471e-12
-7.68161e-05
5.90829e-11
-7.68161e-05
1.17623e-11
-7.68161e-05
4.70297e-11
-7.68161e-05
1.50443e-11
-7.68161e-05
3.14612e-11
-7.68161e-05
1.41819e-11
-7.68161e-05
1.53747e-11
-7.68161e-05
6.17051e-12
2.29657e-11
-9.61437e-05
3.33422e-11
-9.61437e-05
6.28459e-11
-9.61437e-05
4.45375e-11
-9.61437e-05
5.81994e-11
-9.61437e-05
2.32002e-11
-9.61437e-05
7.44719e-11
-9.61437e-05
1.74547e-11
-9.61437e-05
8.48585e-11
-9.61437e-05
1.89298e-11
-9.61437e-05
8.43358e-11
-9.61437e-05
2.145e-11
-9.61437e-05
7.59662e-11
-9.61437e-05
2.32167e-11
-9.61437e-05
5.99943e-11
-9.61437e-05
2.56246e-11
-9.61437e-05
4.03098e-11
-9.61437e-05
2.23769e-11
-9.61437e-05
1.75519e-11
-9.61437e-05
1.39537e-11
3.56462e-11
-0.000109139
5.17205e-11
-0.000109139
9.03304e-11
-0.000109139
6.25865e-11
-0.000109139
7.49538e-11
-0.000109139
3.46734e-11
-0.000109139
9.21033e-11
-0.000109139
2.92254e-11
-0.000109139
1.03113e-10
-0.000109139
3.20973e-11
-0.000109139
1.0153e-10
-0.000109139
3.51869e-11
-0.000109139
9.07292e-11
-0.000109139
3.66298e-11
-0.000109139
7.10875e-11
-0.000109139
3.75679e-11
-0.000109139
4.80099e-11
-0.000109139
3.12942e-11
-0.000109139
1.87178e-11
-0.000109139
2.51747e-11
5.03586e-11
-0.000115801
7.16954e-11
-0.000115801
1.18728e-10
-0.000115801
7.95561e-11
-0.000115801
8.98722e-11
-0.000115801
4.56462e-11
-0.000115801
1.06652e-10
-0.000115801
4.11441e-11
-0.000115801
1.17432e-10
-0.000115801
4.56686e-11
-0.000115801
1.14587e-10
-0.000115801
4.93416e-11
-0.000115801
1.01572e-10
-0.000115801
5.04013e-11
-0.000115801
7.89281e-11
-0.000115801
4.94631e-11
-0.000115801
5.3639e-11
-0.000115801
3.98934e-11
-0.000115801
1.86526e-11
-0.000115801
3.89929e-11
6.61008e-11
-0.000116131
9.15714e-11
-0.000116131
1.45783e-10
-0.000116131
9.40966e-11
-0.000116131
1.01931e-10
-0.000116131
5.52014e-11
-0.000116131
1.17198e-10
-0.000116131
5.22193e-11
-0.000116131
1.26942e-10
-0.000116131
5.85299e-11
-0.000116131
1.22728e-10
-0.000116131
6.27966e-11
-0.000116131
1.07849e-10
-0.000116131
6.34718e-11
-0.000116131
8.30766e-11
-0.000116131
6.03773e-11
-0.000116131
5.69166e-11
-0.000116131
4.75024e-11
-0.000116131
1.74545e-11
-0.000116131
5.41809e-11
8.16607e-11
-0.000110128
1.09666e-10
-0.000110128
1.69425e-10
-0.000110128
1.05479e-10
-0.000110128
1.1065e-10
-0.000110128
6.30985e-11
-0.000110128
1.23498e-10
-0.000110128
6.21731e-11
-0.000110128
1.31541e-10
-0.000110128
7.02848e-11
-0.000110128
1.25948e-10
-0.000110128
7.50942e-11
-0.000110128
1.09642e-10
-0.000110128
7.53403e-11
-0.000110128
8.37095e-11
-0.000110128
6.9838e-11
-0.000110128
5.79954e-11
-0.000110128
5.37887e-11
-0.000110128
1.5397e-11
-0.000110128
6.92986e-11
9.57009e-11
-9.77932e-05
1.24321e-10
-9.77932e-05
1.87694e-10
-9.77932e-05
1.132e-10
-9.77932e-05
1.1575e-10
-9.77932e-05
6.91913e-11
-9.77932e-05
1.25552e-10
-9.77932e-05
7.07506e-11
-9.77932e-05
1.31428e-10
-9.77932e-05
8.05489e-11
-9.77932e-05
1.24551e-10
-9.77932e-05
8.57782e-11
-9.77932e-05
1.07312e-10
-9.77932e-05
8.55056e-11
-9.77932e-05
8.12215e-11
-9.77932e-05
7.73976e-11
-9.77932e-05
5.71376e-11
-9.77932e-05
5.84708e-11
-9.77932e-05
1.27613e-11
-9.77932e-05
8.27379e-11
1.06831e-10
-7.91257e-05
1.34064e-10
-7.91257e-05
1.9889e-10
-7.91257e-05
1.16917e-10
-7.91257e-05
1.17089e-10
-7.91257e-05
7.33614e-11
-7.91257e-05
1.23548e-10
-7.91257e-05
7.7665e-11
-7.91257e-05
1.27024e-10
-7.91257e-05
8.88927e-11
-7.91257e-05
1.19062e-10
-7.91257e-05
9.43622e-11
-7.91257e-05
1.01426e-10
-7.91257e-05
9.34541e-11
-7.91257e-05
7.61609e-11
-7.91257e-05
8.26499e-11
-7.91257e-05
5.46705e-11
-7.91257e-05
6.13326e-11
-7.91257e-05
9.8464e-12
-7.91257e-05
9.29767e-11
1.13789e-10
-5.41257e-05
1.37759e-10
-5.41257e-05
2.01735e-10
-5.41257e-05
1.16399e-10
-5.41257e-05
1.14635e-10
-5.41257e-05
7.54401e-11
-5.41257e-05
1.17791e-10
-5.41257e-05
8.2518e-11
-5.41257e-05
1.18879e-10
-5.41257e-05
9.47854e-11
-5.41257e-05
1.10125e-10
-5.41257e-05
1.00281e-10
-5.41257e-05
9.26495e-11
-5.41257e-05
9.86302e-11
-5.41257e-05
6.91205e-11
-5.41257e-05
8.52207e-11
-5.41257e-05
5.09056e-11
-5.41257e-05
6.22065e-11
-5.41257e-05
6.93663e-12
-5.41257e-05
9.87759e-11
1.15597e-10
-2.27932e-05
1.3478e-10
-2.27932e-05
1.95554e-10
-2.27932e-05
1.11548e-10
-2.27932e-05
1.08482e-10
-2.27932e-05
7.52101e-11
-2.27932e-05
1.08683e-10
-2.27932e-05
8.48265e-11
-2.27932e-05
1.07615e-10
-2.27932e-05
9.7638e-11
-2.27932e-05
9.84287e-11
-2.27932e-05
1.0294e-10
-2.27932e-05
8.16714e-11
-2.27932e-05
1.00491e-10
-2.27932e-05
6.06604e-11
-2.27932e-05
8.48131e-11
-2.27932e-05
4.60936e-11
-2.27932e-05
6.09874e-11
-2.27932e-05
4.27767e-12
-2.27932e-05
9.93566e-11
1.11713e-10
1.48716e-05
1.25126e-10
1.48717e-05
1.80433e-10
1.48717e-05
1.02462e-10
1.48717e-05
9.88602e-11
1.48717e-05
7.24401e-11
1.48717e-05
9.66973e-11
1.48717e-05
8.40869e-11
1.48717e-05
9.38676e-11
1.48717e-05
9.68795e-11
1.48717e-05
8.46443e-11
1.48717e-05
1.01788e-10
1.48717e-05
6.91345e-11
1.48717e-05
9.85788e-11
1.48717e-05
5.1246e-11
1.48717e-05
8.12535e-11
1.48717e-05
4.03987e-11
1.48717e-05
5.76443e-11
1.48717e-05
2.03885e-12
1.48717e-05
9.45e-11
1.02146e-10
5.8869e-05
1.09511e-10
5.8869e-05
1.57353e-10
5.8869e-05
8.9533e-11
5.8869e-05
8.61965e-11
5.8869e-05
6.69813e-11
5.8869e-05
8.2401e-11
5.8869e-05
7.98975e-11
5.8869e-05
7.83039e-11
5.8869e-05
9.20838e-11
5.8869e-05
6.94352e-11
5.8869e-05
9.6437e-11
5.8869e-05
5.56421e-11
5.8869e-05
9.26232e-11
5.8869e-05
4.12562e-11
5.8869e-05
7.45502e-11
5.8869e-05
3.3931e-11
5.8869e-05
5.22459e-11
5.8869e-05
2.9515e-13
5.8869e-05
8.45923e-11
8.7545e-11
0.000109199
8.93047e-11
0.000109199
1.28153e-10
0.000109199
7.34855e-11
0.000109199
7.10713e-11
0.000109199
5.87785e-11
0.000109199
6.63758e-11
0.000109199
7.19956e-11
0.000109199
6.15204e-11
0.000109199
8.30084e-11
0.000109199
5.33668e-11
0.000109199
8.67003e-11
0.000109199
4.16793e-11
0.000109199
8.25689e-11
0.000109199
3.09347e-11
0.000109199
6.48779e-11
0.000109199
2.67473e-11
0.000109199
4.4944e-11
0.000109199
-1.01871e-12
0.000109199
7.05503e-11
6.91928e-11
0.000165861
6.65851e-11
0.000165861
9.56501e-11
0.000165861
5.56539e-11
0.000165861
5.45708e-11
0.000165861
4.83093e-11
0.000165861
4.9693e-11
0.000165861
6.07693e-11
0.000165861
4.46162e-11
0.000165861
7.01124e-11
0.000165861
3.75079e-11
0.000165861
7.30732e-11
0.000165861
2.81834e-11
0.000165861
6.89894e-11
0.000165861
2.09113e-11
0.000165861
5.28952e-11
0.000165861
1.92616e-11
0.000165861
3.62127e-11
0.000165861
-1.8644e-12
0.000165861
5.38803e-11
4.90479e-11
0.000228856
4.3952e-11
0.000228856
6.34497e-11
0.000228856
3.80347e-11
0.000228856
3.83273e-11
0.000228856
3.67968e-11
0.000228856
3.39293e-11
0.000228856
4.75894e-11
0.000228856
2.91598e-11
0.000228856
5.49494e-11
0.000228856
2.33497e-11
0.000228856
5.71522e-11
0.000228856
1.64379e-11
0.000228856
5.34596e-11
0.000228856
1.21386e-11
0.000228856
3.99677e-11
0.000228856
1.22595e-11
0.000228856
2.69805e-11
0.000228856
-2.1159e-12
0.000228856
3.65392e-11
2.95654e-11
0.000298184
2.35567e-11
0.000298184
3.45624e-11
0.000298184
2.19043e-11
0.000298184
2.31077e-11
0.000298184
2.4387e-11
0.000298184
1.99563e-11
0.000298184
3.24394e-11
0.000298184
1.62809e-11
0.000298184
3.75056e-11
0.000298184
1.22052e-11
0.000298184
3.89451e-11
0.000298184
7.77882e-12
0.000298184
3.61158e-11
0.000298184
5.72368e-12
0.000298184
2.64212e-11
0.000298184
6.62179e-12
0.000298184
1.76051e-11
0.000298184
-1.53694e-12
0.000298184
2.05252e-11
1.35582e-11
0.000373844
8.38519e-12
0.000373844
1.30212e-11
0.000373844
9.68473e-12
0.000373844
1.08264e-11
0.000373844
1.3116e-11
0.000373844
9.35493e-12
0.000373844
1.78578e-11
0.000373844
7.32873e-12
0.000373844
2.06154e-11
0.000373844
5.18259e-12
0.000373844
2.13191e-11
0.000373844
2.99879e-12
0.000373844
1.9598e-11
0.000373844
2.26973e-12
0.000373844
1.41599e-11
0.000373844
3.04074e-12
0.000373844
9.28955e-12
0.000373844
-2.81233e-13
0.000373844
7.96267e-12
3.4569e-12
0.000455837
0.000455837
0.000455837
0.000455837
0.000455837
0.000455837
0.000455837
0.000455837
0.000455837
0.000455837
0.000455837
0.000455837
0.000455837
0.000455837
0.000455837
0.000455837
0.000455837
0.000455837
0.000455837
)
;

boundaryField
{
    top
    {
        type            calculated;
        value           uniform 0;
    }
    bottom
    {
        type            calculated;
        value           uniform 0;
    }
    inlet
    {
        type            calculated;
        value           nonuniform List<scalar> 
20
(
1.91629e-05
5.11558e-05
7.68161e-05
9.61437e-05
0.000109139
0.000115801
0.000116131
0.000110128
9.77932e-05
7.91257e-05
5.41257e-05
2.27932e-05
-1.48716e-05
-5.8869e-05
-0.000109199
-0.000165861
-0.000228856
-0.000298184
-0.000373844
-0.000455837
)
;
    }
    outlet
    {
        type            calculated;
        value           nonuniform List<scalar> 
20
(
-1.91629e-05
-5.11559e-05
-7.68161e-05
-9.61437e-05
-0.000109139
-0.000115801
-0.000116131
-0.000110128
-9.77932e-05
-7.91257e-05
-5.41257e-05
-2.27932e-05
1.48717e-05
5.88691e-05
0.000109199
0.000165861
0.000228856
0.000298184
0.000373844
0.000455837
)
;
    }
    frontAndBack
    {
        type            empty;
        value           nonuniform 0();
    }
}


// ************************************************************************* //
