/*--------------------------------*- C++ -*----------------------------------*\
| =========                 |                                                 |
| \\      /  F ield         | OpenFOAM: The Open Source CFD Toolbox           |
|  \\    /   O peration     | Version:  4.1                                   |
|   \\  /    A nd           | Web:      www.OpenFOAM.org                      |
|    \\/     M anipulation  |                                                 |
\*---------------------------------------------------------------------------*/
FoamFile
{
    version     2.0;
    format      ascii;
    class       volVectorField;
    location    "1.1";
    object      U;
}
// * * * * * * * * * * * * * * * * * * * * * * * * * * * * * * * * * * * * * //

dimensions      [0 1 -1 0 0 0 0];

internalField   nonuniform List<vector> 
400
(
(-0.383257 4.71204e-10 0)
(-0.383258 2.76731e-09 0)
(-0.383258 1.6695e-09 0)
(-0.383258 5.57094e-09 0)
(-0.383258 4.46268e-10 0)
(-0.383258 8.56767e-09 0)
(-0.383258 -5.60141e-10 0)
(-0.383258 1.03172e-08 0)
(-0.383258 -7.06068e-10 0)
(-0.383258 1.05388e-08 0)
(-0.383258 -4.24723e-10 0)
(-0.383258 9.70381e-09 0)
(-0.383258 1.41305e-11 0)
(-0.383258 7.82847e-09 0)
(-0.383258 9.39807e-10 0)
(-0.383258 5.20397e-09 0)
(-0.383258 1.24454e-09 0)
(-0.383258 3.228e-09 0)
(-0.383258 -2.9159e-11 0)
(-0.383258 2.02293e-09 0)
(-1.02312 4.03361e-09 0)
(-1.02312 1.26472e-08 0)
(-1.02312 8.8204e-09 0)
(-1.02312 2.00465e-08 0)
(-1.02312 4.00674e-09 0)
(-1.02312 2.9479e-08 0)
(-1.02312 1.05425e-09 0)
(-1.02312 3.50429e-08 0)
(-1.02312 9.27551e-10 0)
(-1.02312 3.55685e-08 0)
(-1.02312 1.9231e-09 0)
(-1.02312 3.25931e-08 0)
(-1.02312 3.15682e-09 0)
(-1.02312 2.6203e-08 0)
(-1.02312 5.58781e-09 0)
(-1.02312 1.75265e-08 0)
(-1.02312 5.83684e-09 0)
(-1.02312 1.02447e-08 0)
(-1.02312 1.113e-09 0)
(-1.02312 8.35696e-09 0)
(-1.53632 1.19543e-08 0)
(-1.53632 2.80738e-08 0)
(-1.53632 1.99391e-08 0)
(-1.53632 3.37321e-08 0)
(-1.53632 8.93676e-09 0)
(-1.53632 4.68322e-08 0)
(-1.53632 4.2243e-09 0)
(-1.53632 5.48878e-08 0)
(-1.53632 4.35701e-09 0)
(-1.53632 5.53149e-08 0)
(-1.53632 6.04594e-09 0)
(-1.53632 5.03921e-08 0)
(-1.53632 7.855e-09 0)
(-1.53632 4.02348e-08 0)
(-1.53632 1.10638e-08 0)
(-1.53632 2.68822e-08 0)
(-1.53632 1.08241e-08 0)
(-1.53632 1.40387e-08 0)
(-1.53632 3.44293e-09 0)
(-1.53632 1.7164e-08 0)
(-1.92287 2.50073e-08 0)
(-1.92287 4.98383e-08 0)
(-1.92287 3.58016e-08 0)
(-1.92287 4.95127e-08 0)
(-1.92287 1.80701e-08 0)
(-1.92287 6.48719e-08 0)
(-1.92287 1.25764e-08 0)
(-1.92287 7.45612e-08 0)
(-1.92287 1.35005e-08 0)
(-1.92287 7.44316e-08 0)
(-1.92287 1.57708e-08 0)
(-1.92287 6.72956e-08 0)
(-1.92287 1.75809e-08 0)
(-1.92287 5.33463e-08 0)
(-1.92287 2.03164e-08 0)
(-1.92287 3.57984e-08 0)
(-1.92287 1.81975e-08 0)
(-1.92287 1.65292e-08 0)
(-1.92287 9.30887e-09 0)
(-1.92287 2.86777e-08 0)
(-2.18277 4.1987e-08 0)
(-2.18277 7.60379e-08 0)
(-2.18277 5.35565e-08 0)
(-2.18277 6.63932e-08 0)
(-2.18277 2.89135e-08 0)
(-2.18277 8.31207e-08 0)
(-2.18277 2.32845e-08 0)
(-2.18277 9.38103e-08 0)
(-2.18277 2.54225e-08 0)
(-2.18277 9.27677e-08 0)
(-2.18277 2.82505e-08 0)
(-2.18277 8.32095e-08 0)
(-2.18277 2.98539e-08 0)
(-2.18277 6.54407e-08 0)
(-2.18277 3.15202e-08 0)
(-2.18277 4.41033e-08 0)
(-2.18277 2.67529e-08 0)
(-2.18277 1.81209e-08 0)
(-2.18277 1.88518e-08 0)
(-2.18277 4.25696e-08 0)
(-2.31602 6.14569e-08 0)
(-2.31602 1.04387e-07 0)
(-2.31602 7.12314e-08 0)
(-2.31602 8.23311e-08 0)
(-2.31602 4.01391e-08 0)
(-2.31602 9.92072e-08 0)
(-2.31602 3.51203e-08 0)
(-2.31602 1.10077e-07 0)
(-2.31602 3.88103e-08 0)
(-2.31602 1.07873e-07 0)
(-2.31602 4.21831e-08 0)
(-2.31602 9.59947e-08 0)
(-2.31602 4.34303e-08 0)
(-2.31602 7.4894e-08 0)
(-2.31602 4.34372e-08 0)
(-2.31602 5.07569e-08 0)
(-2.31602 3.55301e-08 0)
(-2.31602 1.85833e-08 0)
(-2.31602 3.15552e-08 0)
(-2.31602 5.80316e-08 0)
(-2.32262 8.17323e-08 0)
(-2.32262 1.32547e-07 0)
(-2.32262 8.71102e-08 0)
(-2.32262 9.5885e-08 0)
(-2.32262 5.03852e-08 0)
(-2.32262 1.11751e-07 0)
(-2.32262 4.65844e-08 0)
(-2.32262 1.21975e-07 0)
(-2.32262 5.19924e-08 0)
(-2.32262 1.18454e-07 0)
(-2.32262 5.59541e-08 0)
(-2.32262 1.04537e-07 0)
(-2.32262 5.68253e-08 0)
(-2.32262 8.08724e-08 0)
(-2.32262 5.48211e-08 0)
(-2.32262 5.51946e-08 0)
(-2.32262 4.36366e-08 0)
(-2.32262 1.78858e-08 0)
(-2.32262 4.63266e-08 0)
(-2.32262 7.39757e-08 0)
(-2.20257 1.01098e-07 0)
(-2.20257 1.58346e-07 0)
(-2.20257 1.00196e-07 0)
(-2.20257 1.06343e-07 0)
(-2.20257 5.91341e-08 0)
(-2.20257 1.202e-07 0)
(-2.20257 5.71094e-08 0)
(-2.20257 1.29049e-07 0)
(-2.20257 6.43063e-08 0)
(-2.20257 1.24153e-07 0)
(-2.20257 6.88401e-08 0)
(-2.20257 1.0859e-07 0)
(-2.20257 6.93061e-08 0)
(-2.20257 8.3278e-08 0)
(-2.20257 6.50199e-08 0)
(-2.20257 5.7382e-08 0)
(-2.20257 5.06082e-08 0)
(-2.20257 1.62278e-08 0)
(-2.20257 6.18147e-08 0)
(-2.20257 8.91071e-08 0)
(-1.95586 1.17832e-07 0)
(-1.95586 1.79709e-07 0)
(-1.95586 1.09839e-07 0)
(-1.95586 1.13306e-07 0)
(-1.95586 6.61352e-08 0)
(-1.95586 1.24391e-07 0)
(-1.95586 6.63651e-08 0)
(-1.95586 1.31302e-07 0)
(-1.95586 7.53038e-08 0)
(-1.95586 1.25074e-07 0)
(-1.95586 8.03195e-08 0)
(-1.95586 1.08329e-07 0)
(-1.95586 8.03145e-08 0)
(-1.95586 8.23561e-08 0)
(-1.95586 7.35252e-08 0)
(-1.95586 5.74925e-08 0)
(-1.95586 5.6105e-08 0)
(-1.95586 1.38558e-08 0)
(-1.95586 7.6428e-08 0)
(-1.95586 1.02011e-07 0)
(-1.58251 1.30325e-07 0)
(-1.58251 1.94773e-07 0)
(-1.58251 1.15623e-07 0)
(-1.58251 1.16568e-07 0)
(-1.58251 7.127e-08 0)
(-1.58251 1.24431e-07 0)
(-1.58251 7.41009e-08 0)
(-1.58251 1.29055e-07 0)
(-1.58251 8.45938e-08 0)
(-1.58251 1.21642e-07 0)
(-1.58251 8.99399e-08 0)
(-1.58251 1.0423e-07 0)
(-1.58251 8.93602e-08 0)
(-1.58251 7.85874e-08 0)
(-1.58251 7.99244e-08 0)
(-1.58251 5.5828e-08 0)
(-1.58251 5.98876e-08 0)
(-1.58251 1.1058e-08 0)
(-1.58251 8.85585e-08 0)
(-1.58251 1.11323e-07 0)
(-1.08251 1.37234e-07 0)
(-1.08251 2.02009e-07 0)
(-1.08251 1.17258e-07 0)
(-1.08251 1.1604e-07 0)
(-1.08251 7.43927e-08 0)
(-1.08251 1.20567e-07 0)
(-1.08251 7.99744e-08 0)
(-1.08251 1.22798e-07 0)
(-1.08251 9.16983e-08 0)
(-1.08251 1.14444e-07 0)
(-1.08251 9.71781e-08 0)
(-1.08251 9.69095e-08 0)
(-1.08251 9.59115e-08 0)
(-1.08251 7.2542e-08 0)
(-1.08251 8.38301e-08 0)
(-1.08251 5.27076e-08 0)
(-1.08251 6.17646e-08 0)
(-1.08251 8.12256e-09 0)
(-1.08251 9.67834e-08 0)
(-1.08251 1.15883e-07 0)
(-0.455865 1.37647e-07 0)
(-0.455865 2.00403e-07 0)
(-0.455865 1.14571e-07 0)
(-0.455865 1.11751e-07 0)
(-0.455865 7.53065e-08 0)
(-0.455864 1.13153e-07 0)
(-0.455865 8.35455e-08 0)
(-0.455864 1.13113e-07 0)
(-0.455865 9.60589e-08 0)
(-0.455864 1.04144e-07 0)
(-0.455865 1.01456e-07 0)
(-0.455864 8.70436e-08 0)
(-0.455865 9.94212e-08 0)
(-0.455864 6.47953e-08 0)
(-0.455865 8.49087e-08 0)
(-0.455864 4.8412e-08 0)
(-0.455865 6.15993e-08 0)
(-0.455864 5.31662e-09 0)
(-0.455865 1.00064e-07 0)
(-0.455864 1.14899e-07 0)
(0.297433 1.31233e-07 0)
(0.297433 1.89634e-07 0)
(0.297433 1.07547e-07 0)
(0.297433 1.03857e-07 0)
(0.297433 7.37916e-08 0)
(0.297433 1.02625e-07 0)
(0.297433 8.43204e-08 0)
(0.297434 1.00629e-07 0)
(0.297433 9.70963e-08 0)
(0.297434 9.14217e-08 0)
(0.297433 1.02201e-07 0)
(0.297434 7.52966e-08 0)
(0.297433 9.93904e-08 0)
(0.297434 5.58589e-08 0)
(0.297433 8.2926e-08 0)
(0.297434 4.31489e-08 0)
(0.297433 5.93222e-08 0)
(0.297434 2.85538e-09 0)
(0.297433 9.78904e-08 0)
(0.297434 1.08086e-07 0)
(1.17738 1.18339e-07 0)
(1.17738 1.70216e-07 0)
(1.17738 9.64081e-08 0)
(1.17738 9.26681e-08 0)
(1.17738 6.96426e-08 0)
(1.17738 8.94817e-08 0)
(1.17738 8.18314e-08 0)
(1.17738 8.5975e-08 0)
(1.17738 9.42974e-08 0)
(1.17738 7.69199e-08 0)
(1.17738 9.89313e-08 0)
(1.17738 6.22698e-08 0)
(1.17738 9.54437e-08 0)
(1.17738 4.61373e-08 0)
(1.17738 7.77893e-08 0)
(1.17738 3.70451e-08 0)
(1.17738 5.49423e-08 0)
(1.17738 8.63539e-10 0)
(1.17738 9.03468e-08 0)
(1.17738 9.57661e-08 0)
(2.18398 1.00044e-07 0)
(2.18398 1.43596e-07 0)
(2.18398 8.17389e-08 0)
(2.18398 7.87333e-08 0)
(2.18398 6.27978e-08 0)
(2.18398 7.43588e-08 0)
(2.18398 7.58016e-08 0)
(2.18398 6.98518e-08 0)
(2.18398 8.73845e-08 0)
(2.18398 6.13258e-08 0)
(2.18398 9.14126e-08 0)
(2.18398 4.85749e-08 0)
(2.18398 8.74646e-08 0)
(2.18398 3.60018e-08 0)
(2.18398 6.96279e-08 0)
(2.18398 3.023e-08 0)
(2.18398 4.85953e-08 0)
(2.18398 -6.16394e-10 0)
(2.18398 7.81251e-08 0)
(2.18398 7.89255e-08 0)
(3.31722 7.80677e-08 0)
(3.31723 1.12083e-07 0)
(3.31723 6.45239e-08 0)
(3.31723 6.28251e-08 0)
(3.31723 5.34102e-08 0)
(3.31723 5.8004e-08 0)
(3.31723 6.62293e-08 0)
(3.31723 5.30173e-08 0)
(3.31723 7.64025e-08 0)
(3.31723 4.53658e-08 0)
(3.31723 7.9741e-08 0)
(3.31723 3.48441e-08 0)
(3.31723 7.56621e-08 0)
(3.31723 2.58182e-08 0)
(3.31723 5.88136e-08 0)
(3.31723 2.28868e-08 0)
(3.31723 4.05619e-08 0)
(3.31723 -1.62901e-09 0)
(3.31723 6.24396e-08 0)
(3.31723 5.91927e-08 0)
(4.57712 5.47273e-08 0)
(4.57713 7.88577e-08 0)
(4.57713 4.64072e-08 0)
(4.57713 4.62899e-08 0)
(4.57713 4.22952e-08 0)
(4.57713 4.17848e-08 0)
(4.57713 5.39153e-08 0)
(4.57713 3.69039e-08 0)
(4.57713 6.22528e-08 0)
(4.57713 3.04695e-08 0)
(4.57713 6.48443e-08 0)
(4.57713 2.23686e-08 0)
(4.57713 6.09997e-08 0)
(4.57713 1.65297e-08 0)
(4.57713 4.62964e-08 0)
(4.57713 1.57054e-08 0)
(4.57713 3.15273e-08 0)
(4.57713 -2.01044e-09 0)
(4.57713 4.50395e-08 0)
(4.57713 3.88283e-08 0)
(5.96368 3.2828e-08 0)
(5.96368 4.7786e-08 0)
(5.96368 2.94982e-08 0)
(5.96368 3.07042e-08 0)
(5.96368 3.08026e-08 0)
(5.96368 2.70611e-08 0)
(5.96368 4.04738e-08 0)
(5.96368 2.27688e-08 0)
(5.96368 4.68018e-08 0)
(5.96368 1.77599e-08 0)
(5.96368 4.86663e-08 0)
(5.96368 1.20307e-08 0)
(5.96368 4.5372e-08 0)
(5.96368 8.81105e-09 0)
(5.96368 3.36132e-08 0)
(5.96368 9.39298e-09 0)
(5.96368 2.2495e-08 0)
(5.96368 -1.71942e-09 0)
(5.96368 2.80454e-08 0)
(5.96368 2.0536e-08 0)
(7.47688 1.50379e-08 0)
(7.47688 2.26277e-08 0)
(7.47688 1.56546e-08 0)
(7.47688 1.74875e-08 0)
(7.47688 1.97056e-08 0)
(7.47688 1.55892e-08 0)
(7.47688 2.65296e-08 0)
(7.47688 1.2803e-08 0)
(7.47688 3.06294e-08 0)
(7.47688 9.64989e-09 0)
(7.47688 3.17274e-08 0)
(7.47688 6.22344e-09 0)
(7.47688 2.93149e-08 0)
(7.47688 4.71137e-09 0)
(7.47688 2.14111e-08 0)
(7.47688 5.48203e-09 0)
(7.47688 1.41039e-08 0)
(7.47688 -1.94215e-10 0)
(7.47688 1.39125e-08 0)
(7.47688 7.51268e-09 0)
(9.11674 3.36896e-09 0)
(9.11674 5.2392e-09 0)
(9.11674 3.85087e-09 0)
(9.11674 4.54031e-09 0)
(9.11674 5.65242e-09 0)
(9.11674 3.88477e-09 0)
(9.11674 7.84257e-09 0)
(9.11674 2.92175e-09 0)
(9.11674 9.11204e-09 0)
(9.11674 1.9359e-09 0)
(9.11674 9.45884e-09 0)
(9.11674 9.64235e-10 0)
(9.11674 8.72418e-09 0)
(9.11674 6.83096e-10 0)
(9.11674 6.3163e-09 0)
(9.11674 1.13536e-09 0)
(9.11674 4.1047e-09 0)
(9.11674 -1.76827e-10 0)
(9.11674 3.49584e-09 0)
(9.11674 1.11417e-09 0)
)
;

boundaryField
{
    top
    {
        type            fixedValue;
        value           uniform (10 0 0);
    }
    bottom
    {
        type            fixedValue;
        value           uniform (0 0 0);
    }
    inlet
    {
        type            zeroGradient;
    }
    outlet
    {
        type            zeroGradient;
    }
    frontAndBack
    {
        type            empty;
    }
}


// ************************************************************************* //
