/*--------------------------------*- C++ -*----------------------------------*\
| =========                 |                                                 |
| \\      /  F ield         | OpenFOAM: The Open Source CFD Toolbox           |
|  \\    /   O peration     | Version:  4.1                                   |
|   \\  /    A nd           | Web:      www.OpenFOAM.org                      |
|    \\/     M anipulation  |                                                 |
\*---------------------------------------------------------------------------*/
FoamFile
{
    version     2.0;
    format      ascii;
    class       surfaceScalarField;
    location    "0.6";
    object      phi;
}
// * * * * * * * * * * * * * * * * * * * * * * * * * * * * * * * * * * * * * //

dimensions      [0 3 -1 0 0 0 0];

internalField   nonuniform List<scalar> 
760
(
-1.9157e-05
2.52145e-11
-1.9157e-05
3.22196e-12
-1.91571e-05
2.6818e-11
-1.91571e-05
-6.9664e-12
-1.91571e-05
1.68389e-11
-1.91571e-05
-1.20558e-11
-1.91571e-05
1.37739e-11
-1.91571e-05
-9.28757e-12
-1.91571e-05
9.05863e-12
-1.91571e-05
-4.66837e-12
-1.91571e-05
3.22479e-12
-1.91571e-05
1.099e-12
-1.91571e-05
-3.33847e-12
-1.91571e-05
7.094e-12
-1.91571e-05
-9.55569e-12
-1.91571e-05
1.3326e-11
-1.91571e-05
-1.68761e-11
-1.91571e-05
1.663e-11
-1.91571e-05
-2.52031e-11
3.02126e-11
-5.11385e-05
7.2516e-11
-5.11386e-05
3.70916e-11
-5.11386e-05
6.67928e-11
-5.11386e-05
-1.30424e-11
-5.11386e-05
3.10049e-11
-5.11386e-05
-2.94426e-11
-5.11386e-05
2.18431e-11
-5.11386e-05
-2.3918e-11
-5.11386e-05
1.17211e-11
-5.11386e-05
-1.37174e-11
-5.11386e-05
3.74456e-14
-5.11386e-05
-6.2856e-13
-5.11386e-05
-1.28212e-11
-5.11386e-05
1.3069e-11
-5.11386e-05
-2.53739e-11
-5.11386e-05
2.72337e-11
-5.11386e-05
-3.70109e-11
-5.11386e-05
2.47717e-11
-5.11386e-05
-4.82233e-11
7.82628e-11
-7.67878e-05
1.38183e-10
-7.67878e-05
1.06676e-10
-7.67879e-05
1.10562e-10
-7.67879e-05
-8.55937e-12
-7.67879e-05
3.89891e-11
-7.67879e-05
-4.04503e-11
-7.67879e-05
2.2936e-11
-7.67879e-05
-3.38037e-11
-7.67879e-05
8.84922e-12
-7.67879e-05
-1.99336e-11
-7.67879e-05
-6.34396e-12
-7.67879e-05
-1.75194e-12
-7.67879e-05
-2.26596e-11
-7.67879e-05
1.71428e-11
-7.67879e-05
-3.88318e-11
-7.67879e-05
3.65608e-11
-7.67879e-05
-4.99011e-11
-7.67879e-05
1.80094e-11
-7.67879e-05
-4.83501e-11
1.29896e-10
-9.6105e-05
2.21711e-10
-9.61051e-05
2.06132e-10
-9.61052e-05
1.55701e-10
-9.61052e-05
4.61987e-12
-9.61052e-05
4.28282e-11
-9.61052e-05
-4.4988e-11
-9.61052e-05
1.97689e-11
-9.61052e-05
-3.86545e-11
-9.61052e-05
2.98166e-12
-9.61052e-05
-2.29434e-11
-9.61052e-05
-1.3851e-11
-9.61052e-05
-1.85928e-12
-9.61052e-05
-3.13591e-11
-9.61052e-05
1.97572e-11
-9.61052e-05
-4.88439e-11
-9.61052e-05
4.1759e-11
-9.61052e-05
-5.58461e-11
-9.61052e-05
5.41292e-13
-9.61052e-05
-2.30743e-11
1.84949e-10
-0.000109091
3.1886e-10
-0.000109091
3.27818e-10
-0.000109091
1.98064e-10
-0.000109091
2.44076e-11
-0.000109091
4.28108e-11
-0.000109091
-4.35806e-11
-0.000109091
1.31988e-11
-0.000109091
-3.87472e-11
-0.000109091
-5.01345e-12
-0.000109091
-2.28847e-11
-0.000109091
-2.1781e-11
-0.000109091
-9.79122e-13
-0.000109091
-3.84733e-11
-0.000109091
2.10289e-11
-0.000109091
-5.52278e-11
-0.000109091
4.32031e-11
-0.000109091
-5.54824e-11
-0.000109091
-2.43658e-11
-0.000109091
2.70888e-11
2.42323e-10
-0.000115745
4.22665e-10
-0.000115745
4.6199e-10
-0.000115745
2.34166e-10
-0.000115745
4.81631e-11
-0.000115745
3.89869e-11
-0.000115745
-3.74272e-11
-0.000115745
3.72521e-12
-0.000115745
-3.50394e-11
-0.000115745
-1.46403e-11
-0.000115745
-2.05065e-11
-0.000115745
-2.97992e-11
-0.000115745
3.63281e-13
-0.000115745
-4.39045e-11
-0.000115745
2.07378e-11
-0.000115745
-5.81495e-11
-0.000115745
4.10202e-11
-0.000115745
-4.95774e-11
-0.000115745
-5.40797e-11
-0.000115745
9.81155e-11
2.99453e-10
-0.000116068
5.24482e-10
-0.000116068
5.97596e-10
-0.000116068
2.6147e-10
-0.000116068
7.34483e-11
-0.000116068
3.17168e-11
-0.000116068
-2.77e-11
-0.000116068
-7.90687e-12
-0.000116068
-2.84506e-11
-0.000116068
-2.52148e-11
-0.000116068
-1.64827e-11
-0.000116068
-3.74487e-11
-0.000116068
1.76102e-12
-0.000116068
-4.7512e-11
-0.000116068
1.88272e-11
-0.000116068
-5.78075e-11
-0.000116068
3.55243e-11
-0.000116068
-3.89964e-11
-0.000116068
-8.62059e-11
-0.000116068
1.83236e-10
3.52728e-10
-0.00011006
6.14702e-10
-0.00011006
7.22858e-10
-0.00011006
2.78273e-10
-0.00011006
9.80088e-11
-0.00011006
2.15758e-11
-0.00011006
-1.55612e-11
-0.00011006
-2.08179e-11
-0.00011006
-1.98754e-11
-0.00011006
-3.59754e-11
-0.00011006
-1.14371e-11
-0.00011006
-4.42455e-11
-0.00011006
2.8947e-12
-0.00011006
-4.91812e-11
-0.00011006
1.53692e-11
-0.00011006
-5.44754e-11
-0.00011006
2.71822e-11
-0.00011006
-2.47326e-11
-0.00011006
-1.18566e-10
-0.00011006
2.73604e-10
3.97668e-10
-9.77214e-05
6.83854e-10
-9.77215e-05
8.26181e-10
-9.77215e-05
2.83565e-10
-9.77215e-05
1.19807e-10
-9.77215e-05
9.29975e-12
-9.77215e-05
-2.14681e-12
-9.77215e-05
-3.40527e-11
-9.77215e-05
-1.01687e-11
-9.77215e-05
-4.61407e-11
-9.77215e-05
-5.92644e-12
-9.77215e-05
-4.97269e-11
-9.77215e-05
3.54981e-12
-9.77215e-05
-4.88612e-11
-9.77215e-05
1.05674e-11
-9.77215e-05
-4.85227e-11
-9.77215e-05
1.66143e-11
-9.77215e-05
-7.92994e-12
-9.77215e-05
-1.49083e-10
-9.77216e-05
3.59474e-10
4.29565e-10
-7.90521e-05
7.23698e-10
-7.90521e-05
8.9707e-10
-7.90521e-05
2.76902e-10
-7.90522e-05
1.37061e-10
-7.90521e-05
-4.26859e-12
-7.90522e-05
1.14386e-11
-7.90521e-05
-4.66476e-11
-7.90522e-05
-1.44048e-13
-7.90522e-05
-5.49725e-11
-7.90522e-05
-4.40285e-13
-7.90522e-05
-5.35038e-11
-7.90522e-05
3.61295e-12
-7.90522e-05
-4.66012e-11
-7.90521e-05
4.74518e-12
-7.90522e-05
-4.04314e-11
-7.90521e-05
4.58003e-12
-7.90522e-05
1.01161e-11
-7.90521e-05
-1.75675e-10
-7.90522e-05
4.31336e-10
4.4406e-10
-5.40521e-05
7.28366e-10
-5.40522e-05
9.27241e-10
-5.40522e-05
2.58369e-10
-5.40522e-05
1.48307e-10
-5.40521e-05
-1.82162e-11
-5.40522e-05
2.41376e-11
-5.40522e-05
-5.76877e-11
-5.40522e-05
9.43252e-12
-5.40522e-05
-6.18279e-11
-5.40522e-05
4.59837e-12
-5.40522e-05
-5.53006e-11
-5.40522e-05
3.06594e-12
-5.40522e-05
-4.25743e-11
-5.40521e-05
-1.67185e-12
-5.40522e-05
-3.08031e-11
-5.40521e-05
-8.04029e-12
-5.40522e-05
2.79866e-11
-5.40521e-05
-1.96247e-10
-5.40522e-05
4.81123e-10
4.37895e-10
-2.27216e-05
6.95301e-10
-2.27216e-05
9.11661e-10
-2.27215e-05
2.28673e-10
-2.27215e-05
1.52484e-10
-2.27215e-05
-3.15736e-11
-2.27215e-05
3.49762e-11
-2.27215e-05
-6.63468e-11
-2.27215e-05
1.78613e-11
-2.27215e-05
-6.6192e-11
-2.27215e-05
8.8406e-12
-2.27215e-05
-5.49769e-11
-2.27215e-05
1.98214e-12
-2.27215e-05
-3.70806e-11
-2.27215e-05
-8.1719e-12
-2.27215e-05
-2.03494e-11
-2.27215e-05
-2.02686e-11
-2.27215e-05
4.41987e-11
-2.27215e-05
-2.08784e-10
-2.27215e-05
5.03167e-10
4.09586e-10
1.49397e-05
6.25997e-10
1.49397e-05
8.49575e-10
1.49398e-05
1.89352e-10
1.49398e-05
1.49048e-10
1.49398e-05
-4.33112e-11
1.49398e-05
4.31125e-11
1.49398e-05
-7.19081e-11
1.49398e-05
2.45368e-11
1.49398e-05
-6.76903e-11
1.49398e-05
1.20238e-11
1.49398e-05
-5.25291e-11
1.49398e-05
5.23198e-13
1.49398e-05
-3.0534e-11
1.49398e-05
-1.41751e-11
1.49398e-05
-9.86883e-12
1.49398e-05
-3.10611e-11
1.49398e-05
5.72979e-11
1.49398e-05
-2.11583e-10
1.49398e-05
4.94917e-10
3.60042e-10
5.89317e-05
5.26186e-10
5.89318e-05
7.45113e-10
5.89319e-05
1.43088e-10
5.89319e-05
1.3808e-10
5.89319e-05
-5.23222e-11
5.89319e-05
4.78949e-11
5.89319e-05
-7.37644e-11
5.89319e-05
2.8983e-11
5.89319e-05
-6.60764e-11
5.89319e-05
1.39894e-11
5.89319e-05
-4.80688e-11
5.89319e-05
-1.0627e-12
5.89319e-05
-2.34274e-11
5.89319e-05
-1.90509e-11
5.89319e-05
-2.0729e-13
5.89319e-05
-3.93494e-11
5.89319e-05
6.59777e-11
5.89319e-05
-2.03556e-10
5.89319e-05
4.57155e-10
2.92911e-10
0.000109255
4.0585e-10
0.000109255
6.07673e-10
0.000109255
9.39355e-11
0.000109255
1.20373e-10
0.000109255
-5.74117e-11
0.000109255
4.89118e-11
0.000109255
-7.14044e-11
0.000109255
3.08858e-11
0.000109255
-6.12049e-11
0.000109255
1.46992e-11
0.000109255
-4.17857e-11
0.000109255
-2.44545e-12
0.000109255
-1.62867e-11
0.000109255
-2.21388e-11
0.000109255
7.78976e-12
0.000109255
-4.40957e-11
0.000109255
6.92162e-11
0.000109255
-1.84526e-10
0.000109255
3.93974e-10
2.14769e-10
0.000165909
2.78179e-10
0.000165909
4.51206e-10
0.000165909
4.74358e-11
0.000165909
9.7426e-11
0.000165909
-5.73133e-11
0.000165909
4.60133e-11
0.000165909
-6.44004e-11
0.000165909
3.0107e-11
0.000165909
-5.30003e-11
0.000165909
1.42365e-11
0.000165909
-3.39096e-11
0.000165909
-3.23117e-12
0.000165909
-9.62563e-12
0.000165909
-2.27769e-11
0.000165909
1.3327e-11
0.000165909
-4.43563e-11
0.000165909
6.63761e-11
0.000165909
-1.55432e-10
0.000165909
3.12071e-10
1.3467e-10
0.000228895
1.58954e-10
0.000228895
2.93738e-10
0.000228895
1.03181e-11
0.000228895
7.13981e-11
0.000228895
-5.06915e-11
0.000228895
3.94084e-11
0.000228895
-5.23247e-11
0.000228895
2.67881e-11
0.000228895
-4.13573e-11
0.000228895
1.28928e-11
0.000228895
-2.4595e-11
0.000228895
-2.9091e-12
0.000228895
-3.82936e-12
0.000228895
-2.02826e-11
0.000228895
1.57717e-11
0.000228895
-3.93259e-11
0.000228895
5.7393e-11
0.000228895
-1.18304e-10
0.000228895
2.20434e-10
6.38451e-11
0.000298212
6.40228e-11
0.000298212
1.53361e-10
0.000298212
-1.05856e-11
0.000298212
4.41687e-11
0.000298212
-3.68472e-11
0.000298212
2.8882e-11
0.000298212
-3.54052e-11
0.000298212
2.05935e-11
0.000298212
-2.67956e-11
0.000298212
1.04717e-11
0.000298212
-1.45348e-11
0.000298212
-1.44592e-12
0.000298212
3.17222e-13
0.000298212
-1.44146e-11
0.000298212
1.42715e-11
0.000298212
-2.86654e-11
0.000298212
4.20888e-11
0.000298212
-7.57141e-11
0.000298212
1.28345e-10
1.3706e-11
0.000373861
9.14261e-12
0.000373861
4.92794e-11
0.000373861
-9.39596e-12
0.000373861
1.78634e-11
0.000373861
-1.49288e-11
0.000373861
1.4982e-11
0.000373861
-1.34669e-11
0.000373861
1.19313e-11
0.000373861
-9.359e-12
0.000373861
7.37091e-12
0.000373861
-3.90561e-12
0.000373861
1.59145e-12
0.000373861
2.58367e-12
0.000373861
-4.73235e-12
0.000373861
8.49794e-12
0.000373861
-1.19707e-11
0.000373861
2.1054e-11
0.000373861
-3.06414e-11
0.000373861
4.6811e-11
-3.96985e-12
0.000455843
0.000455843
0.000455843
0.000455843
0.000455843
0.000455843
0.000455843
0.000455843
0.000455843
0.000455843
0.000455843
0.000455843
0.000455843
0.000455843
0.000455843
0.000455843
0.000455843
0.000455843
0.000455843
)
;

boundaryField
{
    top
    {
        type            calculated;
        value           uniform 0;
    }
    bottom
    {
        type            calculated;
        value           uniform 0;
    }
    inlet
    {
        type            calculated;
        value           nonuniform List<scalar> 
20
(
1.9157e-05
5.11385e-05
7.67877e-05
9.61049e-05
0.00010909
0.000115745
0.000116068
0.00011006
9.77213e-05
7.9052e-05
5.40521e-05
2.27216e-05
-1.49396e-05
-5.89316e-05
-0.000109255
-0.000165909
-0.000228894
-0.000298212
-0.000373861
-0.000455843
)
;
    }
    outlet
    {
        type            calculated;
        value           nonuniform List<scalar> 
20
(
-1.91571e-05
-5.11387e-05
-7.67879e-05
-9.61052e-05
-0.000109091
-0.000115745
-0.000116068
-0.00011006
-9.77216e-05
-7.90522e-05
-5.40522e-05
-2.27215e-05
1.49399e-05
5.8932e-05
0.000109255
0.000165909
0.000228895
0.000298212
0.000373861
0.000455843
)
;
    }
    frontAndBack
    {
        type            empty;
        value           nonuniform 0();
    }
}


// ************************************************************************* //
