/*--------------------------------*- C++ -*----------------------------------*\
| =========                 |                                                 |
| \\      /  F ield         | OpenFOAM: The Open Source CFD Toolbox           |
|  \\    /   O peration     | Version:  4.1                                   |
|   \\  /    A nd           | Web:      www.OpenFOAM.org                      |
|    \\/     M anipulation  |                                                 |
\*---------------------------------------------------------------------------*/
FoamFile
{
    version     2.0;
    format      ascii;
    class       volVectorField;
    location    "0.6";
    object      U;
}
// * * * * * * * * * * * * * * * * * * * * * * * * * * * * * * * * * * * * * //

dimensions      [0 1 -1 0 0 0 0];

internalField   nonuniform List<vector> 
400
(
(-0.383141 8.84836e-09 0)
(-0.383141 -1.34424e-09 0)
(-0.383141 1.08175e-08 0)
(-0.383141 -7.00645e-09 0)
(-0.383142 6.00528e-09 0)
(-0.383141 -8.47507e-09 0)
(-0.383142 4.29827e-09 0)
(-0.383141 -7.11243e-09 0)
(-0.383142 2.17238e-09 0)
(-0.383141 -4.66242e-09 0)
(-0.383142 -3.77849e-10 0)
(-0.383141 -1.53854e-09 0)
(-0.383142 -3.19354e-09 0)
(-0.383141 1.85691e-09 0)
(-0.383142 -6.05044e-09 0)
(-0.383141 5.28521e-09 0)
(-0.383142 -8.57192e-09 0)
(-0.383141 7.0864e-09 0)
(-0.383141 -1.37631e-08 0)
(-0.383141 1.44736e-08 0)
(-1.02277 4.52063e-08 0)
(-1.02277 1.24398e-08 0)
(-1.02277 4.51683e-08 0)
(-1.02277 -9.23266e-09 0)
(-1.02277 2.59543e-08 0)
(-1.02277 -1.95552e-08 0)
(-1.02277 2.04256e-08 0)
(-1.02277 -1.52476e-08 0)
(-1.02277 1.27874e-08 0)
(-1.02277 -7.57663e-09 0)
(-1.02277 3.55706e-09 0)
(-1.02277 1.88682e-09 0)
(-1.02277 -6.80332e-09 0)
(-1.02277 1.16624e-08 0)
(-1.02277 -1.67049e-08 0)
(-1.02277 2.20569e-08 0)
(-1.02277 -2.79434e-08 0)
(-1.02277 2.46178e-08 0)
(-1.02277 -4.01797e-08 0)
(-1.02277 5.16551e-08 0)
(-1.53575 9.89207e-08 0)
(-1.53576 6.40069e-08 0)
(-1.53576 8.57787e-08 0)
(-1.53576 -1.51601e-08 0)
(-1.53576 3.35475e-08 0)
(-1.53576 -3.80337e-08 0)
(-1.53576 2.09166e-08 0)
(-1.53576 -3.18918e-08 0)
(-1.53576 8.8181e-09 0)
(-1.53576 -1.9368e-08 0)
(-1.53576 -4.59927e-09 0)
(-1.53576 -3.20482e-09 0)
(-1.53576 -1.9157e-08 0)
(-1.53576 1.37647e-08 0)
(-1.53576 -3.36003e-08 0)
(-1.53576 3.12281e-08 0)
(-1.53576 -4.47047e-08 0)
(-1.53576 2.21541e-08 0)
(-1.53576 -5.31935e-08 0)
(-1.53576 1.02178e-07 0)
(-1.9221 1.7629e-07 0)
(-1.9221 1.50586e-07 0)
(-1.9221 1.33506e-07 0)
(-1.9221 -3.16173e-09 0)
(-1.9221 4.26696e-08 0)
(-1.9221 -4.34329e-08 0)
(-1.92211 2.31348e-08 0)
(-1.9221 -3.66133e-08 0)
(-1.92211 7.38699e-09 0)
(-1.9221 -2.14339e-08 0)
(-1.92211 -9.14019e-09 0)
(-1.9221 -1.38144e-09 0)
(-1.92211 -2.67046e-08 0)
(-1.9221 1.9337e-08 0)
(-1.92211 -4.42262e-08 0)
(-1.9221 4.05896e-08 0)
(-1.92211 -5.41657e-08 0)
(-1.9221 1.16752e-08 0)
(-1.9221 -4.14185e-08 0)
(-1.9221 1.56901e-07 0)
(-2.18181 2.67963e-07 0)
(-2.18181 2.63388e-07 0)
(-2.18182 1.78301e-07 0)
(-2.18181 1.32483e-08 0)
(-2.18182 4.4259e-08 0)
(-2.18181 -4.53581e-08 0)
(-2.18182 1.77359e-08 0)
(-2.18181 -3.94979e-08 0)
(-2.18182 -7.28407e-11 0)
(-2.18181 -2.33622e-08 0)
(-2.18182 -1.73215e-08 0)
(-2.18181 -1.41892e-09 0)
(-2.18182 -3.49554e-08 0)
(-2.18181 2.09127e-08 0)
(-2.18182 -5.2662e-08 0)
(-2.18181 4.35183e-08 0)
(-2.18182 -5.68092e-08 0)
(-2.18181 -1.06291e-08 0)
(-2.18182 -3.21211e-09 0)
(-2.18182 2.13814e-07 0)
(-2.31489 3.70319e-07 0)
(-2.3149 3.93836e-07 0)
(-2.3149 2.18262e-07 0)
(-2.3149 3.55652e-08 0)
(-2.3149 4.22743e-08 0)
(-2.3149 -4.12984e-08 0)
(-2.3149 9.56308e-09 0)
(-2.3149 -3.74888e-08 0)
(-2.3149 -9.01838e-09 0)
(-2.3149 -2.1983e-08 0)
(-2.31491 -2.53738e-08 0)
(-2.3149 -2.03642e-10 0)
(-2.31491 -4.12308e-08 0)
(-2.3149 2.14136e-08 0)
(-2.3149 -5.72277e-08 0)
(-2.3149 4.30448e-08 0)
(-2.3149 -5.34173e-08 0)
(-2.3149 -3.85826e-08 0)
(-2.3149 5.87712e-08 0)
(-2.3149 2.71801e-07 0)
(-2.32136 4.75316e-07 0)
(-2.32136 5.31375e-07 0)
(-2.32136 2.50496e-07 0)
(-2.32136 6.05703e-08 0)
(-2.32136 3.66009e-08 0)
(-2.32136 -3.31089e-08 0)
(-2.32137 -1.18871e-09 0)
(-2.32136 -3.21483e-08 0)
(-2.32137 -1.92979e-08 0)
(-2.32136 -1.86432e-08 0)
(-2.32137 -3.33266e-08 0)
(-2.32136 1.24104e-09 0)
(-2.32137 -4.5784e-08 0)
(-2.32136 2.03021e-08 0)
(-2.32137 -5.84529e-08 0)
(-2.32136 3.90813e-08 0)
(-2.32137 -4.49338e-08 0)
(-2.32136 -6.99933e-08 0)
(-2.32136 1.38724e-07 0)
(-2.32136 3.27989e-07 0)
(-2.2012 5.73634e-07 0)
(-2.2012 6.64475e-07 0)
(-2.2012 2.72936e-07 0)
(-2.2012 8.5962e-08 0)
(-2.20121 2.77291e-08 0)
(-2.2012 -2.19138e-08 0)
(-2.20121 -1.36817e-08 0)
(-2.2012 -2.43598e-08 0)
(-2.20121 -3.01607e-08 0)
(-2.2012 -1.3959e-08 0)
(-2.20121 -4.06785e-08 0)
(-2.2012 2.58582e-09 0)
(-2.20121 -4.84608e-08 0)
(-2.2012 1.76028e-08 0)
(-2.20121 -5.65484e-08 0)
(-2.2012 3.20276e-08 0)
(-2.20121 -3.22663e-08 0)
(-2.2012 -1.02618e-07 0)
(-2.20121 2.28628e-07 0)
(-2.20121 3.78214e-07 0)
(-1.95443 6.55464e-07 0)
(-1.95443 7.81256e-07 0)
(-1.95443 2.84239e-07 0)
(-1.95443 1.09608e-07 0)
(-1.95443 1.63128e-08 0)
(-1.95443 -8.85455e-09 0)
(-1.95443 -2.69967e-08 0)
(-1.95443 -1.49945e-08 0)
(-1.95444 -4.08288e-08 0)
(-1.95442 -8.52257e-09 0)
(-1.95444 -4.69472e-08 0)
(-1.95442 3.55272e-09 0)
(-1.95444 -4.91657e-08 0)
(-1.95442 1.34422e-08 0)
(-1.95444 -5.18204e-08 0)
(-1.95443 2.2413e-08 0)
(-1.95443 -1.64676e-08 0)
(-1.95443 -1.3439e-07 0)
(-1.95443 3.18948e-07 0)
(-1.95443 4.17701e-07 0)
(-1.58104 7.11683e-07 0)
(-1.58104 8.70444e-07 0)
(-1.58104 2.83681e-07 0)
(-1.58104 1.29583e-07 0)
(-1.58105 3.14772e-09 0)
(-1.58104 4.93453e-09 0)
(-1.58105 -4.01656e-08 0)
(-1.58104 -4.90148e-09 0)
(-1.58105 -5.05335e-08 0)
(-1.58104 -2.87118e-09 0)
(-1.58105 -5.16982e-08 0)
(-1.58104 3.96857e-09 0)
(-1.58105 -4.7891e-08 0)
(-1.58104 8.07538e-09 0)
(-1.58105 -4.46896e-08 0)
(-1.58104 1.09251e-08 0)
(-1.58105 1.23289e-09 0)
(-1.58104 -1.63274e-07 0)
(-1.58105 3.99785e-07 0)
(-1.58104 4.41747e-07 0)
(-1.08104 7.34995e-07 0)
(-1.08104 9.22413e-07 0)
(-1.08104 2.71067e-07 0)
(-1.08104 1.44235e-07 0)
(-1.08105 -1.08756e-08 0)
(-1.08104 1.83566e-08 0)
(-1.08105 -5.22329e-08 0)
(-1.08104 5.11602e-09 0)
(-1.08105 -5.85686e-08 0)
(-1.08104 2.52773e-09 0)
(-1.08105 -5.45868e-08 0)
(-1.08104 3.75959e-09 0)
(-1.08105 -4.47397e-08 0)
(-1.08104 1.87385e-09 0)
(-1.08105 -3.56972e-08 0)
(-1.08104 -1.61104e-09 0)
(-1.08105 1.9465e-08 0)
(-1.08104 -1.87196e-07 0)
(-1.08105 4.62106e-07 0)
(-1.08104 4.46382e-07 0)
(-0.454432 7.20991e-07 0)
(-0.45443 9.3028e-07 0)
(-0.454432 2.46745e-07 0)
(-0.454428 1.52267e-07 0)
(-0.454434 -2.48077e-08 0)
(-0.454426 3.03776e-08 0)
(-0.454435 -6.23153e-08 0)
(-0.454425 1.43115e-08 0)
(-0.454436 -6.43427e-08 0)
(-0.454424 7.27726e-09 0)
(-0.454437 -5.53954e-08 0)
(-0.454424 2.9472e-09 0)
(-0.454437 -3.9944e-08 0)
(-0.454424 -4.69535e-09 0)
(-0.454436 -2.55012e-08 0)
(-0.454425 -1.42591e-08 0)
(-0.454435 3.67625e-08 0)
(-0.454427 -2.04085e-07 0)
(-0.454433 4.98862e-07 0)
(-0.45443 4.29092e-07 0)
(0.298792 6.69015e-07 0)
(0.298795 8.90972e-07 0)
(0.298794 2.11761e-07 0)
(0.298798 1.52834e-07 0)
(0.298793 -3.76452e-08 0)
(0.2988 4.00713e-08 0)
(0.298791 -6.96321e-08 0)
(0.298801 2.20182e-08 0)
(0.298791 -6.74031e-08 0)
(0.298802 1.10616e-08 0)
(0.29879 -5.40475e-08 0)
(0.298802 1.64395e-09 0)
(0.29879 -3.38598e-08 0)
(0.298802 -1.10859e-08 0)
(0.298791 -1.48628e-08 0)
(0.298801 -2.59969e-08 0)
(0.298792 5.16395e-08 0)
(0.298799 -2.12035e-07 0)
(0.298794 5.05848e-07 0)
(0.298798 3.89489e-07 0)
(1.17863 5.82664e-07 0)
(1.17864 8.06084e-07 0)
(1.17864 1.68154e-07 0)
(1.17864 1.45666e-07 0)
(1.17864 -4.83145e-08 0)
(1.17864 4.66835e-08 0)
(1.17863 -7.35086e-08 0)
(1.17864 2.76925e-08 0)
(1.17863 -6.74294e-08 0)
(1.17864 1.36704e-08 0)
(1.17863 -5.05905e-08 0)
(1.17864 5.83288e-11 0)
(1.17863 -2.69383e-08 0)
(1.17864 -1.6685e-08 0)
(1.17863 -4.60407e-09 0)
(1.17864 -3.57546e-08 0)
(1.17863 6.27036e-08 0)
(1.17864 -2.09583e-07 0)
(1.17864 4.8219e-07 0)
(1.17864 3.29816e-07 0)
(2.18509 4.69872e-07 0)
(2.1851 6.82426e-07 0)
(2.1851 1.19234e-07 0)
(2.1851 1.31188e-07 0)
(2.1851 -5.56778e-08 0)
(2.1851 4.96867e-08 0)
(2.1851 -7.33963e-08 0)
(2.1851 3.09428e-08 0)
(2.1851 -6.42354e-08 0)
(2.1851 1.50076e-08 0)
(2.18509 -4.51813e-08 0)
(2.1851 -1.5191e-09 0)
(2.1851 -1.96912e-08 0)
(2.1851 -2.08482e-08 0)
(2.1851 4.43031e-09 0)
(2.1851 -4.24871e-08 0)
(2.1851 6.8798e-08 0)
(2.1851 -1.96062e-07 0)
(2.1851 4.30451e-07 0)
(2.1851 2.55214e-07 0)
(3.31818 3.42337e-07 0)
(3.31818 5.31693e-07 0)
(3.31818 6.97419e-08 0)
(3.31819 1.10509e-07 0)
(3.31818 -5.85461e-08 0)
(3.31819 4.87567e-08 0)
(3.31818 -6.88753e-08 0)
(3.31819 3.1499e-08 0)
(3.31818 -5.77426e-08 0)
(3.31819 1.5056e-08 0)
(3.31818 -3.80692e-08 0)
(3.31819 -2.76102e-09 0)
(3.31818 -1.26698e-08 0)
(3.31819 -2.29302e-08 0)
(3.31818 1.13969e-08 0)
(3.31819 -4.52237e-08 0)
(3.31818 6.90617e-08 0)
(3.31819 -1.71801e-07 0)
(3.31818 3.56125e-07 0)
(3.31819 1.73546e-07 0)
(4.57789 2.14392e-07 0)
(4.57789 3.71048e-07 0)
(4.57789 2.64422e-08 0)
(4.5779 8.60023e-08 0)
(4.57789 -5.49057e-08 0)
(4.5779 4.4623e-08 0)
(4.57789 -5.87415e-08 0)
(4.5779 3.00845e-08 0)
(4.57789 -4.71415e-08 0)
(4.5779 1.46899e-08 0)
(4.57789 -2.87458e-08 0)
(4.5779 -2.60543e-09 0)
(4.57789 -5.74726e-09 0)
(4.5779 -2.17852e-08 0)
(4.57789 1.59744e-08 0)
(4.5779 -4.27284e-08 0)
(4.57789 6.37911e-08 0)
(4.5779 -1.38489e-07 0)
(4.57789 2.67413e-07 0)
(4.5779 9.55711e-08 0)
(5.96424 1.04766e-07 0)
(5.96424 2.12745e-07 0)
(5.96424 -5.81017e-09 0)
(5.96424 5.57071e-08 0)
(5.96424 -4.67906e-08 0)
(5.96424 3.23662e-08 0)
(5.96424 -4.65441e-08 0)
(5.96424 2.17576e-08 0)
(5.96424 -3.65952e-08 0)
(5.96424 9.64311e-09 0)
(5.96424 -2.14802e-08 0)
(5.96424 -4.23562e-09 0)
(5.96424 -3.08729e-09 0)
(5.96424 -1.94713e-08 0)
(5.96424 1.4421e-08 0)
(5.96424 -3.56841e-08 0)
(5.96424 4.82545e-08 0)
(5.96424 -9.60694e-08 0)
(5.96424 1.70498e-07 0)
(5.96424 3.1841e-08 0)
(7.47722 2.59256e-08 0)
(7.47723 9.64295e-08 0)
(7.47723 -1.3599e-08 0)
(7.47723 3.18865e-08 0)
(7.47723 -2.5186e-08 0)
(7.47723 2.44819e-08 0)
(7.47723 -2.28849e-08 0)
(7.47723 1.87852e-08 0)
(7.47723 -1.62096e-08 0)
(7.47723 1.10175e-08 0)
(7.47723 -7.09374e-09 0)
(7.47723 1.5447e-09 0)
(7.47723 3.63512e-09 0)
(7.47723 -8.79574e-09 0)
(7.47723 1.33037e-08 0)
(7.47723 -2.01642e-08 0)
(7.47723 3.46518e-08 0)
(7.47723 -5.4442e-08 0)
(7.47723 8.58613e-08 0)
(7.47723 -2.46655e-10 0)
(9.11686 2.89249e-09 0)
(9.11686 1.59842e-08 0)
(9.11686 -8.09776e-09 0)
(9.11686 6.7263e-09 0)
(9.11686 -9.65988e-09 0)
(9.11686 4.99093e-09 0)
(9.11686 -8.86484e-09 0)
(9.11686 3.39207e-09 0)
(9.11686 -6.84542e-09 0)
(9.11686 1.25756e-09 0)
(9.11686 -3.95142e-09 0)
(9.11686 -1.31126e-09 0)
(9.11686 -4.80786e-10 0)
(9.11686 -4.09803e-09 0)
(9.11686 3.01745e-09 0)
(9.11686 -7.06599e-09 0)
(9.11686 7.60631e-09 0)
(9.11686 -1.28065e-08 0)
(9.11686 2.0005e-08 0)
(9.11686 -6.27321e-09 0)
)
;

boundaryField
{
    top
    {
        type            fixedValue;
        value           uniform (10 0 0);
    }
    bottom
    {
        type            fixedValue;
        value           uniform (0 0 0);
    }
    inlet
    {
        type            zeroGradient;
    }
    outlet
    {
        type            zeroGradient;
    }
    frontAndBack
    {
        type            empty;
    }
}


// ************************************************************************* //
