/*--------------------------------*- C++ -*----------------------------------*\
| =========                 |                                                 |
| \\      /  F ield         | OpenFOAM: The Open Source CFD Toolbox           |
|  \\    /   O peration     | Version:  4.1                                   |
|   \\  /    A nd           | Web:      www.OpenFOAM.org                      |
|    \\/     M anipulation  |                                                 |
\*---------------------------------------------------------------------------*/
FoamFile
{
    version     2.0;
    format      ascii;
    class       surfaceScalarField;
    location    "1.6";
    object      phi;
}
// * * * * * * * * * * * * * * * * * * * * * * * * * * * * * * * * * * * * * //

dimensions      [0 3 -1 0 0 0 0];

internalField   nonuniform List<scalar> 
760
(
-1.91639e-05
1.60192e-12
-1.91639e-05
5.10239e-14
-1.91639e-05
5.97253e-12
-1.91639e-05
-3.43667e-12
-1.91639e-05
8.31626e-12
-1.91639e-05
-4.96075e-12
-1.91639e-05
9.61357e-12
-1.91639e-05
-5.8219e-12
-1.91639e-05
1.00357e-11
-1.91639e-05
-6.0002e-12
-1.91639e-05
9.36538e-12
-1.91639e-05
-5.38923e-12
-1.91639e-05
7.67608e-12
-1.91639e-05
-4.12831e-12
-1.91639e-05
5.27936e-12
-1.91639e-05
-2.46853e-12
-1.91639e-05
2.36011e-12
-1.91639e-05
-8.1866e-14
-1.91639e-05
-1.45785e-12
1.73364e-12
-5.11588e-05
2.3257e-12
-5.11588e-05
-3.35072e-12
-5.11588e-05
7.94364e-12
-5.11588e-05
-1.35634e-11
-5.11588e-05
9.08529e-12
-5.11588e-05
-1.81255e-11
-5.11588e-05
9.51254e-12
-5.11588e-05
-2.03011e-11
-5.11588e-05
9.24868e-12
-5.11588e-05
-2.02158e-11
-5.11588e-05
7.81057e-12
-5.11588e-05
-1.78525e-11
-5.11588e-05
5.31234e-12
-5.11588e-05
-1.3706e-11
-5.11588e-05
2.23422e-12
-5.11588e-05
-8.43421e-12
-5.11588e-05
-1.30684e-12
-5.11588e-05
-2.03331e-12
-5.11588e-05
-5.39894e-12
3.43238e-12
-7.68209e-05
3.39286e-12
-7.68209e-05
-6.71032e-12
-7.68209e-05
9.14617e-12
-7.68209e-05
-2.38744e-11
-7.68209e-05
7.78207e-12
-7.68209e-05
-3.12003e-11
-7.68209e-05
6.66085e-12
-7.68209e-05
-3.43158e-11
-7.68209e-05
5.34154e-12
-7.68209e-05
-3.36211e-11
-7.68209e-05
3.0822e-12
-7.68209e-05
-2.92875e-11
-7.68209e-05
5.03664e-14
-7.68209e-05
-2.22014e-11
-7.68209e-05
-3.15474e-12
-7.68209e-05
-1.33967e-11
-7.68209e-05
-6.53644e-12
-7.68209e-05
-3.53529e-12
-7.68209e-05
-9.2876e-12
5.6648e-12
-9.61502e-05
5.36308e-12
-9.61502e-05
-8.33215e-12
-9.61502e-05
1.06172e-11
-9.61502e-05
-3.18553e-11
-9.61502e-05
6.23997e-12
-9.61502e-05
-4.13242e-11
-9.61502e-05
3.36231e-12
-9.61502e-05
-4.49987e-11
-9.61502e-05
8.4727e-13
-9.61502e-05
-4.36395e-11
-9.61502e-05
-2.27065e-12
-9.61502e-05
-3.76338e-11
-9.61502e-05
-5.75666e-12
-9.61502e-05
-2.82024e-11
-9.61502e-05
-8.91574e-12
-9.61502e-05
-1.66684e-11
-9.61502e-05
-1.18689e-11
-9.61502e-05
-4.45669e-12
-9.61502e-05
-1.24619e-11
8.23165e-12
-0.000109147
8.10312e-12
-0.000109147
-8.45419e-12
-0.000109147
1.24273e-11
-0.000109147
-3.75056e-11
-0.000109147
4.90398e-12
-0.000109147
-4.83772e-11
-0.000109147
2.58947e-13
-0.000109147
-5.21853e-11
-0.000109147
-3.48419e-12
-0.000109147
-5.00906e-11
-0.000109147
-7.4718e-12
-0.000109147
-4.27047e-11
-0.000109147
-1.13843e-11
-0.000109147
-3.15296e-11
-0.000109147
-1.44434e-11
-0.000109147
-1.80817e-11
-0.000109147
-1.68832e-11
-0.000109147
-4.55725e-12
-0.000109147
-1.46889e-11
1.11614e-11
-0.000115811
1.1279e-11
-0.000115811
-7.53957e-12
-0.000115811
1.40604e-11
-0.000115811
-4.11847e-11
-0.000115811
3.28736e-12
-0.000115811
-5.2792e-11
-0.000115811
-3.15049e-12
-0.000115811
-5.63779e-11
-0.000115811
-8.13656e-12
-0.000115811
-5.35062e-11
-0.000115811
-1.29442e-11
-0.000115811
-4.5018e-11
-0.000115811
-1.71605e-11
-0.000115811
-3.2643e-11
-0.000115811
-1.9954e-11
-0.000115811
-1.79988e-11
-0.000115811
-2.1683e-11
-0.000115811
-4.03165e-12
-0.000115811
-1.60239e-11
1.42032e-11
-0.000116142
1.45546e-11
-0.000116142
-6.06212e-12
-0.000116142
1.52075e-11
-0.000116142
-4.32495e-11
-0.000116142
1.21762e-12
-0.000116142
-5.50108e-11
-0.000116142
-6.98249e-12
-0.000116142
-5.80922e-11
-0.000116142
-1.31754e-11
-0.000116142
-5.44324e-11
-0.000116142
-1.87021e-11
-0.000116142
-4.50984e-11
-0.000116142
-2.3056e-11
-0.000116142
-3.19982e-11
-0.000116142
-2.53898e-11
-0.000116142
-1.67641e-11
-0.000116142
-2.61997e-11
-0.000116142
-3.05047e-12
-0.000116142
-1.65525e-11
1.71125e-11
-0.00011014
1.76163e-11
-0.00011014
-4.43262e-12
-0.00011014
1.56962e-11
-0.00011014
-4.39656e-11
-0.00011014
-1.30413e-12
-0.00011014
-5.53848e-11
-0.00011014
-1.11556e-11
-0.00011014
-5.77562e-11
-0.00011014
-1.84607e-11
-0.00011014
-5.33375e-11
-0.00011014
-2.45655e-11
-0.00011014
-4.34085e-11
-0.00011014
-2.88762e-11
-0.00011014
-3.00032e-11
-0.00011014
-3.05712e-11
-0.00011014
-1.46897e-11
-0.00011014
-3.02907e-11
-0.00011014
-1.78147e-12
-0.00011014
-1.64039e-11
1.96214e-11
-9.78053e-05
2.0188e-11
-9.78053e-05
-2.97746e-12
-9.78053e-05
1.5471e-11
-9.78053e-05
-4.35163e-11
-9.78053e-05
-4.13782e-12
-9.78053e-05
-5.41779e-11
-9.78054e-05
-1.54356e-11
-9.78053e-05
-5.57077e-11
-9.78054e-05
-2.36971e-11
-9.78053e-05
-5.06051e-11
-9.78054e-05
-3.02116e-11
-9.78053e-05
-4.0336e-11
-9.78054e-05
-3.43092e-11
-9.78053e-05
-2.7005e-11
-9.78054e-05
-3.5235e-11
-9.78053e-05
-1.20472e-11
-9.78053e-05
-3.37656e-11
-9.78053e-05
-3.77996e-13
-9.78053e-05
-1.57329e-11
2.14755e-11
-7.91381e-05
2.20376e-11
-7.91381e-05
-1.93576e-12
-7.91381e-05
1.45539e-11
-7.91381e-05
-4.20384e-11
-7.91381e-05
-7.06877e-12
-7.91381e-05
-5.16077e-11
-7.91381e-05
-1.95154e-11
-7.91381e-05
-5.22366e-11
-7.91381e-05
-2.85212e-11
-7.91381e-05
-4.65718e-11
-7.91381e-05
-3.52597e-11
-7.91381e-05
-3.62251e-11
-7.91381e-05
-3.90011e-11
-7.91381e-05
-2.33137e-11
-7.91381e-05
-3.90935e-11
-7.91381e-05
-9.08254e-12
-7.91381e-05
-3.6426e-11
-7.91381e-05
1.0216e-12
-7.91381e-05
-1.47091e-11
2.24585e-11
-5.41381e-05
2.29868e-11
-5.41381e-05
-1.45728e-12
-5.41381e-05
1.30128e-11
-5.41381e-05
-3.96589e-11
-5.41381e-05
-9.86249e-12
-5.41381e-05
-4.78872e-11
-5.41381e-05
-2.30814e-11
-5.41381e-05
-4.76272e-11
-5.41381e-05
-3.25726e-11
-5.41381e-05
-4.15657e-11
-5.41381e-05
-3.93414e-11
-5.41381e-05
-3.14085e-11
-5.41381e-05
-4.26178e-11
-5.41381e-05
-1.92258e-11
-5.41381e-05
-4.18831e-11
-5.41381e-05
-6.03078e-12
-5.41381e-05
-3.80981e-11
-5.41381e-05
2.2939e-12
-5.41381e-05
-1.34986e-11
2.24205e-11
-2.28054e-05
2.29237e-11
-2.28053e-05
-1.59657e-12
-2.28054e-05
1.09515e-11
-2.28053e-05
-3.65121e-11
-2.28054e-05
-1.22925e-11
-2.28053e-05
-4.32424e-11
-2.28054e-05
-2.58476e-11
-2.28053e-05
-4.21736e-11
-2.28054e-05
-3.55297e-11
-2.28053e-05
-3.59184e-11
-2.28054e-05
-4.21338e-11
-2.28053e-05
-2.62152e-11
-2.28054e-05
-4.48744e-11
-2.28053e-05
-1.50278e-11
-2.28053e-05
-4.33857e-11
-2.28053e-05
-3.11601e-12
-2.28053e-05
-3.86473e-11
-2.28053e-05
3.33678e-12
-2.28053e-05
-1.22435e-11
2.13012e-11
1.48601e-05
2.18167e-11
1.48602e-05
-2.30251e-12
1.48602e-05
8.5148e-12
1.48602e-05
-3.27377e-11
1.48602e-05
-1.41449e-11
1.48602e-05
-3.79059e-11
1.48601e-05
-2.7559e-11
1.48602e-05
-3.61687e-11
1.48601e-05
-3.71119e-11
1.48602e-05
-2.99496e-11
1.48602e-05
-4.33619e-11
1.48602e-05
-2.09522e-11
1.48602e-05
-4.55352e-11
1.48602e-05
-1.09789e-11
1.48602e-05
-4.34265e-11
1.48602e-05
-5.35075e-13
1.48602e-05
-3.79763e-11
1.48602e-05
4.08072e-12
1.48602e-05
-1.10369e-11
1.91494e-11
5.88584e-05
1.97218e-11
5.88584e-05
-3.41167e-12
5.88584e-05
5.9059e-12
5.88584e-05
-2.84574e-11
5.88584e-05
-1.52029e-11
5.88584e-05
-3.20833e-11
5.88584e-05
-2.79692e-11
5.88584e-05
-2.98617e-11
5.88584e-05
-3.70535e-11
5.88584e-05
-2.39204e-11
5.88584e-05
-4.27696e-11
5.88584e-05
-1.58589e-11
5.88584e-05
-4.43851e-11
5.88584e-05
-7.26993e-12
5.88584e-05
-4.18484e-11
5.88584e-05
1.57669e-12
5.88584e-05
-3.60039e-11
5.88584e-05
4.50628e-12
5.88584e-05
-9.89871e-12
1.61358e-11
0.000109189
1.67911e-11
0.000109189
-4.6415e-12
0.000109189
3.39961e-12
0.000109189
-2.37438e-11
0.000109189
-1.52281e-11
0.000109189
-2.59098e-11
0.000109189
-2.68131e-11
0.000109189
-2.34048e-11
0.000109189
-3.50708e-11
0.000109189
-1.79752e-11
0.000109189
-4.00845e-11
0.000109189
-1.10506e-11
0.000109189
-4.11949e-11
0.000109189
-3.97426e-12
0.000109189
-3.84794e-11
0.000109189
3.18442e-12
0.000109189
-3.26404e-11
0.000109189
4.66036e-12
0.000109189
-8.75201e-12
1.25601e-11
0.000165853
1.32511e-11
0.000165853
-5.60816e-12
0.000165853
1.33757e-12
0.000165853
-1.85992e-11
0.000165853
-1.396e-11
0.000165853
-1.9423e-11
0.000165853
-2.38027e-11
0.000165853
-1.68225e-11
0.000165853
-3.08556e-11
0.000165853
-1.21121e-11
0.000165853
-3.5013e-11
0.000165853
-6.49252e-12
0.000165853
-3.57141e-11
0.000165853
-1.02775e-12
0.000165853
-3.31223e-11
0.000165853
4.36807e-12
0.000165853
-2.77718e-11
0.000165853
4.6512e-12
0.000165853
-7.4232e-12
8.83437e-12
0.00022885
9.51378e-12
0.00022885
-5.78352e-12
0.00022885
2.00614e-13
0.00022885
-1.28111e-11
0.00022885
-1.1024e-11
0.00022885
-1.23584e-11
0.00022885
-1.85401e-11
0.00022885
-9.77017e-12
0.00022885
-2.40061e-11
0.00022885
-5.9284e-12
0.00022885
-2.71894e-11
0.00022885
-1.75851e-12
0.00022885
-2.76416e-11
0.00022885
1.9772e-12
0.00022885
-2.55513e-11
0.00022885
5.48064e-12
0.00022885
-2.12728e-11
0.00022885
4.72009e-12
0.00022885
-5.63663e-12
5.46026e-12
0.000298179
5.67765e-12
0.000298179
-4.92173e-12
0.000298179
-1.40049e-13
0.000298179
-6.83383e-12
0.000298179
-6.84067e-12
0.000298179
-5.39923e-12
0.000298179
-1.15087e-11
0.000298179
-3.02609e-12
0.000298179
-1.49962e-11
0.000298179
-2.12457e-13
0.000298179
-1.70407e-11
0.000298179
2.42606e-12
0.000298179
-1.73246e-11
0.000298179
4.43854e-12
0.000298179
-1.60082e-11
0.000298179
6.08038e-12
0.000298179
-1.3258e-11
0.000298179
4.57729e-12
0.000298179
-3.20302e-12
2.86266e-12
0.000373841
2.55358e-12
0.000373841
-2.32211e-12
0.000373841
8.58638e-13
0.000373841
-2.2114e-13
0.000373841
-1.13092e-12
0.000373841
2.02748e-12
0.000373841
-2.55881e-12
0.000373841
4.09998e-12
0.000373841
-3.80241e-12
0.000373841
5.78882e-12
0.000373841
-4.6609e-12
0.000373841
6.80319e-12
0.000373841
-4.94965e-12
0.000373841
7.01102e-12
0.000373841
-4.74054e-12
0.000373841
6.68829e-12
0.000373841
-3.99909e-12
0.000373841
4.45533e-12
0.000373841
4.82901e-14
1.40243e-12
0.000455836
0.000455836
0.000455836
0.000455836
0.000455836
0.000455836
0.000455836
0.000455836
0.000455836
0.000455836
0.000455836
0.000455836
0.000455836
0.000455836
0.000455836
0.000455836
0.000455836
0.000455836
0.000455836
)
;

boundaryField
{
    top
    {
        type            calculated;
        value           uniform 0;
    }
    bottom
    {
        type            calculated;
        value           uniform 0;
    }
    inlet
    {
        type            calculated;
        value           nonuniform List<scalar> 
20
(
1.91639e-05
5.11588e-05
7.68209e-05
9.61502e-05
0.000109147
0.000115811
0.000116142
0.00011014
9.78053e-05
7.91381e-05
5.41381e-05
2.28054e-05
-1.48601e-05
-5.88584e-05
-0.000109189
-0.000165853
-0.00022885
-0.000298179
-0.000373841
-0.000455836
)
;
    }
    outlet
    {
        type            calculated;
        value           nonuniform List<scalar> 
20
(
-1.91639e-05
-5.11588e-05
-7.68209e-05
-9.61502e-05
-0.000109147
-0.000115811
-0.000116142
-0.00011014
-9.78054e-05
-7.91381e-05
-5.41381e-05
-2.28053e-05
1.48602e-05
5.88584e-05
0.000109189
0.000165853
0.00022885
0.000298179
0.000373841
0.000455836
)
;
    }
    frontAndBack
    {
        type            empty;
        value           nonuniform 0();
    }
}


// ************************************************************************* //
