/*--------------------------------*- C++ -*----------------------------------*\
| =========                 |                                                 |
| \\      /  F ield         | OpenFOAM: The Open Source CFD Toolbox           |
|  \\    /   O peration     | Version:  4.1                                   |
|   \\  /    A nd           | Web:      www.OpenFOAM.org                      |
|    \\/     M anipulation  |                                                 |
\*---------------------------------------------------------------------------*/
FoamFile
{
    version     2.0;
    format      ascii;
    class       volVectorField;
    location    "1.6";
    object      U;
}
// * * * * * * * * * * * * * * * * * * * * * * * * * * * * * * * * * * * * * //

dimensions      [0 1 -1 0 0 0 0];

internalField   nonuniform List<vector> 
400
(
(-0.383277 2.31505e-10 0)
(-0.383277 -6.07835e-10 0)
(-0.383277 -1.49057e-10 0)
(-0.383277 -2.23422e-09 0)
(-0.383277 -7.87253e-10 0)
(-0.383277 -3.20094e-09 0)
(-0.383277 -1.2803e-09 0)
(-0.383277 -3.72735e-09 0)
(-0.383277 -1.59604e-09 0)
(-0.383277 -3.84139e-09 0)
(-0.383277 -1.77066e-09 0)
(-0.383277 -3.57069e-09 0)
(-0.383277 -1.81132e-09 0)
(-0.383277 -2.94e-09 0)
(-0.383277 -1.71047e-09 0)
(-0.383277 -2.12016e-09 0)
(-0.383277 -1.51999e-09 0)
(-0.383277 -1.11443e-09 0)
(-0.383277 -1.38333e-09 0)
(-0.383277 -5.20686e-11 0)
(-1.02318 2.15248e-09 0)
(-1.02318 -1.91308e-09 0)
(-1.02318 9.59299e-09 0)
(-1.02318 -8.84501e-09 0)
(-1.02318 1.30891e-08 0)
(-1.02318 -1.17914e-08 0)
(-1.02318 1.49882e-08 0)
(-1.02318 -1.32137e-08 0)
(-1.02318 1.55347e-08 0)
(-1.02318 -1.30834e-08 0)
(-1.02318 1.43213e-08 0)
(-1.02318 -1.13656e-08 0)
(-1.02318 1.14897e-08 0)
(-1.02318 -8.35699e-09 0)
(-1.02318 7.57335e-09 0)
(-1.02318 -4.6426e-09 0)
(-1.02318 2.82915e-09 0)
(-1.02318 1.53871e-10 0)
(-1.02318 -2.98339e-09 0)
(-1.02318 3.37619e-09 0)
(-1.53642 2.25919e-09 0)
(-1.53642 -5.74585e-09 0)
(-1.53642 6.23167e-09 0)
(-1.53642 -1.96339e-08 0)
(-1.53642 4.82736e-09 0)
(-1.53642 -2.59128e-08 0)
(-1.53642 3.62738e-09 0)
(-1.53642 -2.87291e-08 0)
(-1.53642 2.43343e-09 0)
(-1.53642 -2.83518e-08 0)
(-1.53642 6.80866e-10 0)
(-1.53642 -2.495e-08 0)
(-1.53642 -1.52377e-09 0)
(-1.53642 -1.92316e-08 0)
(-1.53642 -3.74277e-09 0)
(-1.53642 -1.20482e-08 0)
(-1.53642 -6.03325e-09 0)
(-1.53642 -3.79712e-09 0)
(-1.53642 -8.10425e-09 0)
(-1.53642 3.67466e-09 0)
(-1.923 4.41263e-09 0)
(-1.923 -7.56557e-09 0)
(-1.923 1.04898e-08 0)
(-1.923 -2.75961e-08 0)
(-1.923 7.99349e-09 0)
(-1.923 -3.57831e-08 0)
(-1.923 6.20874e-09 0)
(-1.923 -3.90387e-08 0)
(-1.923 4.37435e-09 0)
(-1.923 -3.79224e-08 0)
(-1.923 1.63751e-09 0)
(-1.923 -3.27209e-08 0)
(-1.923 -1.78358e-09 0)
(-1.923 -2.45075e-08 0)
(-1.923 -5.21307e-09 0)
(-1.923 -1.44389e-08 0)
(-1.923 -8.69805e-09 0)
(-1.923 -3.49852e-09 0)
(-1.923 -1.08032e-08 0)
(-1.923 7.09601e-09 0)
(-2.18294 6.74189e-09 0)
(-2.18294 -8.33123e-09 0)
(-2.18294 1.16001e-08 0)
(-2.18294 -3.43671e-08 0)
(-2.18294 5.62472e-09 0)
(-2.18294 -4.44311e-08 0)
(-2.18294 1.84478e-09 0)
(-2.18294 -4.81105e-08 0)
(-2.18294 -1.30786e-09 0)
(-2.18294 -4.63663e-08 0)
(-2.18294 -4.87952e-09 0)
(-2.18294 -3.97072e-08 0)
(-2.18294 -8.58803e-09 0)
(-2.18294 -2.94843e-08 0)
(-2.18294 -1.16968e-08 0)
(-2.18294 -1.7103e-08 0)
(-2.18294 -1.43895e-08 0)
(-2.18294 -4.37629e-09 0)
(-2.18294 -1.36584e-08 0)
(-2.18294 9.63196e-09 0)
(-2.31621 9.75033e-09 0)
(-2.31621 -7.90186e-09 0)
(-2.31621 1.33637e-08 0)
(-2.31621 -3.9081e-08 0)
(-2.31621 4.18845e-09 0)
(-2.31621 -5.02376e-08 0)
(-2.31621 -1.35804e-09 0)
(-2.31621 -5.38793e-08 0)
(-2.31621 -5.73502e-09 0)
(-2.31621 -5.13793e-08 0)
(-2.31621 -1.01476e-08 0)
(-2.31621 -4.34676e-08 0)
(-2.31621 -1.42254e-08 0)
(-2.31621 -3.17558e-08 0)
(-2.31621 -1.71627e-08 0)
(-2.31621 -1.77994e-08 0)
(-2.31621 -1.92577e-08 0)
(-2.31621 -4.18408e-09 0)
(-2.31621 -1.53946e-08 0)
(-2.31621 1.26812e-08 0)
(-2.32283 1.30336e-08 0)
(-2.32283 -6.65493e-09 0)
(-2.32283 1.47595e-08 0)
(-2.32283 -4.19924e-08 0)
(-2.32283 2.33175e-09 0)
(-2.32283 -5.3626e-08 0)
(-2.32283 -4.9923e-09 0)
(-2.32283 -5.69197e-08 0)
(-2.32283 -1.05898e-08 0)
(-2.32283 -5.36422e-08 0)
(-2.32283 -1.57666e-08 0)
(-2.32283 -4.47534e-08 0)
(-2.32283 -2.0061e-08 0)
(-2.32283 -3.20661e-08 0)
(-2.32283 -2.26332e-08 0)
(-2.32283 -1.7196e-08 0)
(-2.32283 -2.39092e-08 0)
(-2.32283 -3.47309e-09 0)
(-2.32283 -1.62775e-08 0)
(-2.32283 1.57099e-08 0)
(-2.2028 1.62638e-08 0)
(-2.2028 -5.04471e-09 0)
(-2.2028 1.55827e-08 0)
(-2.2028 -4.34174e-08 0)
(-2.2028 3.15747e-11 0)
(-2.2028 -5.49849e-08 0)
(-2.2028 -8.99639e-09 0)
(-2.2028 -5.76849e-08 0)
(-2.2028 -1.57473e-08 0)
(-2.2028 -5.36399e-08 0)
(-2.2028 -2.15676e-08 0)
(-2.2028 -4.40264e-08 0)
(-2.2028 -2.59062e-08 0)
(-2.2028 -3.08133e-08 0)
(-2.2028 -2.79293e-08 0)
(-2.2028 -1.55933e-08 0)
(-2.2028 -2.81992e-08 0)
(-2.2028 -2.38621e-09 0)
(-2.2028 -1.6407e-08 0)
(-2.2028 1.8479e-08 0)
(-1.95611 1.91407e-08 0)
(-1.95611 -3.44195e-09 0)
(-1.95611 1.57238e-08 0)
(-1.95611 -4.35753e-08 0)
(-1.95611 -2.63822e-09 0)
(-1.95611 -5.46189e-08 0)
(-1.95611 -1.32099e-08 0)
(-1.95611 -5.65562e-08 0)
(-1.95611 -2.09886e-08 0)
(-1.95611 -5.1795e-08 0)
(-1.95611 -2.72984e-08 0)
(-1.95611 -4.17125e-08 0)
(-1.95611 -3.15081e-08 0)
(-1.95611 -2.83753e-08 0)
(-1.95611 -3.28303e-08 0)
(-1.95611 -1.32797e-08 0)
(-1.95611 -3.19623e-08 0)
(-1.95611 -1.08207e-09 0)
(-1.95611 -1.59353e-08 0)
(-1.95611 2.07195e-08 0)
(-1.58276 2.14006e-08 0)
(-1.58276 -2.1394e-09 0)
(-1.58276 1.5164e-08 0)
(-1.58276 -4.26311e-08 0)
(-1.58276 -5.50506e-09 0)
(-1.58276 -5.2769e-08 0)
(-1.58276 -1.73681e-08 0)
(-1.58276 -5.38465e-08 0)
(-1.58276 -2.59908e-08 0)
(-1.58276 -4.84683e-08 0)
(-1.58276 -3.26142e-08 0)
(-1.58276 -3.81767e-08 0)
(-1.58276 -3.65402e-08 0)
(-1.58276 -2.50798e-08 0)
(-1.58276 -3.70661e-08 0)
(-1.58276 -1.05146e-08 0)
(-1.58276 -3.50079e-08 0)
(-1.58276 2.9258e-10 0)
(-1.58276 -1.50353e-08 0)
(-1.58276 2.21889e-08 0)
(-1.08276 2.28301e-08 0)
(-1.08276 -1.33947e-09 0)
(-1.08276 1.39479e-08 0)
(-1.08276 -4.07154e-08 0)
(-1.08276 -8.34495e-09 0)
(-1.08276 -4.96499e-08 0)
(-1.08276 -2.11609e-08 0)
(-1.08276 -4.98412e-08 0)
(-1.08276 -3.03922e-08 0)
(-1.08276 -4.39888e-08 0)
(-1.08276 -3.71403e-08 0)
(-1.08276 -3.37535e-08 0)
(-1.08276 -4.06583e-08 0)
(-1.08276 -2.1226e-08 0)
(-1.08276 -4.03607e-08 0)
(-1.08276 -7.53517e-09 0)
(-1.08276 -3.71501e-08 0)
(-1.08276 1.60971e-09 0)
(-1.08276 -1.38823e-08 0)
(-1.08276 2.26983e-08 0)
(-0.456107 2.32767e-08 0)
(-0.456107 -1.15392e-09 0)
(-0.456107 1.21587e-08 0)
(-0.456107 -3.79626e-08 0)
(-0.456107 -1.09295e-08 0)
(-0.456107 -4.54841e-08 0)
(-0.456107 -2.42902e-08 0)
(-0.456107 -4.48325e-08 0)
(-0.456107 -3.38532e-08 0)
(-0.456107 -3.86887e-08 0)
(-0.456107 -4.05325e-08 0)
(-0.456107 -2.87753e-08 0)
(-0.456107 -4.3554e-08 0)
(-0.456107 -1.71062e-08 0)
(-0.456107 -4.24739e-08 0)
(-0.456107 -4.57079e-09 0)
(-0.456107 -3.82359e-08 0)
(-0.456107 2.7585e-09 0)
(-0.456107 -1.26354e-08 0)
(-0.456107 2.21374e-08 0)
(0.297203 2.26643e-08 0)
(0.297203 -1.59361e-09 0)
(0.297203 9.91607e-09 0)
(0.297203 -3.45156e-08 0)
(0.297203 -1.30432e-08 0)
(0.297203 -4.05065e-08 0)
(0.297203 -2.6491e-08 0)
(0.297203 -3.91193e-08 0)
(0.297203 -3.60788e-08 0)
(0.297203 -3.28986e-08 0)
(0.297203 -4.24979e-08 0)
(0.297203 -2.35642e-08 0)
(0.297203 -4.49722e-08 0)
(0.297203 -1.29964e-08 0)
(0.297203 -4.32125e-08 0)
(0.297203 -1.83347e-09 0)
(0.297203 -3.81535e-08 0)
(0.297203 3.65434e-09 0)
(0.297203 -1.14157e-08 0)
(0.297203 2.04967e-08 0)
(1.17717 2.10065e-08 0)
(1.17717 -2.55285e-09 0)
(1.17717 7.39443e-09 0)
(1.17717 -3.05027e-08 0)
(1.17717 -1.44672e-08 0)
(1.17717 -3.4932e-08 0)
(1.17717 -2.75077e-08 0)
(1.17717 -3.29675e-08 0)
(1.17717 -3.67913e-08 0)
(1.17717 -2.69034e-08 0)
(1.17717 -4.27688e-08 0)
(1.17717 -1.83883e-08 0)
(1.17717 -4.46864e-08 0)
(1.17717 -9.11709e-09 0)
(1.17717 -4.24109e-08 0)
(1.17717 5.1488e-10 0)
(1.17717 -3.68115e-08 0)
(1.17717 4.25675e-09 0)
(1.17717 -1.02756e-08 0)
(1.17717 1.78852e-08 0)
(2.18379 1.84159e-08 0)
(2.18379 -3.80713e-09 0)
(2.18379 4.83103e-09 0)
(2.18379 -2.60194e-08 0)
(2.18379 -1.49764e-08 0)
(2.18379 -2.8931e-08 0)
(2.18379 -2.70882e-08 0)
(2.18379 -2.65784e-08 0)
(2.18379 -3.5719e-08 0)
(2.18379 -2.09067e-08 0)
(2.18379 -4.10784e-08 0)
(2.18379 -1.34262e-08 0)
(2.18379 -4.24717e-08 0)
(2.18379 -5.6021e-09 0)
(2.18379 -3.99038e-08 0)
(2.18379 2.38741e-09 0)
(2.18379 -3.41282e-08 0)
(2.18379 4.5775e-09 0)
(2.18379 -9.18421e-09 0)
(2.18379 1.45368e-08 0)
(3.31706 1.50442e-08 0)
(3.31706 -5.04951e-09 0)
(3.31706 2.47838e-09 0)
(3.31706 -2.11679e-08 0)
(3.31706 -1.4382e-08 0)
(3.31706 -2.26773e-08 0)
(3.31706 -2.50159e-08 0)
(3.31706 -2.01419e-08 0)
(3.31706 -3.26204e-08 0)
(3.31706 -1.50862e-08 0)
(3.31706 -3.7193e-08 0)
(3.31706 -8.81872e-09 0)
(3.31706 -3.81244e-08 0)
(3.31706 -2.54199e-09 0)
(3.31706 -3.55293e-08 0)
(3.31706 3.74127e-09 0)
(3.31706 -3.00026e-08 0)
(3.31706 4.65703e-09 0)
(3.31706 -8.00596e-09 0)
(3.31706 1.08087e-08 0)
(4.57699 1.17462e-08 0)
(4.577 -5.46765e-09 0)
(4.577 1.43661e-09 0)
(4.577 -1.49737e-08 0)
(4.577 -1.15658e-08 0)
(4.577 -1.48258e-08 0)
(4.577 -2.01291e-08 0)
(4.577 -1.20325e-08 0)
(4.577 -2.63866e-08 0)
(4.577 -7.68071e-09 0)
(4.577 -3.01425e-08 0)
(4.577 -2.83209e-09 0)
(4.577 -3.08941e-08 0)
(4.577 1.61014e-09 0)
(4.577 -2.87916e-08 0)
(4.577 5.8199e-09 0)
(4.577 -2.42491e-08 0)
(4.577 5.26691e-09 0)
(4.577 -6.44356e-09 0)
(4.577 7.20889e-09 0)
(5.96358 6.06577e-09 0)
(5.96358 -6.52132e-09 0)
(5.96358 -1.88696e-09 0)
(5.96358 -1.2316e-08 0)
(5.96358 -1.11454e-08 0)
(5.96358 -1.23973e-08 0)
(5.96358 -1.73601e-08 0)
(5.96358 -1.05995e-08 0)
(5.96358 -2.17177e-08 0)
(5.96358 -7.551e-09 0)
(5.96358 -2.40191e-08 0)
(5.96358 -3.99556e-09 0)
(5.96358 -2.39823e-08 0)
(5.96358 -5.75555e-10 0)
(5.96358 -2.18289e-08 0)
(5.96358 2.81444e-09 0)
(5.96358 -1.78442e-08 0)
(5.96358 2.95808e-09 0)
(5.96358 -4.96895e-09 0)
(5.96358 3.79522e-09 0)
(7.47682 5.63396e-09 0)
(7.47682 -3.18551e-09 0)
(7.47682 2.39615e-09 0)
(7.47682 -1.02973e-09 0)
(7.47682 -1.74451e-09 0)
(7.47682 2.17796e-09 0)
(7.47682 -4.90917e-09 0)
(7.47682 5.31418e-09 0)
(7.47682 -7.64252e-09 0)
(7.47682 8.01773e-09 0)
(7.47682 -9.60357e-09 0)
(7.47682 9.78585e-09 0)
(7.47682 -1.04385e-08 0)
(7.47682 1.03451e-08 0)
(7.47682 -1.02695e-08 0)
(7.47682 1.01288e-08 0)
(7.47682 -8.9816e-09 0)
(7.47682 6.8375e-09 0)
(7.47682 -1.68557e-09 0)
(7.47682 1.98937e-09 0)
(9.11672 -4.20151e-10 0)
(9.11672 -1.96489e-09 0)
(9.11672 -1.67445e-09 0)
(9.11672 -2.84405e-09 0)
(9.11672 -2.7751e-09 0)
(9.11672 -3.13148e-09 0)
(9.11672 -3.43104e-09 0)
(9.11672 -3.07985e-09 0)
(9.11672 -3.75535e-09 0)
(9.11672 -2.72497e-09 0)
(9.11672 -3.74571e-09 0)
(9.11672 -2.15297e-09 0)
(9.11672 -3.41547e-09 0)
(9.11672 -1.45227e-09 0)
(9.11672 -2.86771e-09 0)
(9.11672 -6.64027e-10 0)
(9.11672 -2.00156e-09 0)
(9.11672 -1.61407e-10 0)
(9.11672 -3.75132e-10 0)
(9.11672 4.26736e-10 0)
)
;

boundaryField
{
    top
    {
        type            fixedValue;
        value           uniform (10 0 0);
    }
    bottom
    {
        type            fixedValue;
        value           uniform (0 0 0);
    }
    inlet
    {
        type            zeroGradient;
    }
    outlet
    {
        type            zeroGradient;
    }
    frontAndBack
    {
        type            empty;
    }
}


// ************************************************************************* //
